Title
81290
    1CHL1    C3    1   1.778   0.238  10.363 -0.2717 -0.2225  0.2197
    1CHL1    H3    2   1.698   0.314  10.354  0.5065  0.5070 -0.6648
    1CHL1    O3    3   1.820   0.222  10.496  0.5638  0.6552 -0.6881
    1CHL1   H3'    4   1.796   0.302  10.544 -2.2244 -0.6156  0.2426
    1CHL1    C4    5   1.711   0.113  10.307 -0.2876  0.0566 -0.0982
    1CHL1   H4A    6   1.780   0.033  10.343  0.1924 -0.6034 -2.3511
    1CHL1   H4B    7   1.616   0.089  10.361  0.1737 -2.5555 -0.2771
    1CHL1    C5    8   1.697   0.113  10.153 -0.4977 -0.3634 -0.1803
    1CHL1    C6    9   1.578   0.098  10.092  0.5825  0.0570  0.0313
    1CHL1    H6   10   1.483   0.096  10.149  1.1315  2.5795  1.1573
    1CHL1    C7   11   1.558   0.104   9.942  0.2187 -0.4308  0.5513
    1CHL1   H7A   12   1.489   0.029   9.899  1.0769 -1.2742  0.5960
    1CHL1   H7B   13   1.520   0.203   9.912 -1.5999 -1.1193  0.4695
    1CHL1    C8   14   1.695   0.087   9.870  0.6330  0.0431  0.4375
    1CHL1    H8   15   1.725  -0.020   9.876 -0.8792 -0.3118  2.7850
    1CHL1   C14   16   1.677   0.119   9.722 -0.4560  0.2508  0.0304
    1CHL1   H14   17   1.643   0.223   9.708 -1.2467  0.0376  0.3318
    1CHL1   C15   18   1.577   0.045   9.635 -0.4254 -0.1859  0.0907
    1CHL1  H15A   19   1.577  -0.063   9.660  0.1989  0.0516  1.1804
    1CHL1  H15B   20   1.469   0.068   9.650 -0.1964 -0.8202  3.2949
    1CHL1   C16   21   1.608   0.068   9.486  0.0679 -0.5857 -0.6466
    1CHL1  H16A   22   1.602  -0.033   9.439 -2.2488 -0.3147 -1.0536
    1CHL1  H16B   23   1.532   0.144   9.459  0.2560  1.2351  3.2354
    1CHL1   C17   24   1.751   0.130   9.492  0.0580 -0.3996  0.5270
    1CHL1   H17   25   1.737   0.241   9.487  1.2637  0.1801  5.3900
    1CHL1   C13   26   1.805   0.100   9.639 -0.4030 -0.2511 -0.1467
    1CHL1   C18   27   1.853  -0.044   9.643 -0.5407  0.1632  0.3695
    1CHL1  H18A   28   1.942  -0.065   9.579  1.1060  2.1581  1.8695
    1CHL1  H18B   29   1.881  -0.088   9.742  0.1774 -0.8160 -0.2515
    1CHL1  H18C   30   1.773  -0.106   9.596 -1.5245  3.7610 -3.2307
    1CHL1   C12   31   1.908   0.197   9.683  0.4403 -0.1963  0.0513
    1CHL1  H12A   32   2.004   0.187   9.627  1.6472  2.1273  1.5312
    1CHL1  H12B   33   1.872   0.298   9.657  1.1988 -0.3360 -1.7158
    1CHL1   C11   34   1.938   0.184   9.828  0.4520  0.6250  0.0171
    1CHL1  H11A   35   1.998   0.092   9.848  2.7839  1.7550 -1.3605
    1CHL1  H11B   36   1.995   0.271   9.865  1.5249 -0.7672  1.7844
    1CHL1    C9   37   1.812   0.171   9.920  0.2608  0.0683 -0.0981
    1CHL1    H9   38   1.771   0.275   9.922  0.8269  0.3034 -0.5045
    1CHL1   C10   39   1.828   0.147  10.072 -0.9065 -0.0534 -0.8226
    1CHL1   C19   40   1.912   0.018  10.099 -0.0523  0.1652  0.6638
    1CHL1  H19A   41   1.924  -0.004  10.207 -0.6892 -1.1570  0.4869
    1CHL1  H19B   42   1.845  -0.056  10.050  1.0397  0.2189 -0.9932
    1CHL1  H19C   43   2.011   0.036  10.051 -0.3363  1.3746  0.4860
    1CHL1    C1   44   1.889   0.272  10.135  0.2067  0.2106 -0.0783
    1CHL1   H1A   45   1.985   0.304  10.088  0.7869 -1.2940  0.0433
    1CHL1   H1B   46   1.809   0.348  10.118  0.0682 -0.1384 -1.0425
    1CHL1    C2   47   1.909   0.276  10.291  0.2350  0.3675  0.7548
    1CHL1   H2A   48   1.941   0.376  10.327 -1.8921  1.5051 -0.3235
    1CHL1   H2B   49   1.991   0.204  10.315  0.1447 -0.5443 -1.4300
    1CHL1   C20   50   1.829   0.090   9.361 -0.2942 -0.2906 -0.4958
    1CHL1   H20   51   1.834  -0.021   9.348  1.6326 -0.1666 -1.1678
    1CHL1   C21   52   1.974   0.131   9.378  0.0634  0.3302 -0.0813
    1CHL1  H21A   53   2.025   0.088   9.289 -1.0130 -1.3966  0.0855
    1CHL1  H21B   54   2.038   0.090   9.459 -0.1330  0.2056  0.0102
    1CHL1  H21C   55   1.987   0.240   9.364  0.6889 -0.0563 -3.2927
    1CHL1   C22   56   1.771   0.162   9.237  0.4395 -0.8677 -0.2244
    1CHL1  H22A   57   1.661   0.163   9.252  0.5323  0.6009  0.5196
    1CHL1  H22B   58   1.801   0.268   9.252 -2.2153  0.0491 -0.8096
    1CHL1   C23   59   1.806   0.115   9.096  0.1571  0.3750  0.2101
    1CHL1  H23A   60   1.917   0.114   9.095  0.2139  0.7969 -2.8143
    1CHL1  H23B   61   1.772   0.011   9.077 -0.2301  0.4022  0.7395
    1CHL1   C24   62   1.749   0.218   8.998  0.0908  0.3474  0.0916
    1CHL1  H24A   63   1.639   0.234   9.010 -0.0040  1.4469 -1.8628
    1CHL1  H24B   64   1.792   0.318   9.019 -0.9452  0.5090  1.6578
    1CHL1   C25   65   1.772   0.190   8.846  0.3501  0.4991 -0.1631
    1CHL1   H25   66   1.728   0.276   8.791 -3.4258 -1.7605 -0.9654
    1CHL1   C26   67   1.926   0.198   8.829 -0.0599  0.0666  0.3253
    1CHL1  H26A   68   1.975   0.123   8.895  1.0089  0.9653  0.5933
    1CHL1  H26B   69   1.967   0.176   8.728 -1.5025 -0.9158 -0.0783
    1CHL1  H26C   70   1.967   0.296   8.863 -0.3068  0.2894 -0.0113
    1CHL1   C27   71   1.713   0.064   8.781  0.6422 -0.3941 -0.3355
    1CHL1  H27A   72   1.602   0.063   8.783  0.6457 -1.2868 -0.2624
    1CHL1  H27B   73   1.751   0.069   8.676  1.8551 -1.3105  0.0370
    1CHL1  H27C   74   1.759  -0.022   8.834 -0.5674 -1.3503 -0.7719
    2CHL1    C3   75   1.919   5.362   9.915 -0.6784  0.2445 -0.2617
    2CHL1    H3   76   2.027   5.334   9.914 -1.4147 -3.0419 -2.0808
    2CHL1    O3   77   1.867   5.415  10.037  0.3195 -0.5793  0.0912
    2CHL1   H3'   78   1.775   5.390  10.027 -0.9414  3.5501 -0.5015
    2CHL1    C4   79   1.884   5.457   9.800 -0.5624  0.3507 -0.3113
    2CHL1   H4A   80   1.778   5.489   9.810  0.1949  2.7125  0.9406
    2CHL1   H4B   81   1.934   5.555   9.812  0.0305  0.2935 -1.9924
    2CHL1    C5   82   1.908   5.384   9.668  0.0508 -1.0989 -0.0411
    2CHL1    C6   83   1.994   5.438   9.574  0.6851  0.0769 -0.6640
    2CHL1    H6   84   2.041   5.535   9.595 -3.0565  1.7148  1.0065
    2CHL1    C7   85   2.029   5.371   9.443 -0.0665  0.4256  0.6365
    2CHL1   H7A   86   2.036   5.456   9.371 -2.3466  0.7560  0.7260
    2CHL1   H7B   87   2.125   5.319   9.460 -0.5165 -0.8771 -0.5953
    2CHL1    C8   88   1.930   5.269   9.398  0.0787  0.8162  0.2973
    2CHL1    H8   89   1.837   5.319   9.362  0.8060  1.3297 -0.9628
    2CHL1   C14   90   1.986   5.195   9.274  0.0874 -0.3138 -0.0213
    2CHL1   H14   91   2.076   5.141   9.311  0.1234 -2.5701 -3.0221
    2CHL1   C15   92   2.032   5.279   9.151  0.0141  0.0226  0.1460
    2CHL1  H15A   93   1.958   5.360   9.132  1.6669  2.1004  2.0643
    2CHL1  H15B   94   2.131   5.329   9.150  1.1388 -2.0544 -1.5807
    2CHL1   C16   95   2.025   5.168   9.039 -0.4977 -0.2996 -0.0196
    2CHL1  H16A   96   1.949   5.197   8.963 -1.2843 -0.0617  0.8405
    2CHL1  H16B   97   2.117   5.167   8.977 -1.0023 -0.8976 -0.7717
    2CHL1   C17   98   1.977   5.031   9.098 -0.0394 -0.3063 -0.0792
    2CHL1   H17   99   2.066   4.976   9.135 -0.5009  0.2108  1.9115
    2CHL1   C13  100   1.891   5.078   9.220 -0.4335  0.4838 -0.1996
    2CHL1   C18  101   1.756   5.129   9.174 -0.3331 -0.6837  0.3624
    2CHL1  H18A  102   1.701   5.177   9.258 -1.0487 -1.2033  0.2015
    2CHL1  H18B  103   1.773   5.211   9.100  0.1735 -0.4436  0.7388
    2CHL1  H18C  104   1.682   5.058   9.131 -0.5013  0.0232 -0.5589
    2CHL1   C12  105   1.878   4.978   9.336  0.2807  0.0141 -0.4363
    2CHL1  H12A  106   1.810   4.898   9.301  0.5561 -0.4904  0.1658
    2CHL1  H12B  107   1.984   4.948   9.352  0.3528 -0.1478 -1.1703
    2CHL1   C11  108   1.829   5.044   9.466 -0.1623  0.4770 -0.7552
    2CHL1  H11A  109   1.725   5.074   9.444 -0.4618 -0.3862 -0.5273
    2CHL1  H11B  110   1.831   4.973   9.551 -0.6427  0.9345 -0.3505
    2CHL1    C9  111   1.905   5.166   9.513  0.6297  0.7930 -0.2723
    2CHL1    H9  112   2.004   5.128   9.545 -0.5113 -1.6110  0.5750
    2CHL1   C10  113   1.843   5.246   9.641  0.4933  0.0914  0.5103
    2CHL1   C19  114   1.690   5.268   9.617  0.1570  0.0734 -0.7768
    2CHL1  H19A  115   1.681   5.327   9.524 -0.1940  1.0904 -0.1158
    2CHL1  H19B  116   1.641   5.168   9.606 -1.0086  0.1455  2.6300
    2CHL1  H19C  117   1.648   5.322   9.705  1.2078 -0.8313  0.3082
    2CHL1    C1  118   1.871   5.154   9.764 -0.5617  0.1775  0.4019
    2CHL1   H1A  119   1.811   5.061   9.759 -0.9497  0.4967 -1.9599
    2CHL1   H1B  120   1.973   5.111   9.759 -0.5251  0.0861  1.5451
    2CHL1    C2  121   1.847   5.225   9.902  0.0813 -0.5415  0.6813
    2CHL1   H2A  122   1.880   5.149   9.976  0.8218  0.6995  1.6743
    2CHL1   H2B  123   1.738   5.245   9.900  0.0896 -0.5418 -1.2557
    2CHL1   C20  124   1.911   4.941   8.989 -1.0891  0.7619 -0.3967
    2CHL1   H20  125   1.814   4.977   8.948 -0.1979  1.3499 -2.0794
    2CHL1   C21  126   1.872   4.799   9.036  0.1684 -0.6664  0.1988
    2CHL1  H21A  127   1.947   4.744   9.096 -0.0346 -1.3932 -0.2122
    2CHL1  H21B  128   1.835   4.735   8.954  0.7483 -0.4758 -0.2215
    2CHL1  H21C  129   1.783   4.809   9.101 -0.4460  0.9955 -0.8411
    2CHL1   C22  130   2.006   4.938   8.866  0.4319  0.6081 -0.5796
    2CHL1  H22A  131   2.000   5.037   8.815  1.2537 -0.8483 -3.7596
    2CHL1  H22B  132   2.109   4.918   8.902 -0.1231  2.4723  2.4116
    2CHL1   C23  133   1.961   4.831   8.761  0.1702  0.7603 -0.0602
    2CHL1  H23A  134   1.985   4.729   8.797  4.7882  1.8359  0.6060
    2CHL1  H23B  135   1.851   4.841   8.746  0.0450 -1.5277 -1.0654
    2CHL1   C24  136   2.031   4.860   8.629  0.5818  0.1731 -0.4700
    2CHL1  H24A  137   1.998   4.796   8.544  0.3027  0.9524 -0.9541
    2CHL1  H24B  138   2.006   4.965   8.604  0.3846 -0.3493 -2.6820
    2CHL1   C25  139   2.186   4.841   8.622  0.2273 -0.1913  1.3429
    2CHL1   H25  140   2.229   4.897   8.708  3.8784  1.1439 -1.1336
    2CHL1   C26  141   2.215   4.696   8.634 -0.6872  0.1597 -0.6406
    2CHL1  H26A  142   2.322   4.672   8.615 -0.4982  1.4469 -1.3004
    2CHL1  H26B  143   2.197   4.664   8.739 -0.7977  1.0750 -0.3788
    2CHL1  H26C  144   2.151   4.639   8.563  0.1949 -1.8055  0.0545
    2CHL1   C27  145   2.241   4.896   8.483  0.2349  0.0387 -0.3189
    2CHL1  H27A  146   2.347   4.864   8.477 -0.2141 -1.4299 -1.0477
    2CHL1  H27B  147   2.196   4.830   8.406 -0.3455  1.4102 -1.1809
    2CHL1  H27C  148   2.233   5.005   8.464 -2.4772 -0.2450 -1.2526
    3CHL1    C3  149   1.960   4.538  10.247  0.1754  0.4420  0.4526
    3CHL1    H3  150   2.043   4.609  10.270  0.9938 -0.2995 -0.1300
    3CHL1    O3  151   1.889   4.525  10.365  0.4438 -0.1375 -0.0474
    3CHL1   H3'  152   1.938   4.467  10.424 -1.6522 -0.8459  1.1112
    3CHL1    C4  153   1.866   4.607  10.145 -0.0445 -0.4682  0.2460
    3CHL1   H4A  154   1.765   4.561  10.160 -0.9481  1.4953  0.4893
    3CHL1   H4B  155   1.857   4.713  10.175  2.7021 -0.4777  1.2966
    3CHL1    C5  156   1.920   4.607  10.003 -0.0657 -0.4644 -0.4628
    3CHL1    C6  157   1.935   4.717   9.931  0.4035  0.2490  0.7439
    3CHL1    H6  158   1.919   4.819   9.969  0.2005  0.2978  0.5306
    3CHL1    C7  159   1.966   4.717   9.787  0.3111 -0.2675 -0.4218
    3CHL1   H7A  160   1.895   4.785   9.734  0.7146 -0.6354 -1.4442
    3CHL1   H7B  161   2.070   4.749   9.767 -0.5075  2.5670 -0.7173
    3CHL1    C8  162   1.957   4.576   9.725  0.2942 -0.2567  0.2835
    3CHL1    H8  163   1.849   4.549   9.727  0.3503 -0.5083 -0.0388
    3CHL1   C14  164   2.013   4.566   9.584 -0.2131 -0.1109 -0.3930
    3CHL1   H14  165   2.121   4.579   9.605 -0.9764  2.4407  2.6191
    3CHL1   C15  166   1.972   4.672   9.482  0.2113 -0.0709  0.3053
    3CHL1  H15A  167   1.861   4.673   9.472  0.1810  1.4838  0.5542
    3CHL1  H15B  168   2.012   4.774   9.498  0.3915 -0.1509  0.3697
    3CHL1   C16  169   2.017   4.621   9.338  0.7107 -0.4468 -0.1843
    3CHL1  H16A  170   1.927   4.626   9.272 -1.0107 -2.5979  1.7918
    3CHL1  H16B  171   2.093   4.684   9.287  0.6352  0.1295  0.4043
    3CHL1   C17  172   2.072   4.475   9.369  0.7615 -0.2388  0.2817
    3CHL1   H17  173   2.181   4.491   9.377  1.7188 -3.7357 -2.9815
    3CHL1   C13  174   2.011   4.431   9.510 -0.5441  0.8247 -0.4168
    3CHL1   C18  175   1.864   4.391   9.489 -0.6138 -0.1386  0.1386
    3CHL1  H18A  176   1.854   4.307   9.417 -0.1291  0.0494 -0.1554
    3CHL1  H18B  177   1.813   4.350   9.578  0.4829 -2.0249 -0.0377
    3CHL1  H18C  178   1.810   4.477   9.443 -2.0836 -0.1429  1.7771
    3CHL1   C12  179   2.092   4.338   9.604 -0.3267 -0.1943 -0.0962
    3CHL1  H12A  180   2.100   4.233   9.571 -2.4267 -0.9224  1.4415
    3CHL1  H12B  181   2.194   4.381   9.615 -1.1492  1.3970  1.9556
    3CHL1   C11  182   2.030   4.335   9.750  0.1010 -0.0418 -0.4286
    3CHL1  H11A  183   1.928   4.291   9.743 -0.0727 -0.2975  2.4422
    3CHL1  H11B  184   2.086   4.256   9.804  0.2169 -0.8525 -1.6916
    3CHL1    C9  185   2.016   4.470   9.819 -0.5893  0.3940  0.4921
    3CHL1    H9  186   2.120   4.504   9.839  0.9711 -2.6118 -1.7150
    3CHL1   C10  187   1.953   4.457   9.957 -0.6423  0.0662  0.0672
    3CHL1   C19  188   1.826   4.371   9.967 -1.0770 -0.6226  0.2941
    3CHL1  H19A  189   1.795   4.369  10.073  1.2799  2.4165  1.1790
    3CHL1  H19B  190   1.738   4.414   9.916 -2.3656 -0.0916  2.8219
    3CHL1  H19C  191   1.851   4.267   9.938 -1.6511 -0.0593 -2.5347
    3CHL1    C1  192   2.064   4.401  10.055 -0.3309 -0.1513  0.0923
    3CHL1   H1A  193   2.093   4.299  10.022  3.0965  1.4791 -2.5053
    3CHL1   H1B  194   2.159   4.458  10.046 -0.7338  0.6130  0.5672
    3CHL1    C2  195   2.017   4.405  10.207  0.0113  0.4431 -0.1286
    3CHL1   H2A  196   2.110   4.374  10.258  0.1212 -2.0938 -1.7043
    3CHL1   H2B  197   1.932   4.341  10.237 -0.7398  2.3450  2.1584
    3CHL1   C20  198   2.051   4.382   9.249 -0.5880 -0.0564  0.6288
    3CHL1   H20  199   1.947   4.357   9.221 -0.6623  0.7313  0.1532
    3CHL1   C21  200   2.124   4.252   9.270 -0.3829  0.6594 -0.3041
    3CHL1  H21A  201   2.087   4.180   9.194  2.4340  0.3601 -1.5309
    3CHL1  H21B  202   2.116   4.207   9.371  1.9306 -3.9357 -1.8215
    3CHL1  H21C  203   2.234   4.259   9.255 -0.0115 -1.5939  0.8037
    3CHL1   C22  204   2.107   4.439   9.118 -0.5446  0.0498  0.7485
    3CHL1  H22A  205   2.091   4.548   9.103  1.8097 -0.0182 -4.2516
    3CHL1  H22B  206   2.217   4.428   9.111 -0.5115  0.4608  0.5732
    3CHL1   C23  207   2.055   4.365   8.985 -0.1407  0.2804 -0.0331
    3CHL1  H23A  208   2.039   4.261   9.022  1.5663 -0.1971 -0.5522
    3CHL1  H23B  209   1.956   4.401   8.951 -1.1093 -2.4003 -0.3036
    3CHL1   C24  210   2.159   4.371   8.873  0.3800 -0.1191 -0.0069
    3CHL1  H24A  211   2.160   4.481   8.855 -1.8522 -0.4637 -2.9773
    3CHL1  H24B  212   2.259   4.338   8.909  1.9814  0.9558 -3.1210
    3CHL1   C25  213   2.137   4.297   8.742 -0.3648  0.2927  0.0774
    3CHL1   H25  214   2.221   4.325   8.675  1.3309  2.0073  2.6932
    3CHL1   C26  215   2.155   4.151   8.766 -0.6314  0.2347  0.0415
    3CHL1  H26A  216   2.167   4.097   8.670 -0.0462 -0.0126  0.2488
    3CHL1  H26B  217   2.251   4.129   8.819 -0.5916 -0.8377 -0.4463
    3CHL1  H26C  218   2.077   4.105   8.830 -3.1138  3.2378 -0.5949
    3CHL1   C27  219   1.997   4.325   8.684 -0.4629  0.4337  0.2378
    3CHL1  H27A  220   1.915   4.260   8.723  1.1386 -1.8419 -0.0112
    3CHL1  H27B  221   1.982   4.434   8.693 -0.1564  0.5555 -0.6968
    3CHL1  H27C  222   1.999   4.308   8.574  0.9452 -0.8152  0.4340
    4CHL1    C3  223   1.541   5.956  10.320  0.2555 -0.5074  0.1351
    4CHL1    H3  224   1.591   5.860  10.345  0.5927 -0.4897 -0.4513
    4CHL1    O3  225   1.510   6.017  10.442  0.1661  0.4432 -0.6576
    4CHL1   H3'  226   1.455   6.093  10.421 -0.6253  0.5387  1.5922
    4CHL1    C4  227   1.624   6.057  10.235 -0.3982  0.1591  0.6335
    4CHL1   H4A  228   1.559   6.146  10.227 -0.9135 -0.2201  0.5914
    4CHL1   H4B  229   1.712   6.099  10.289 -0.3490  1.0731 -0.1339
    4CHL1    C5  230   1.656   6.006  10.094  0.3166 -0.3128  0.5509
    4CHL1    C6  231   1.784   5.992  10.061  0.1670  0.1175  0.2875
    4CHL1    H6  232   1.866   6.034  10.122  0.8256  0.0330 -0.5080
    4CHL1    C7  233   1.818   5.936   9.924  0.4495 -0.5906 -0.0138
    4CHL1   H7A  234   1.898   5.993   9.872  0.2654  1.2948  1.6072
    4CHL1   H7B  235   1.840   5.828   9.928 -1.7054 -1.1417 -1.4895
    4CHL1    C8  236   1.700   5.943   9.824  0.0590  0.1307  0.4317
    4CHL1    H8  237   1.688   6.047   9.786  0.6877 -0.3792 -1.2318
    4CHL1   C14  238   1.735   5.859   9.699 -0.3680  0.3312  0.4465
    4CHL1   H14  239   1.768   5.762   9.741  0.3852  0.2305 -0.3440
    4CHL1   C15  240   1.859   5.903   9.623 -0.0349  0.4084  0.4710
    4CHL1  H15A  241   1.853   6.010   9.594 -1.4289  0.3238  0.3746
    4CHL1  H15B  242   1.957   5.888   9.674 -0.4625  0.3589  1.2957
    4CHL1   C16  243   1.849   5.808   9.500  0.3424 -0.9694 -0.3132
    4CHL1  H16A  244   1.860   5.864   9.405 -3.1086 -1.1060 -0.9530
    4CHL1  H16B  245   1.928   5.730   9.504  0.7238 -0.5308  0.8212
    4CHL1   C17  246   1.705   5.750   9.500  0.4357 -0.6778 -0.6393
    4CHL1   H17  247   1.711   5.652   9.552  1.3346 -1.1857 -1.6531
    4CHL1   C13  248   1.629   5.848   9.597 -0.7068 -0.1288  0.0904
    4CHL1   C18  249   1.593   5.974   9.520  0.0312 -0.2699 -0.1550
    4CHL1  H18A  250   1.490   5.963   9.481  0.2902 -0.8451 -0.6959
    4CHL1  H18B  251   1.587   6.059   9.591 -0.6167 -0.5938  0.1868
    4CHL1  H18C  252   1.662   6.008   9.440  0.0082  0.3695  0.0910
    4CHL1   C12  253   1.506   5.787   9.665  0.0410  0.2185  0.3673
    4CHL1  H12A  254   1.422   5.773   9.594  0.6361  1.3151 -0.5797
    4CHL1  H12B  255   1.535   5.685   9.699  1.6317  0.1901 -0.9437
    4CHL1   C11  256   1.460   5.866   9.783 -0.2975  0.2802 -0.4618
    4CHL1  H11A  257   1.424   5.967   9.752  0.9501  0.5640 -1.0931
    4CHL1  H11B  258   1.381   5.805   9.831  1.0473 -0.4050  0.9454
    4CHL1    C9  259   1.565   5.885   9.887  0.1844  0.0204 -0.1768
    4CHL1    H9  260   1.589   5.782   9.921  0.1752 -1.1048 -3.2709
    4CHL1   C10  261   1.529   5.969  10.015 -0.5267 -0.3721  0.0967
    4CHL1   C19  262   1.450   6.102   9.980 -0.5018 -0.0567  0.7732
    4CHL1  H19A  263   1.516   6.158   9.910  0.1703 -0.8095  0.7868
    4CHL1  H19B  264   1.361   6.071   9.921 -0.1772 -0.4543  0.4799
    4CHL1  H19C  265   1.421   6.161  10.069 -0.3078  0.4549  0.4978
    4CHL1    C1  266   1.440   5.881  10.099 -0.5676 -0.4296 -0.0080
    4CHL1   H1A  267   1.345   5.857  10.046 -0.7692  0.3278  0.0044
    4CHL1   H1B  268   1.500   5.788  10.098  0.9065  0.4989 -0.1947
    4CHL1    C2  269   1.412   5.927  10.247 -0.1207 -0.3432 -0.1009
    4CHL1   H2A  270   1.370   5.839  10.300  0.8204 -0.7780 -0.0761
    4CHL1   H2B  271   1.344   6.015  10.233  1.6797  1.2848  0.9092
    4CHL1   C20  272   1.655   5.725   9.361 -0.0000  0.4975  0.2706
    4CHL1   H20  273   1.647   5.825   9.314 -1.6457  0.3742  0.2147
    4CHL1   C21  274   1.507   5.685   9.358 -0.1524 -0.3398  0.6915
    4CHL1  H21A  275   1.471   5.598   9.417 -2.6101  0.5535  0.6646
    4CHL1  H21B  276   1.472   5.649   9.259 -2.1490 -1.8311  1.8632
    4CHL1  H21C  277   1.448   5.774   9.390  1.6020  1.1984 -0.1801
    4CHL1   C22  278   1.735   5.635   9.266 -0.1159  0.4441 -0.0757
    4CHL1  H22A  279   1.843   5.638   9.292  0.1037  0.7674 -0.9872
    4CHL1  H22B  280   1.703   5.529   9.277  0.3692  0.1297 -1.4989
    4CHL1   C23  281   1.735   5.673   9.122  0.1003 -0.6111 -1.3121
    4CHL1  H23A  282   1.630   5.675   9.083  0.3195 -0.0614 -1.9002
    4CHL1  H23B  283   1.780   5.772   9.101  1.0713 -1.1761 -2.0206
    4CHL1   C24  284   1.810   5.574   9.034  0.7880 -0.0922 -0.1735
    4CHL1  H24A  285   1.916   5.587   9.065  0.9820  1.1008 -1.2565
    4CHL1  H24B  286   1.771   5.474   9.061  1.1698 -0.2592 -0.2393
    4CHL1   C25  287   1.767   5.601   8.890  0.4966  0.0109  0.6308
    4CHL1   H25  288   1.658   5.592   8.875  0.9156 -3.9974 -1.2489
    4CHL1   C26  289   1.824   5.730   8.837 -0.3624  0.3353  0.4808
    4CHL1  H26A  290   1.777   5.824   8.875  0.4162  0.8051  0.2909
    4CHL1  H26B  291   1.933   5.724   8.857 -0.2745  0.8831  0.1868
    4CHL1  H26C  292   1.827   5.731   8.726  1.2014  0.9224  0.5065
    4CHL1   C27  293   1.825   5.488   8.802  0.4089  0.0488  0.2205
    4CHL1  H27A  294   1.932   5.510   8.778 -0.0099 -0.2325 -2.1431
    4CHL1  H27B  295   1.819   5.389   8.851 -1.4533 -0.7787 -1.5624
    4CHL1  H27C  296   1.775   5.486   8.703  1.8135 -1.3475 -0.5007
    5CHL1    C3  297   3.489   3.694  10.219 -0.1758 -0.3898 -0.0412
    5CHL1    H3  298   3.598   3.674  10.218 -0.0169  0.2459 -2.3427
    5CHL1    O3  299   3.448   3.735  10.345  0.1745  0.2887  0.0886
    5CHL1   H3'  300   3.353   3.749  10.343  0.3985  1.9537 -0.6569
    5CHL1    C4  301   3.467   3.803  10.102  0.5529  0.2133  0.2250
    5CHL1   H4A  302   3.364   3.843  10.111  0.3473  0.2993 -1.9403
    5CHL1   H4B  303   3.539   3.885  10.122 -1.4217  2.1221 -0.0403
    5CHL1    C5  304   3.497   3.743   9.965 -0.0186 -0.4638  0.6972
    5CHL1    C6  305   3.564   3.824   9.881  0.4585 -0.7784 -0.1426
    5CHL1    H6  306   3.589   3.928   9.907 -1.5099 -0.1970 -0.3835
    5CHL1    C7  307   3.589   3.790   9.743  0.0336  0.1865  0.4055
    5CHL1   H7A  308   3.565   3.877   9.677 -1.3062  0.2999  1.0210
    5CHL1   H7B  309   3.694   3.756   9.727 -0.2526 -0.1163 -0.9974
    5CHL1    C8  310   3.513   3.668   9.687  0.7284  0.4717 -0.1282
    5CHL1    H8  311   3.406   3.692   9.669  0.3609 -0.8471  0.2015
    5CHL1   C14  312   3.564   3.614   9.560 -0.1444  0.2629  0.4009
    5CHL1   H14  313   3.666   3.576   9.580 -1.1325 -2.2039  1.1521
    5CHL1   C15  314   3.577   3.704   9.441 -0.4659 -0.7881  0.0055
    5CHL1  H15A  315   3.492   3.773   9.425  0.7318  0.4217 -1.3997
    5CHL1  H15B  316   3.668   3.761   9.471  0.1127 -2.1495  0.9824
    5CHL1   C16  317   3.599   3.614   9.322  0.3635  0.4874 -0.6188
    5CHL1  H16A  318   3.514   3.642   9.256  0.1930  0.8331 -0.2582
    5CHL1  H16B  319   3.692   3.617   9.262 -0.2981  0.2589 -1.6836
    5CHL1   C17  320   3.578   3.467   9.377 -0.3191 -0.2343  0.1476
    5CHL1   H17  321   3.680   3.426   9.398 -0.4874 -1.3191 -1.0792
    5CHL1   C13  322   3.497   3.491   9.506  0.4793  0.3182 -0.5122
    5CHL1   C18  323   3.339   3.507   9.480  0.7164  0.4687  0.0919
    5CHL1  H18A  324   3.326   3.582   9.400  1.8222 -1.4618 -1.9920
    5CHL1  H18B  325   3.285   3.412   9.463  0.6640 -0.1320  3.0100
    5CHL1  H18C  326   3.295   3.554   9.571  1.2671  1.7544 -0.2798
    5CHL1   C12  327   3.522   3.384   9.610 -0.0518 -1.0204  0.1841
    5CHL1  H12A  328   3.477   3.286   9.583 -2.0368 -0.3213  0.7479
    5CHL1  H12B  329   3.631   3.373   9.623 -0.0545  1.4095  3.3129
    5CHL1   C11  330   3.476   3.417   9.751 -0.2626  0.1602 -0.1131
    5CHL1  H11A  331   3.365   3.415   9.756 -0.2514 -0.4638 -0.0041
    5CHL1  H11B  332   3.514   3.332   9.812 -1.8273 -0.0538  0.6002
    5CHL1    C9  333   3.522   3.558   9.796 -0.4037  0.8003 -0.1350
    5CHL1    H9  334   3.629   3.542   9.818 -1.0231 -2.0834  1.2405
    5CHL1   C10  335   3.451   3.601   9.929 -0.1816  0.8801 -0.2125
    5CHL1   C19  336   3.295   3.614   9.912 -0.1716  0.3273  0.3120
    5CHL1  H19A  337   3.248   3.665  10.000 -0.6349 -1.2882  1.0391
    5CHL1  H19B  338   3.270   3.664   9.816 -0.1854 -1.8390 -0.8616
    5CHL1  H19C  339   3.251   3.512   9.906 -3.0127  1.5379 -1.5902
    5CHL1    C1  340   3.490   3.504  10.049  0.0877 -0.3650 -0.5676
    5CHL1   H1A  341   3.452   3.401  10.031 -2.7614  0.6662 -0.9761
    5CHL1   H1B  342   3.599   3.500  10.066 -0.0101 -1.5276 -0.1207
    5CHL1    C2  343   3.436   3.551  10.184 -0.3907 -0.2648 -0.4042
    5CHL1   H2A  344   3.469   3.491  10.271  1.9564 -0.1293 -1.1317
    5CHL1   H2B  345   3.325   3.549  10.182 -0.3936 -2.8705 -1.7877
    5CHL1   C20  346   3.518   3.380   9.263 -0.3589  0.4370  0.3016
    5CHL1   H20  347   3.414   3.416   9.249  0.0179  1.8610  1.0087
    5CHL1   C21  348   3.490   3.237   9.311  0.3496  0.2793  0.3172
    5CHL1  H21A  349   3.447   3.171   9.233 -3.6205  0.8885  1.7638
    5CHL1  H21B  350   3.427   3.243   9.403  0.0453  0.9012  0.0745
    5CHL1  H21C  351   3.587   3.191   9.340 -0.2716 -1.2995  0.0202
    5CHL1   C22  352   3.602   3.382   9.132 -0.0822 -0.2962  0.6709
    5CHL1  H22A  353   3.561   3.311   9.056  1.9274  0.0468 -0.8235
    5CHL1  H22B  354   3.610   3.482   9.084 -1.0091 -0.3205  0.4486
    5CHL1   C23  355   3.746   3.324   9.146 -0.5702 -0.0006  0.6872
    5CHL1  H23A  356   3.799   3.379   9.228 -2.2739  0.5212  1.4874
    5CHL1  H23B  357   3.741   3.214   9.162  0.0127 -0.0201  0.7615
    5CHL1   C24  358   3.826   3.342   9.014  0.2688 -0.1661 -0.5034
    5CHL1  H24A  359   3.756   3.309   8.934 -1.2759 -1.6668  1.3732
    5CHL1  H24B  360   3.848   3.450   9.008 -0.1909  0.0422  0.9969
    5CHL1   C25  361   3.956   3.262   9.010  0.6235  0.2541  0.3231
    5CHL1   H25  362   3.940   3.153   9.030 -0.7863  0.7877  2.5433
    5CHL1   C26  363   4.002   3.264   8.861  0.4103  0.0821 -0.1140
    5CHL1  H26A  364   4.083   3.189   8.845  1.3275  0.0238  3.8033
    5CHL1  H26B  365   3.921   3.260   8.785 -1.4228  2.8610  1.5230
    5CHL1  H26C  366   4.057   3.359   8.846 -0.6814  0.6495 -0.6359
    5CHL1   C27  367   4.067   3.305   9.110  0.0102 -1.1532 -0.1656
    5CHL1  H27A  368   4.154   3.236   9.106  1.9689  1.0709  1.2693
    5CHL1  H27B  369   4.111   3.405   9.093 -0.7212 -0.9017 -0.6132
    5CHL1  H27C  370   4.036   3.303   9.217  1.2775  0.5162  0.2712
    6CHL1    C3  371   1.630   2.248  10.237 -0.3391  1.2071 -0.6453
    6CHL1    H3  372   1.586   2.337  10.187 -1.3512  0.4269 -1.1868
    6CHL1    O3  373   1.618   2.258  10.380  0.0023 -0.1849 -0.7418
    6CHL1   H3'  374   1.634   2.350  10.405 -2.7385  0.6588 -1.7164
    6CHL1    C4  375   1.569   2.108  10.192  0.0529 -0.0977 -0.4893
    6CHL1   H4A  376   1.627   2.025  10.238  0.1927  0.0916 -0.3216
    6CHL1   H4B  377   1.469   2.111  10.242  0.7995  1.3642  1.0006
    6CHL1    C5  378   1.578   2.097  10.044  0.1332  0.2200  0.0086
    6CHL1    C6  379   1.467   2.078   9.969  0.1065  0.5945 -0.9333
    6CHL1    H6  380   1.373   2.065  10.025 -0.0837  1.7440 -0.9562
    6CHL1    C7  381   1.456   2.060   9.819  0.1006 -0.0246  0.9876
    6CHL1   H7A  382   1.411   1.964   9.785 -1.0371  0.2114  1.7633
    6CHL1   H7B  383   1.402   2.143   9.767  1.6987 -0.8106 -2.1315
    6CHL1    C8  384   1.602   2.052   9.760 -1.0102  0.0931  0.4459
    6CHL1    H8  385   1.627   1.944   9.774 -0.1763  0.2559  0.2811
    6CHL1   C14  386   1.614   2.086   9.604  0.5184  0.3990 -1.0110
    6CHL1   H14  387   1.604   2.196   9.596  1.1917  0.4793 -0.7379
    6CHL1   C15  388   1.504   2.032   9.519  0.4135 -0.1592 -0.7638
    6CHL1  H15A  389   1.475   1.931   9.555 -2.5812  1.3248  1.4216
    6CHL1  H15B  390   1.413   2.095   9.512 -0.5753 -1.6595 -1.8973
    6CHL1   C16  391   1.562   2.037   9.375 -0.4810  0.8117 -0.1641
    6CHL1  H16A  392   1.551   1.933   9.336 -1.4643 -0.1842  2.5349
    6CHL1  H16B  393   1.502   2.105   9.311 -3.9163  0.1327  2.0416
    6CHL1   C17  394   1.711   2.078   9.393 -0.7675  0.0657 -0.1845
    6CHL1   H17  395   1.721   2.188   9.381  1.4084 -0.2396 -1.5915
    6CHL1   C13  396   1.748   2.049   9.538  0.6256  0.3816  0.1241
    6CHL1   C18  397   1.778   1.903   9.558 -0.1652  0.8420  0.1053
    6CHL1  H18A  398   1.797   1.871   9.663  0.8160  0.7198 -0.1029
    6CHL1  H18B  399   1.702   1.831   9.522  0.4103  0.2085  0.1506
    6CHL1  H18C  400   1.868   1.887   9.496  1.7453  1.8869  2.4575
    6CHL1   C12  401   1.859   2.137   9.600  0.0520  0.8737 -0.7268
    6CHL1  H12A  402   1.960   2.107   9.565 -0.5462 -1.2097 -0.8079
    6CHL1  H12B  403   1.844   2.246   9.584 -0.2942  0.8404 -0.6420
    6CHL1   C11  404   1.855   2.111   9.753 -0.3737 -0.1036 -0.1311
    6CHL1  H11A  405   1.885   2.005   9.773  1.5621  0.1730 -1.3346
    6CHL1  H11B  406   1.937   2.169   9.800 -1.9443  0.6146  1.8747
    6CHL1    C9  407   1.717   2.131   9.828  0.6306 -0.6364 -1.1561
    6CHL1    H9  408   1.696   2.240   9.818 -0.7663 -0.6717  0.7699
    6CHL1   C10  409   1.718   2.110   9.979 -0.1441  0.2139  0.6231
    6CHL1   C19  410   1.787   1.978  10.014 -0.4192  0.2909 -0.8423
    6CHL1  H19A  411   1.891   1.978   9.977 -0.5776 -0.3548 -1.3034
    6CHL1  H19B  412   1.796   1.969  10.125 -2.6980 -4.4574 -0.7671
    6CHL1  H19C  413   1.724   1.894   9.977 -1.5637 -0.4024  2.2877
    6CHL1    C1  414   1.795   2.220  10.045  0.1231 -0.1788 -0.2483
    6CHL1   H1A  415   1.903   2.213  10.020  0.1983 -0.2303  0.0891
    6CHL1   H1B  416   1.770   2.322  10.007  0.1855  0.7227  1.9667
    6CHL1    C2  417   1.782   2.239  10.197  0.5478 -0.3657 -0.7141
    6CHL1   H2A  418   1.833   2.335  10.223 -0.4635 -0.0625  0.1932
    6CHL1   H2B  419   1.838   2.158  10.249 -0.4617 -0.1986  0.6692
    6CHL1   C20  420   1.798   2.025   9.268  0.2647 -0.3095 -0.0822
    6CHL1   H20  421   1.766   1.920   9.253 -0.1771  0.1786 -3.1064
    6CHL1   C21  422   1.947   2.024   9.280 -0.2269 -0.2001 -0.1661
    6CHL1  H21A  423   1.998   1.975   9.195 -0.6520 -0.3191 -0.3535
    6CHL1  H21B  424   1.994   1.964   9.362  0.9867  0.4245 -0.3779
    6CHL1  H21C  425   1.987   2.125   9.303 -0.7497 -0.1277  0.4448
    6CHL1   C22  426   1.760   2.102   9.139  0.6317  0.2590  0.3327
    6CHL1  H22A  427   1.665   2.158   9.152 -0.8728 -1.9835 -0.2676
    6CHL1  H22B  428   1.845   2.169   9.113  3.6639 -3.2718  0.3070
    6CHL1   C23  429   1.731   2.008   9.025 -0.6789  0.0689 -0.3662
    6CHL1  H23A  430   1.826   1.954   9.006 -1.2849 -1.8339  1.6795
    6CHL1  H23B  431   1.653   1.939   9.063 -0.1550  0.8060  2.2804
    6CHL1   C24  432   1.689   2.076   8.893  0.0243  0.3808 -0.1434
    6CHL1  H24A  433   1.590   2.127   8.901 -0.4492 -0.1204 -2.2244
    6CHL1  H24B  434   1.777   2.142   8.878  2.5324 -2.9118 -1.1027
    6CHL1   C25  435   1.682   1.978   8.772  0.3105  1.0182 -0.3332
    6CHL1   H25  436   1.598   1.908   8.792  0.4198  0.9172 -0.2257
    6CHL1   C26  437   1.636   2.067   8.659 -0.3640  0.1381 -0.3038
    6CHL1  H26A  438   1.542   2.106   8.705 -0.3993 -2.2265  1.8728
    6CHL1  H26B  439   1.706   2.151   8.640  0.2571 -0.6046 -1.3979
    6CHL1  H26C  440   1.605   2.003   8.573 -1.1183  0.3943 -0.2304
    6CHL1   C27  441   1.813   1.900   8.750 -0.4309 -0.0354 -0.7513
    6CHL1  H27A  442   1.825   1.842   8.656  0.5290  0.9690 -1.2769
    6CHL1  H27B  443   1.893   1.977   8.747 -1.2314  0.9907  1.6776
    6CHL1  H27C  444   1.823   1.833   8.838 -0.0308  1.6352  0.5185
    7CHL1    C3  445   4.011   3.809  10.330  1.0623  0.0637 -0.1741
    7CHL1    H3  446   4.084   3.893  10.335 -0.5670  1.5268  0.0548
    7CHL1    O3  447   3.962   3.797  10.460  0.4280 -0.0254  0.3372
    7CHL1   H3'  448   3.875   3.837  10.450 -0.3106 -1.3944  1.0836
    7CHL1    C4  449   3.890   3.843  10.242 -0.4526  0.3727  0.1887
    7CHL1   H4A  450   3.816   3.759  10.246  1.6690 -1.5845  0.6944
    7CHL1   H4B  451   3.834   3.935  10.268  0.5990  0.8901  0.6481
    7CHL1    C5  452   3.920   3.857  10.096 -1.1756 -0.5116  0.2905
    7CHL1    C6  453   3.887   3.965  10.022 -0.0242  0.2280 -0.4183
    7CHL1    H6  454   3.826   4.040  10.074  1.0136  0.1540  0.9911
    7CHL1    C7  455   3.922   3.975   9.870  0.5926  0.2139 -0.1619
    7CHL1   H7A  456   3.835   4.015   9.814  1.0946  0.4704 -0.7726
    7CHL1   H7B  457   3.993   4.059   9.859  1.4273 -0.5663 -0.8811
    7CHL1    C8  458   3.967   3.841   9.807 -0.6977  0.1989 -0.2856
    7CHL1    H8  459   3.877   3.777   9.807 -0.6327  0.0770  0.9951
    7CHL1   C14  460   4.020   3.862   9.665  0.2376  0.3226 -0.0929
    7CHL1   H14  461   4.114   3.917   9.685  0.3300  1.0587 -2.3278
    7CHL1   C15  462   3.942   3.948   9.569 -0.3047  0.5788  0.2766
    7CHL1  H15A  463   3.834   3.925   9.581  0.1470 -0.9054  2.0918
    7CHL1  H15B  464   3.960   4.056   9.588 -3.0206  1.0986  0.1877
    7CHL1   C16  465   4.004   3.908   9.435  0.3427  0.1982 -0.8416
    7CHL1  H16A  466   3.920   3.861   9.379  0.2269 -0.3959 -0.1792
    7CHL1  H16B  467   4.049   3.991   9.376  0.4163 -0.9366 -2.4637
    7CHL1   C17  468   4.107   3.792   9.459 -0.5744 -0.5172  0.4091
    7CHL1   H17  469   4.201   3.848   9.481 -2.7090  2.5340  2.5733
    7CHL1   C13  470   4.065   3.736   9.590 -0.0906  0.6478 -0.8683
    7CHL1   C18  471   3.947   3.643   9.572 -0.0711 -0.0896  0.2761
    7CHL1  H18A  472   3.905   3.602   9.667  3.2390 -0.7744  1.5826
    7CHL1  H18B  473   3.867   3.696   9.517 -0.1248  0.4108  0.8278
    7CHL1  H18C  474   3.969   3.552   9.513 -0.3143  0.6141 -0.9196
    7CHL1   C12  475   4.179   3.682   9.677 -0.3555  0.1588 -0.4358
    7CHL1  H12A  476   4.205   3.585   9.629 -2.3459 -0.7405  0.2001
    7CHL1  H12B  477   4.266   3.751   9.671  0.6060 -0.5080  3.2611
    7CHL1   C11  478   4.134   3.652   9.822  0.1958 -0.0898  0.3771
    7CHL1  H11A  479   4.054   3.575   9.818 -0.8976  1.0521 -0.4457
    7CHL1  H11B  480   4.216   3.619   9.889  0.9600  0.6942 -0.1528
    7CHL1    C9  481   4.075   3.778   9.900  0.1063  0.4116  0.4721
    7CHL1    H9  482   4.157   3.851   9.919  0.9048 -0.3778  0.1336
    7CHL1   C10  483   4.005   3.741  10.037 -0.4291 -0.2828  0.1655
    7CHL1   C19  484   3.906   3.622  10.022 -0.1677  0.3148  0.6572
    7CHL1  H19A  485   3.848   3.596  10.113  1.1579 -1.3249  1.0947
    7CHL1  H19B  486   3.830   3.645   9.944 -0.5460  2.5866  1.6136
    7CHL1  H19C  487   3.972   3.535   9.999  3.0351  2.7382 -0.0714
    7CHL1    C1  488   4.117   3.696  10.138 -0.1770  0.2307 -0.5634
    7CHL1   H1A  489   4.174   3.607  10.105  2.4380  1.3432  0.5934
    7CHL1   H1B  490   4.199   3.771  10.148  1.7310 -1.7116 -1.0556
    7CHL1    C2  491   4.081   3.681  10.286  0.0604  0.7685 -0.2415
    7CHL1   H2A  492   4.158   3.651  10.360 -2.3455  0.2217  2.2238
    7CHL1   H2B  493   4.004   3.602  10.297  0.9458 -0.2272 -1.0027
    7CHL1   C20  494   4.126   3.696   9.342  0.0902 -0.5025 -0.8498
    7CHL1   H20  495   4.025   3.655   9.321  0.4734 -2.9252  1.4644
    7CHL1   C21  496   4.220   3.583   9.376 -0.7013  0.0693 -0.5721
    7CHL1  H21A  497   4.182   3.503   9.443  0.4751  0.1994  0.2908
    7CHL1  H21B  498   4.316   3.615   9.422 -0.6576 -0.1740 -0.4920
    7CHL1  H21C  499   4.235   3.519   9.287  1.7333  0.0889 -0.2684
    7CHL1   C22  500   4.167   3.779   9.218  0.2695 -0.4515  0.7121
    7CHL1  H22A  501   4.096   3.863   9.205  2.0095  1.1291  0.8706
    7CHL1  H22B  502   4.275   3.807   9.221  0.3756 -0.2903 -1.8714
    7CHL1   C23  503   4.160   3.694   9.096  0.7092 -0.1316 -0.1985
    7CHL1  H23A  504   4.252   3.633   9.084 -0.4434 -1.6750 -1.7914
    7CHL1  H23B  505   4.082   3.616   9.102 -0.0656  0.5559 -0.9795
    7CHL1   C24  506   4.136   3.784   8.978  0.1607 -1.0121  0.6677
    7CHL1  H24A  507   4.049   3.850   9.002 -1.2242 -1.5531 -2.3326
    7CHL1  H24B  508   4.223   3.850   8.961 -1.6971  2.4872  3.4017
    7CHL1   C25  509   4.110   3.696   8.858  0.8740  0.2293  0.5494
    7CHL1   H25  510   4.045   3.612   8.892  2.1252 -0.0264  2.4425
    7CHL1   C26  511   4.047   3.774   8.737 -0.0630 -0.1113 -0.2339
    7CHL1  H26A  512   4.114   3.860   8.714  1.2571 -1.2086 -0.5972
    7CHL1  H26B  513   4.032   3.703   8.653  0.4153 -0.0746 -0.3499
    7CHL1  H26C  514   3.949   3.821   8.764 -0.0295 -1.0514  1.6903
    7CHL1   C27  515   4.237   3.628   8.806  0.0101 -0.2194 -1.0124
    7CHL1  H27A  516   4.293   3.706   8.750  3.0349 -1.5534 -0.0765
    7CHL1  H27B  517   4.305   3.616   8.893  0.0452  2.1060 -0.6429
    7CHL1  H27C  518   4.221   3.536   8.746  1.5114 -1.1588 -0.0359
    8CHL1    C3  519   4.101   5.861  10.405 -0.0985 -0.6822 -0.1090
    8CHL1    H3  520   4.174   5.944  10.417  0.7565 -1.4244 -0.0194
    8CHL1    O3  521   4.038   5.828  10.527 -0.1859 -0.0898  0.1679
    8CHL1   H3'  522   3.984   5.753  10.500 -1.1608  0.2693  1.0426
    8CHL1    C4  523   3.979   5.908  10.320 -0.2574  0.5836 -0.3143
    8CHL1   H4A  524   3.903   5.827  10.320  0.3132  0.0040 -2.1596
    8CHL1   H4B  525   3.926   5.994  10.366  1.2621  2.2794 -1.5601
    8CHL1    C5  526   4.023   5.930  10.175  0.2599 -0.1874  0.0235
    8CHL1    C6  527   3.991   6.048  10.116 -1.1256  0.7967  0.1137
    8CHL1    H6  528   3.947   6.128  10.177 -1.1611  1.9587 -1.3724
    8CHL1    C7  529   4.024   6.077   9.974  0.1529  0.4769 -0.6374
    8CHL1   H7A  530   3.948   6.141   9.923 -0.7615 -1.1270 -1.3540
    8CHL1   H7B  531   4.109   6.149   9.977 -0.2002  1.0734 -2.8905
    8CHL1    C8  532   4.055   5.949   9.890  0.2475 -0.3582 -0.3349
    8CHL1    H8  533   3.952   5.912   9.872 -0.8490  1.4796  1.6043
    8CHL1   C14  534   4.125   5.995   9.761  0.2816  0.5830  0.1580
    8CHL1   H14  535   4.224   6.038   9.788  0.3826  1.1757 -1.0752
    8CHL1   C15  536   4.053   6.101   9.669  0.6128 -0.7706  0.0891
    8CHL1  H15A  537   3.945   6.079   9.679  0.6805 -2.0195 -1.5449
    8CHL1  H15B  538   4.080   6.203   9.705 -1.0159 -0.5780  0.8468
    8CHL1   C16  539   4.099   6.069   9.527 -0.5642  0.2354  0.5029
    8CHL1  H16A  540   4.013   6.057   9.457  1.7216  2.5486 -3.0875
    8CHL1  H16B  541   4.167   6.148   9.487 -2.2458  2.1852  1.3101
    8CHL1   C17  542   4.194   5.944   9.531  0.5541 -0.0717 -0.7949
    8CHL1   H17  543   4.298   5.979   9.550  0.4595  1.0134 -2.0864
    8CHL1   C13  544   4.160   5.869   9.672 -0.2609  0.6096  0.4463
    8CHL1   C18  545   4.028   5.781   9.652  0.3139  0.2455  0.3346
    8CHL1  H18A  546   4.036   5.695   9.582 -1.6648 -0.7931  1.2997
    8CHL1  H18B  547   3.983   5.737   9.743 -3.8070 -0.5994 -1.8714
    8CHL1  H18C  548   3.950   5.846   9.607  0.3991 -0.7298 -1.2811
    8CHL1   C12  549   4.264   5.782   9.745 -0.5557 -0.2469 -0.4875
    8CHL1  H12A  550   4.285   5.691   9.685 -3.6614 -0.6580 -1.1328
    8CHL1  H12B  551   4.353   5.844   9.767 -1.1138  0.9371 -1.4010
    8CHL1   C11  552   4.204   5.733   9.882  0.3714 -0.8295 -0.2940
    8CHL1  H11A  553   4.124   5.659   9.860 -0.2382 -0.0370 -0.7855
    8CHL1  H11B  554   4.285   5.680   9.937  2.2838  0.0456 -2.1719
    8CHL1    C9  555   4.141   5.852   9.962 -0.3062  0.5212  0.2031
    8CHL1    H9  556   4.225   5.920   9.990  0.4232 -0.0802 -0.4742
    8CHL1   C10  557   4.084   5.813  10.097 -0.3182 -0.0684 -0.2437
    8CHL1   C19  558   3.987   5.698  10.078 -0.0431 -0.2307  0.6676
    8CHL1  H19A  559   4.046   5.607  10.054  1.1943  0.5602  0.6282
    8CHL1  H19B  560   3.924   5.677  10.167 -0.0368  1.6012  1.1395
    8CHL1  H19C  561   3.920   5.722   9.992  0.0181  0.5768  0.8447
    8CHL1    C1  562   4.203   5.767  10.193 -0.1602 -0.2421  1.0556
    8CHL1   H1A  563   4.230   5.666  10.154  1.3394 -1.3513  4.5216
    8CHL1   H1B  564   4.297   5.822  10.173  0.3340 -0.3573  2.8402
    8CHL1    C2  565   4.168   5.742  10.341  0.5163 -0.3301 -1.0933
    8CHL1   H2A  566   4.257   5.714  10.402 -1.6709  0.1642  2.6077
    8CHL1   H2B  567   4.095   5.658  10.342  1.4015 -1.1493  0.6869
    8CHL1   C20  568   4.207   5.852   9.405 -0.1033  0.5241 -0.1111
    8CHL1   H20  569   4.116   5.789   9.399  1.3966 -1.5809 -2.3119
    8CHL1   C21  570   4.334   5.762   9.421 -0.2677  0.5655  0.6015
    8CHL1  H21A  571   4.302   5.678   9.488  2.1181  0.4228  1.6806
    8CHL1  H21B  572   4.427   5.804   9.465  0.7385  0.0714 -0.9765
    8CHL1  H21C  573   4.358   5.704   9.329  0.9190  0.4888  0.9459
    8CHL1   C22  574   4.217   5.947   9.280  0.0112  1.0461  0.4197
    8CHL1  H22A  575   4.122   6.003   9.267 -1.5894 -1.7653 -1.0024
    8CHL1  H22B  576   4.298   6.021   9.294  1.2252 -0.3262  0.9312
    8CHL1   C23  577   4.241   5.873   9.150  0.0390  0.2455  0.5422
    8CHL1  H23A  578   4.346   5.836   9.147  0.3060  0.5173  3.2971
    8CHL1  H23B  579   4.188   5.777   9.142 -1.5937  0.8054  3.2985
    8CHL1   C24  580   4.224   5.961   9.027  0.8246  0.7617 -0.3441
    8CHL1  H24A  581   4.241   5.901   8.936 -0.8850  1.0288 -0.8820
    8CHL1  H24B  582   4.116   5.988   9.036  0.2479 -1.0616 -1.2192
    8CHL1   C25  583   4.309   6.093   9.019 -0.7611  0.4368 -0.3868
    8CHL1   H25  584   4.269   6.161   9.097 -1.2181 -1.0786  0.7471
    8CHL1   C26  585   4.456   6.066   9.053  0.7190  0.1900  0.0511
    8CHL1  H26A  586   4.501   5.993   8.982  0.7186 -0.7497  0.9817
    8CHL1  H26B  587   4.500   6.160   9.016 -1.8779  0.7464 -1.9242
    8CHL1  H26C  588   4.473   6.047   9.161 -0.0729  1.6093  0.4479
    8CHL1   C27  589   4.293   6.155   8.883  0.2206  0.5353 -1.0034
    8CHL1  H27A  590   4.307   6.264   8.900 -2.5457  0.6815  1.2039
    8CHL1  H27B  591   4.366   6.120   8.808  0.2958 -0.6991 -0.3689
    8CHL1  H27C  592   4.189   6.134   8.848  0.5482 -1.8970 -0.6939
    9CHL1    C3  593   0.477   2.034  10.190  0.7111 -0.2440  0.3048
    9CHL1    H3  594   0.380   2.089  10.190  0.3715 -0.8199  0.7245
    9CHL1    O3  595   0.520   2.014  10.322 -1.1553  0.7931 -0.5570
    9CHL1   H3'  596   0.523   2.103  10.358 -1.1945  0.7545 -0.4596
    9CHL1    C4  597   0.456   1.899  10.115  0.0564  0.3324  0.2318
    9CHL1   H4A  598   0.533   1.824  10.141 -0.2988 -0.2550 -0.3729
    9CHL1   H4B  599   0.370   1.846  10.162 -0.4990 -0.7174 -1.8331
    9CHL1    C5  600   0.441   1.908   9.965 -0.3568 -0.7000  0.8192
    9CHL1    C6  601   0.334   1.857   9.903  0.4863  0.1564 -0.3146
    9CHL1    H6  602   0.265   1.798   9.965  0.9140  0.6358  0.6465
    9CHL1    C7  603   0.327   1.841   9.754  0.0752  0.6983  0.2264
    9CHL1   H7A  604   0.290   1.739   9.731  4.2017 -0.8365 -0.5614
    9CHL1   H7B  605   0.261   1.924   9.722 -1.7465 -0.3697  1.0301
    9CHL1    C8  606   0.464   1.867   9.683  0.6811  0.2857  0.4224
    9CHL1    H8  607   0.535   1.782   9.691  0.1299 -0.2035  0.2369
    9CHL1   C14  608   0.437   1.879   9.534 -0.0468  0.0834  0.3406
    9CHL1   H14  609   0.359   1.954   9.512  0.7682  1.2736  1.3695
    9CHL1   C15  610   0.389   1.748   9.464  0.1314  0.1103  0.1388
    9CHL1  H15A  611   0.451   1.663   9.498  0.9461  1.6862  2.8756
    9CHL1  H15B  612   0.284   1.722   9.491  0.8889 -1.6623  1.5273
    9CHL1   C16  613   0.420   1.770   9.314  0.1330  0.0464 -0.2863
    9CHL1  H16A  614   0.477   1.686   9.269 -0.7326 -0.7456  0.0712
    9CHL1  H16B  615   0.328   1.767   9.251  0.2034 -1.2259 -0.3505
    9CHL1   C17  616   0.502   1.905   9.307 -0.3033 -0.0691  0.4156
    9CHL1   H17  617   0.437   1.995   9.300  0.7772  0.8259  1.4251
    9CHL1   C13  618   0.565   1.923   9.451 -0.5827 -0.1633  0.6554
    9CHL1   C18  619   0.685   1.819   9.457  0.2714 -0.0916 -0.5585
    9CHL1  H18A  620   0.767   1.868   9.401 -1.3782  0.8252 -2.2642
    9CHL1  H18B  621   0.717   1.802   9.562 -2.5745  1.6796  0.7261
    9CHL1  H18C  622   0.640   1.723   9.423 -0.6590 -0.4510  1.4768
    9CHL1   C12  623   0.603   2.065   9.504  0.3478  0.0562  0.1513
    9CHL1  H12A  624   0.686   2.117   9.451 -1.4196  1.0570 -1.7673
    9CHL1  H12B  625   0.509   2.107   9.462  0.5662 -2.9534 -4.0230
    9CHL1   C11  626   0.629   2.064   9.650  0.1887 -0.4350  0.8851
    9CHL1  H11A  627   0.723   2.007   9.665  0.5100  0.3130  1.8039
    9CHL1  H11B  628   0.651   2.170   9.674 -2.3089  0.2742  0.3860
    9CHL1    C9  629   0.518   2.000   9.737 -0.1975  0.4253 -0.0376
    9CHL1    H9  630   0.432   2.069   9.725 -0.5187  0.4557  2.0801
    9CHL1   C10  631   0.545   1.987   9.889 -0.3465  0.2044  0.7363
    9CHL1   C19  632   0.680   1.916   9.900  0.3414 -0.9783  0.6732
    9CHL1  H19A  633   0.707   1.904  10.007 -0.9011 -0.0032  1.1206
    9CHL1  H19B  634   0.689   1.818   9.848  2.0472 -0.0490 -0.9351
    9CHL1  H19C  635   0.764   1.976   9.859  0.9533 -2.9496 -1.1971
    9CHL1    C1  636   0.546   2.124   9.963  1.0024 -0.7327 -0.2316
    9CHL1   H1A  637   0.619   2.197   9.923  1.0385  0.9757  2.6792
    9CHL1   H1B  638   0.444   2.166   9.949  1.2203 -0.5906 -1.4937
    9CHL1    C2  639   0.582   2.114  10.113  0.2785  0.5205 -0.5006
    9CHL1   H2A  640   0.595   2.213  10.162  2.5164 -0.8939  2.0560
    9CHL1   H2B  641   0.686   2.076  10.115  0.5573  1.2609 -0.2813
    9CHL1   C20  642   0.604   1.914   9.190 -0.7541  0.1556  0.0695
    9CHL1   H20  643   0.678   1.833   9.209 -0.4528  0.5602  0.6348
    9CHL1   C21  644   0.685   2.043   9.193  0.0691  0.5364  0.2185
    9CHL1  H21A  645   0.778   2.025   9.251  0.3206 -0.3773 -0.4402
    9CHL1  H21B  646   0.619   2.129   9.217 -1.6362 -0.6416 -0.0880
    9CHL1  H21C  647   0.731   2.064   9.093  1.7434  0.9230  1.0355
    9CHL1   C22  648   0.561   1.885   9.045  0.2906 -1.0437 -0.3812
    9CHL1  H22A  649   0.648   1.876   8.977 -0.1883 -3.1137 -0.7844
    9CHL1  H22B  650   0.514   1.785   9.052  0.6395 -1.1093  2.5346
    9CHL1   C23  651   0.448   1.978   8.990 -0.3642 -0.5154 -0.6560
    9CHL1  H23A  652   0.364   1.975   9.063  0.5877  1.6822  0.6153
    9CHL1  H23B  653   0.477   2.085   8.990  0.9918 -0.8711 -0.3818
    9CHL1   C24  654   0.404   1.945   8.848  0.3203 -0.9848  0.3961
    9CHL1  H24A  655   0.372   1.839   8.843  0.1532 -0.8666 -2.3722
    9CHL1  H24B  656   0.312   2.001   8.819 -0.3694 -2.8932 -1.2926
    9CHL1   C25  657   0.508   1.958   8.723  0.2961  0.5003 -0.4921
    9CHL1   H25  658   0.594   1.897   8.757 -0.6828  1.2058  3.7503
    9CHL1   C26  659   0.443   1.915   8.594  0.5464  0.4241 -0.1857
    9CHL1  H26A  660   0.399   2.009   8.554  0.6892  0.1935 -0.8964
    9CHL1  H26B  661   0.516   1.860   8.531 -1.9880 -3.3058 -0.2234
    9CHL1  H26C  662   0.370   1.832   8.604  0.7872  0.4409  2.7165
    9CHL1   C27  663   0.568   2.096   8.718  0.1014  0.5863  0.2838
    9CHL1  H27A  664   0.633   2.128   8.802 -0.1911 -0.1151  0.7814
    9CHL1  H27B  665   0.623   2.096   8.621  1.1704  0.9631  0.8796
    9CHL1  H27C  666   0.490   2.174   8.709 -0.3055  0.4969  2.6051
   10CHL1    C3  667   0.517   0.098  10.211  0.0323  0.2784  0.8665
   10CHL1    H3  668   0.410   0.068  10.221  0.3245 -0.3306  2.4547
   10CHL1    O3  669   0.575   0.071  10.339 -0.0598 -0.1719  0.4139
   10CHL1   H3'  670   0.671   0.074  10.330 -0.0013  1.9197  1.2373
   10CHL1    C4  671   0.581  -0.005  10.117 -0.4267  0.0082 -0.2067
   10CHL1   H4A  672   0.691   0.005  10.124 -0.1124 -0.7535 -2.8666
   10CHL1   H4B  673   0.553  -0.106  10.154  0.0090  0.1399  0.5049
   10CHL1    C5  674   0.534   0.027   9.975 -0.8936 -0.1704  0.1442
   10CHL1    C6  675   0.482  -0.061   9.895  0.0127  0.3683  0.0669
   10CHL1    H6  676   0.472  -0.168   9.920 -1.0715  0.2137 -0.9170
   10CHL1    C7  677   0.434  -0.042   9.750 -0.3066 -0.7559 -0.9931
   10CHL1   H7A  678   0.478  -0.114   9.677  3.1348 -0.4751  0.6267
   10CHL1   H7B  679   0.323  -0.053   9.749 -0.5204  1.0512 -2.3393
   10CHL1    C8  680   0.489   0.091   9.686 -0.8386  0.5594 -0.1716
   10CHL1    H8  681   0.592   0.073   9.651 -1.3219 -0.4427 -1.1170
   10CHL1   C14  682   0.405   0.119   9.561  0.0791 -0.0837 -0.2328
   10CHL1   H14  683   0.305   0.144   9.600  0.3170 -0.7022  0.8033
   10CHL1   C15  684   0.388   0.011   9.461 -0.2240 -0.2606 -0.2556
   10CHL1  H15A  685   0.483  -0.045   9.450  0.6011  1.2207 -0.9609
   10CHL1  H15B  686   0.306  -0.055   9.497  0.7043 -1.4967 -0.3597
   10CHL1   C16  687   0.340   0.085   9.339  0.1976 -0.2261 -0.4566
   10CHL1  H16A  688   0.399   0.052   9.250 -0.4235 -2.1910 -0.1928
   10CHL1  H16B  689   0.236   0.058   9.310  0.6606 -0.5184 -1.9405
   10CHL1   C17  690   0.358   0.237   9.362 -0.4320 -0.5994 -0.4906
   10CHL1   H17  691   0.267   0.274   9.414  0.6422 -1.2967  2.0842
   10CHL1   C13  692   0.452   0.245   9.490 -0.1511  0.2550  0.6501
   10CHL1   C18  693   0.600   0.239   9.444  0.1319  0.5388 -0.5018
   10CHL1  H18A  694   0.630   0.329   9.386  0.8770  0.8709  0.3793
   10CHL1  H18B  695   0.667   0.233   9.533  0.2672  0.4165 -0.6111
   10CHL1  H18C  696   0.617   0.154   9.375  0.1995 -0.5554  0.8103
   10CHL1   C12  697   0.435   0.358   9.596  0.1806 -0.2625  0.5545
   10CHL1  H12A  698   0.483   0.446   9.546 -1.2437 -0.0040 -0.4334
   10CHL1  H12B  699   0.327   0.375   9.614 -0.1776 -1.1782 -0.5634
   10CHL1   C11  700   0.517   0.342   9.722  1.1150  0.0480  0.1746
   10CHL1  H11A  701   0.625   0.331   9.700  1.1161 -1.1603  0.7345
   10CHL1  H11B  702   0.497   0.424   9.794 -1.6632 -1.4972  1.3058
   10CHL1    C9  703   0.482   0.203   9.787  0.1961 -0.2053 -0.3034
   10CHL1    H9  704   0.374   0.216   9.805  0.5341  2.3679  0.1792
   10CHL1   C10  705   0.548   0.178   9.926  0.7388  0.3422  0.7409
   10CHL1   C19  706   0.700   0.209   9.915 -0.5979 -0.4937  0.0100
   10CHL1  H19A  707   0.717   0.315   9.888 -0.1979 -0.8648 -1.2694
   10CHL1  H19B  708   0.744   0.188  10.015  0.9294 -0.3121 -0.6105
   10CHL1  H19C  709   0.748   0.140   9.843  0.9109 -0.2273  0.7195
   10CHL1    C1  710   0.481   0.269  10.029  0.3105 -0.2214  0.1583
   10CHL1   H1A  711   0.499   0.374   9.998 -0.9759 -0.4201 -1.3926
   10CHL1   H1B  712   0.372   0.255  10.047  0.8419 -1.1689  3.1686
   10CHL1    C2  713   0.540   0.241  10.168 -0.3478  0.6247 -0.7976
   10CHL1   H2A  714   0.487   0.296  10.249 -2.2395 -0.1215 -1.4742
   10CHL1   H2B  715   0.649   0.262  10.172 -0.2148 -0.2440  0.9656
   10CHL1   C20  716   0.379   0.325   9.238 -0.0524 -0.1896 -0.2071
   10CHL1   H20  717   0.463   0.278   9.182 -1.1621 -0.0728 -2.0458
   10CHL1   C21  718   0.402   0.472   9.283 -0.0820 -0.1203 -0.1945
   10CHL1  H21A  719   0.502   0.480   9.331  0.0886 -1.7618 -0.2241
   10CHL1  H21B  720   0.322   0.498   9.356  0.4033 -1.1213  0.7318
   10CHL1  H21C  721   0.406   0.540   9.196  2.4540 -1.9316 -1.6409
   10CHL1   C22  722   0.255   0.309   9.149 -0.7564  0.4091  0.5868
   10CHL1  H22A  723   0.229   0.201   9.144 -2.3880  0.8038  0.1251
   10CHL1  H22B  724   0.171   0.368   9.190 -0.9803  0.6770 -0.2260
   10CHL1   C23  725   0.265   0.349   8.996  0.1867 -1.2398  0.1403
   10CHL1  H23A  726   0.160   0.367   8.964 -0.1970  0.2261  2.0385
   10CHL1  H23B  727   0.316   0.447   8.985 -0.6335 -0.8589 -0.4053
   10CHL1   C24  728   0.338   0.249   8.909 -0.3785 -0.0284  0.0947
   10CHL1  H24A  729   0.436   0.217   8.951 -0.5766 -0.6529  0.0883
   10CHL1  H24B  730   0.274   0.159   8.921 -0.3084  0.0440  1.0648
   10CHL1   C25  731   0.355   0.287   8.761  0.1261  0.8494  0.0932
   10CHL1   H25  732   0.262   0.317   8.709  0.0987  0.4469 -0.1014
   10CHL1   C26  733   0.450   0.398   8.745 -0.6602 -0.2194  0.3733
   10CHL1  H26A  734   0.471   0.415   8.637 -3.2032  0.9574  0.0021
   10CHL1  H26B  735   0.397   0.490   8.776 -2.7246 -1.2188  0.0034
   10CHL1  H26C  736   0.541   0.372   8.803  0.9959 -0.9973 -2.3392
   10CHL1   C27  737   0.408   0.154   8.686  0.1849  0.2021 -0.1602
   10CHL1  H27A  738   0.509   0.124   8.724 -0.6259 -1.6885  0.6143
   10CHL1  H27B  739   0.328   0.079   8.699  0.2582  0.1994  0.2977
   10CHL1  H27C  740   0.417   0.192   8.582 -0.6217 -0.3235 -0.4283
   11CHL1    C3  741   2.874   3.675  10.083 -0.2695 -0.1554 -0.4213
   11CHL1    H3  742   2.957   3.746  10.066  2.0674 -2.4036  0.7953
   11CHL1    O3  743   2.855   3.661  10.225  0.2875 -0.1709 -0.1893
   11CHL1   H3'  744   2.763   3.675  10.249  0.5147 -1.3833  1.6292
   11CHL1    C4  745   2.745   3.720  10.022  0.4700  0.1379  0.5213
   11CHL1   H4A  746   2.662   3.646  10.029  1.0666 -0.6119 -0.1104
   11CHL1   H4B  747   2.713   3.817  10.065 -0.5132 -0.4301  1.1040
   11CHL1    C5  748   2.768   3.736   9.867 -0.6860  0.3090  0.3555
   11CHL1    C6  749   2.755   3.858   9.811 -0.7933  0.1522  0.2291
   11CHL1    H6  750   2.731   3.942   9.879  1.9182  1.1638  0.0563
   11CHL1    C7  751   2.769   3.882   9.665 -0.3405  0.0744 -0.2316
   11CHL1   H7A  752   2.703   3.966   9.632 -0.0184 -0.4032 -2.2130
   11CHL1   H7B  753   2.874   3.914   9.653 -0.2439 -0.6898 -1.5127
   11CHL1    C8  754   2.763   3.757   9.579  0.0259 -0.3716 -0.1859
   11CHL1    H8  755   2.658   3.723   9.566 -0.1941 -0.2558  1.1000
   11CHL1   C14  756   2.820   3.784   9.439 -0.0667  0.5127  0.2905
   11CHL1   H14  757   2.930   3.799   9.443  0.0198 -0.2653  0.9019
   11CHL1   C15  758   2.756   3.899   9.363 -0.7337 -0.7873  0.0053
   11CHL1  H15A  759   2.645   3.909   9.366 -0.6839  2.0840 -2.4572
   11CHL1  H15B  760   2.781   3.999   9.405 -0.2646 -0.8068 -0.2195
   11CHL1   C16  761   2.797   3.876   9.222  0.1650  0.0756  0.1487
   11CHL1  H16A  762   2.703   3.873   9.163 -0.2775 -0.9949  0.8900
   11CHL1  H16B  763   2.866   3.950   9.174  0.5204 -0.0203  0.5053
   11CHL1   C17  764   2.868   3.735   9.219 -0.4636 -0.6140  0.7336
   11CHL1   H17  765   2.974   3.760   9.237 -0.1199  0.5294 -2.3135
   11CHL1   C13  766   2.813   3.665   9.341  0.1470  0.1607 -0.2748
   11CHL1   C18  767   2.663   3.616   9.313 -0.2227  0.4761  0.8255
   11CHL1  H18A  768   2.673   3.536   9.237  0.9275  2.3442 -1.1125
   11CHL1  H18B  769   2.626   3.572   9.408  2.2008  0.1851  1.7034
   11CHL1  H18C  770   2.594   3.695   9.276  2.1302  1.3394 -2.2051
   11CHL1   C12  771   2.901   3.556   9.405  0.3524  0.2358 -0.1447
   11CHL1  H12A  772   2.892   3.461   9.347 -2.2925  0.3265 -0.0091
   11CHL1  H12B  773   3.007   3.588   9.416  0.9960 -1.6936 -0.3750
   11CHL1   C11  774   2.850   3.525   9.550 -0.3468  0.0300 -0.1013
   11CHL1  H11A  775   2.746   3.488   9.539 -0.4760 -0.2282  1.6144
   11CHL1  H11B  776   2.913   3.442   9.589  1.5159  1.8931  1.0878
   11CHL1    C9  777   2.839   3.647   9.646  0.0813  0.2382 -0.3731
   11CHL1    H9  778   2.940   3.693   9.657  0.6343 -1.0633  0.1781
   11CHL1   C10  779   2.804   3.606   9.792 -0.6289 -0.1545 -0.7622
   11CHL1   C19  780   2.688   3.501   9.785 -0.3709 -0.0678  0.5397
   11CHL1  H19A  781   2.604   3.535   9.720  0.8460 -1.8791 -2.1246
   11CHL1  H19B  782   2.724   3.408   9.737  2.4662 -0.3111  2.8713
   11CHL1  H19C  783   2.650   3.473   9.886 -0.1442  0.4151  0.7626
   11CHL1    C1  784   2.933   3.550   9.860 -0.7578 -0.1504 -0.3683
   11CHL1   H1A  785   2.962   3.452   9.816 -1.6332 -0.0008 -1.3291
   11CHL1   H1B  786   3.009   3.628   9.840  1.9174 -2.2043  1.1784
   11CHL1    C2  787   2.919   3.543  10.016  0.4150  0.0438 -0.4438
   11CHL1   H2A  788   3.021   3.519  10.055  0.6769  1.6625 -0.0841
   11CHL1   H2B  789   2.857   3.455  10.043 -0.6087  1.0580  0.6390
   11CHL1   C20  790   2.854   3.672   9.080  0.5251  0.1638 -0.2676
   11CHL1   H20  791   2.750   3.634   9.065  1.1111 -1.2454 -0.9574
   11CHL1   C21  792   2.946   3.548   9.080 -0.4716 -0.3734  0.1249
   11CHL1  H21A  793   2.949   3.500   8.979  1.1229 -0.7241  0.3002
   11CHL1  H21B  794   2.923   3.468   9.154 -0.4870 -1.4938 -1.0435
   11CHL1  H21C  795   3.049   3.583   9.104 -0.4552 -0.9318  0.9277
   11CHL1   C22  796   2.891   3.758   8.961 -0.2604 -0.3241  0.4325
   11CHL1  H22A  797   2.830   3.851   8.963  1.6523  0.9757  1.0931
   11CHL1  H22B  798   2.998   3.786   8.966  0.1647 -1.7852 -0.0168
   11CHL1   C23  799   2.882   3.696   8.817 -0.2481  0.1265  0.1892
   11CHL1  H23A  800   2.963   3.622   8.799  0.6989  1.3491 -0.7344
   11CHL1  H23B  801   2.785   3.644   8.804  0.1932 -1.2958  2.0929
   11CHL1   C24  802   2.887   3.808   8.702  0.1907  0.3400 -0.7960
   11CHL1  H24A  803   2.789   3.861   8.708  0.2889  0.7328 -2.2144
   11CHL1  H24B  804   2.963   3.885   8.726 -0.1393  0.4275 -0.0001
   11CHL1   C25  805   2.894   3.741   8.559 -0.0095 -0.4853  0.4893
   11CHL1   H25  806   2.860   3.816   8.485 -0.5390 -1.1644  0.0314
   11CHL1   C26  807   3.041   3.689   8.531 -0.1571  0.3378 -0.1616
   11CHL1  H26A  808   3.093   3.780   8.569  0.5908  1.1278 -2.8431
   11CHL1  H26B  809   3.063   3.597   8.589  3.4118 -0.6236 -2.6765
   11CHL1  H26C  810   3.057   3.667   8.423 -2.4339  0.7166 -0.6213
   11CHL1   C27  811   2.789   3.633   8.528 -0.4756  0.0002  0.4288
   11CHL1  H27A  812   2.813   3.540   8.585 -2.5289 -0.3524  0.7887
   11CHL1  H27B  813   2.688   3.671   8.553  0.5033  2.8209  0.5422
   11CHL1  H27C  814   2.793   3.607   8.420  0.5183 -0.1278  0.4867
   12CHL1    C3  815   5.355   5.731  10.395  0.2402  0.0503 -0.0378
   12CHL1    H3  816   5.457   5.700  10.364  1.3780  1.9495  1.6199
   12CHL1    O3  817   5.355   5.763  10.533 -0.2880 -0.9950 -0.1006
   12CHL1   H3'  818   5.374   5.679  10.575  0.7461 -0.1581  1.1775
   12CHL1    C4  819   5.315   5.847  10.304 -0.9224 -0.3568  0.2900
   12CHL1   H4A  820   5.211   5.877  10.331 -0.4958  1.1325  0.3820
   12CHL1   H4B  821   5.373   5.935  10.338  0.0743 -1.1582  0.7322
   12CHL1    C5  822   5.330   5.810  10.156 -0.2914 -0.0203 -0.2745
   12CHL1    C6  823   5.416   5.879  10.082  0.0109  0.3877  0.0629
   12CHL1    H6  824   5.467   5.960  10.136 -0.2340 -0.9490  2.4025
   12CHL1    C7  825   5.441   5.855   9.937  0.1561  0.3793 -0.5005
   12CHL1   H7A  826   5.477   5.947   9.886  0.9134  0.3631 -0.0007
   12CHL1   H7B  827   5.528   5.788   9.920 -0.7576 -0.2908 -2.9806
   12CHL1    C8  828   5.309   5.791   9.871  0.1914  0.0166 -0.1064
   12CHL1    H8  829   5.232   5.871   9.869 -2.0017 -1.9714 -2.1837
   12CHL1   C14  830   5.333   5.737   9.730  0.3517 -0.1162  0.1282
   12CHL1   H14  831   5.389   5.642   9.747 -1.3538 -0.9635  1.2664
   12CHL1   C15  832   5.403   5.829   9.630 -0.1687  0.5703  0.3275
   12CHL1  H15A  833   5.364   5.932   9.643 -0.5192  0.4870 -0.0309
   12CHL1  H15B  834   5.513   5.823   9.643 -0.0959 -2.4538 -0.7481
   12CHL1   C16  835   5.358   5.774   9.488 -0.5098  0.0799  0.2965
   12CHL1  H16A  836   5.309   5.860   9.438  0.9118  1.0442  0.4946
   12CHL1  H16B  837   5.450   5.752   9.429 -1.4146  1.5924 -1.7950
   12CHL1   C17  838   5.260   5.652   9.511 -0.3917 -0.5256 -0.8405
   12CHL1   H17  839   5.329   5.565   9.521  0.6120  0.3489  0.1739
   12CHL1   C13  840   5.210   5.682   9.654 -0.0152 -0.3066 -0.1062
   12CHL1   C18  841   5.108   5.791   9.644 -0.3011  0.0892  1.1905
   12CHL1  H18A  842   5.154   5.881   9.598  1.6567 -0.9330  1.0751
   12CHL1  H18B  843   5.023   5.753   9.582  0.7145 -1.0137  0.4337
   12CHL1  H18C  844   5.056   5.826   9.736 -0.1456  1.0936  0.9086
   12CHL1   C12  845   5.151   5.572   9.740 -0.2735  0.3158 -0.4689
   12CHL1  H12A  846   5.056   5.527   9.704  0.4159  0.1961 -2.2403
   12CHL1  H12B  847   5.232   5.496   9.731  0.9840  1.5477  0.0541
   12CHL1   C11  848   5.126   5.608   9.885  0.5858  0.0435  0.3582
   12CHL1  H11A  849   5.041   5.679   9.880  0.5466 -0.0501 -0.3684
   12CHL1  H11B  850   5.090   5.526   9.952  1.1006  0.6268  1.3781
   12CHL1    C9  851   5.248   5.671   9.951  0.2121  0.0718 -0.3593
   12CHL1    H9  852   5.327   5.593   9.949  0.3165  0.1820 -1.4990
   12CHL1   C10  853   5.231   5.702  10.107 -0.2864  0.0528 -0.4780
   12CHL1   C19  854   5.085   5.750  10.130  0.5584  0.6412  0.0652
   12CHL1  H19A  855   5.015   5.672  10.093 -0.4804  1.1794  0.8300
   12CHL1  H19B  856   5.062   5.772  10.236 -1.3268  0.7135 -0.3343
   12CHL1  H19C  857   5.076   5.844  10.072  0.3390  1.5686  1.5505
   12CHL1    C1  858   5.261   5.583  10.200 -0.1110  0.0478  0.4354
   12CHL1   H1A  859   5.182   5.507  10.186 -1.8254  1.4127  2.1013
   12CHL1   H1B  860   5.359   5.541  10.169  0.3858  0.5370  1.3038
   12CHL1    C2  861   5.258   5.610  10.358 -0.1415  0.2484  0.6029
   12CHL1   H2A  862   5.305   5.522  10.407 -0.8991 -0.0842  0.7389
   12CHL1   H2B  863   5.152   5.618  10.390 -0.4476 -0.3147 -0.2257
   12CHL1   C20  864   5.165   5.627   9.385 -0.0886 -0.0255 -0.6254
   12CHL1   H20  865   5.092   5.711   9.385 -1.0510 -0.8256  0.4504
   12CHL1   C21  866   5.080   5.498   9.417  0.3420  0.1380 -0.2340
   12CHL1  H21A  867   4.997   5.484   9.345 -2.2549  1.6875  2.2386
   12CHL1  H21B  868   5.023   5.501   9.512 -3.0102  0.6607 -2.1179
   12CHL1  H21C  869   5.148   5.411   9.430  0.1164  0.0692  0.5227
   12CHL1   C22  870   5.239   5.607   9.250  0.5235 -0.4496  0.2290
   12CHL1  H22A  871   5.312   5.684   9.216 -0.7966  0.5161 -0.5211
   12CHL1  H22B  872   5.288   5.508   9.252  1.4937  0.0109 -0.0026
   12CHL1   C23  873   5.141   5.606   9.134  0.2292  0.4424  0.3418
   12CHL1  H23A  874   5.060   5.533   9.153 -2.2503  3.3257  1.5596
   12CHL1  H23B  875   5.086   5.702   9.127 -2.5629 -1.0699  0.1086
   12CHL1   C24  876   5.228   5.569   9.012  0.6807  0.1642 -0.4594
   12CHL1  H24A  877   5.276   5.474   9.041  2.0596  1.0973  0.4587
   12CHL1  H24B  878   5.147   5.557   8.937 -0.9194  0.9047  1.0664
   12CHL1   C25  879   5.317   5.688   8.957 -0.7358 -0.4049 -0.4027
   12CHL1   H25  880   5.377   5.730   9.041  0.0042 -1.0930 -0.5780
   12CHL1   C26  881   5.424   5.659   8.850 -1.0517 -0.2968 -0.6712
   12CHL1  H26A  882   5.507   5.733   8.850  0.3019 -1.7572 -0.4666
   12CHL1  H26B  883   5.479   5.563   8.864 -1.6010 -0.5299 -0.0314
   12CHL1  H26C  884   5.378   5.668   8.750  0.5650 -2.8091 -1.7540
   12CHL1   C27  885   5.232   5.806   8.899  0.4919 -0.4684 -0.1785
   12CHL1  H27A  886   5.173   5.843   8.985  1.3808 -1.7801  1.0417
   12CHL1  H27B  887   5.309   5.882   8.871  1.0628 -0.4556  1.3395
   12CHL1  H27C  888   5.168   5.780   8.812  1.0301 -0.4011 -0.5984
   13CHL1    C3  889   4.842   1.638   9.919 -0.1941  0.4864  0.0261
   13CHL1    H3  890   4.949   1.607   9.923  0.3231  2.2494  0.6664
   13CHL1    O3  891   4.810   1.629  10.056 -0.2748  0.0092 -0.3189
   13CHL1   H3'  892   4.812   1.536  10.080  0.5214  0.5927  2.1282
   13CHL1    C4  893   4.830   1.785   9.876  0.2866  0.3286 -0.1200
   13CHL1   H4A  894   4.724   1.813   9.892 -0.1509 -1.4318  0.1768
   13CHL1   H4B  895   4.896   1.844   9.944 -0.5284 -0.2381  1.1915
   13CHL1    C5  896   4.857   1.799   9.724  1.0254 -0.7581 -0.1614
   13CHL1    C6  897   4.944   1.887   9.683 -0.0381 -0.6704 -0.0899
   13CHL1    H6  898   4.981   1.955   9.762 -0.2935  0.4177 -0.8775
   13CHL1    C7  899   4.972   1.929   9.543 -0.7915  0.1905 -0.0349
   13CHL1   H7A  900   4.965   2.039   9.533 -0.8537  0.1917  0.0172
   13CHL1   H7B  901   5.078   1.899   9.532 -1.3842 -1.9278 -0.6088
   13CHL1    C8  902   4.883   1.855   9.433 -0.4645 -0.5624 -0.1843
   13CHL1    H8  903   4.784   1.904   9.443  0.3332  0.8653  1.1164
   13CHL1   C14  904   4.950   1.846   9.299  0.1998 -0.2798 -0.1441
   13CHL1   H14  905   5.043   1.788   9.319  0.8286  0.9903  0.7670
   13CHL1   C15  906   4.997   1.977   9.227  0.1576 -0.5729  0.4024
   13CHL1  H15A  907   4.917   2.053   9.241  1.2846  0.9676 -1.1633
   13CHL1  H15B  908   5.094   2.017   9.266  0.8920 -1.0930 -0.8357
   13CHL1   C16  909   5.009   1.938   9.076 -0.9302  0.0701 -0.1235
   13CHL1  H16A  910   4.951   2.012   9.017 -0.8019 -0.9382 -1.5630
   13CHL1  H16B  911   5.115   1.944   9.043  0.3836 -1.8354  3.2240
   13CHL1   C17  912   4.958   1.794   9.069  0.0745 -0.5837 -0.6946
   13CHL1   H17  913   5.052   1.739   9.091  1.0924  0.0624 -3.0463
   13CHL1   C13  914   4.869   1.765   9.190 -0.0146 -0.2356 -0.0662
   13CHL1   C18  915   4.731   1.830   9.163  0.0224 -0.9050  0.1582
   13CHL1  H18A  916   4.675   1.832   9.259  0.6566 -1.2417  0.5397
   13CHL1  H18B  917   4.732   1.937   9.131  0.4504 -1.8396 -3.3579
   13CHL1  H18C  918   4.658   1.789   9.091 -0.9131  2.3821 -0.9549
   13CHL1   C12  919   4.846   1.623   9.243 -0.5833 -0.1381  0.7487
   13CHL1  H12A  920   4.783   1.572   9.167  0.4143  0.4987 -0.5462
   13CHL1  H12B  921   4.949   1.585   9.256 -0.1741  0.8160  0.3687
   13CHL1   C11  922   4.781   1.628   9.376  0.4167  0.4358 -0.8002
   13CHL1  H11A  923   4.675   1.662   9.382  0.2837 -0.2697  2.0181
   13CHL1  H11B  924   4.776   1.524   9.416 -2.7332  0.7965  0.0387
   13CHL1    C9  925   4.853   1.711   9.487 -0.5522 -1.2631 -0.4854
   13CHL1    H9  926   4.956   1.674   9.505  0.3864  1.8114  1.2002
   13CHL1   C10  927   4.788   1.702   9.630  0.7931  0.1044  0.0671
   13CHL1   C19  928   4.634   1.735   9.628 -0.2848  1.1443  0.0439
   13CHL1  H19A  929   4.579   1.654   9.576  0.5057  0.3555  0.3979
   13CHL1  H19B  930   4.587   1.756   9.726 -0.2383  1.8913 -0.0877
   13CHL1  H19C  931   4.621   1.825   9.564 -0.3000  1.7823  0.9212
   13CHL1    C1  932   4.806   1.556   9.685 -0.8657  0.2607  0.1413
   13CHL1   H1A  933   4.745   1.486   9.624 -2.7114  1.7615  0.2038
   13CHL1   H1B  934   4.910   1.515   9.679 -0.8897  0.2867 -0.4823
   13CHL1    C2  935   4.762   1.538   9.835  0.3821 -0.6725  0.5833
   13CHL1   H2A  936   4.768   1.431   9.864 -0.7497 -0.8541  0.2341
   13CHL1   H2B  937   4.655   1.569   9.836  0.4328 -0.1971 -1.5799
   13CHL1   C20  938   4.909   1.748   8.924 -0.1673  0.1271 -0.0737
   13CHL1   H20  939   4.832   1.670   8.944  0.6783 -0.7889 -0.3298
   13CHL1   C21  940   5.033   1.676   8.862 -0.1786 -0.8364 -0.3340
   13CHL1  H21A  941   4.996   1.630   8.768  0.4089  2.8302 -2.5871
   13CHL1  H21B  942   5.090   1.602   8.922  1.4381 -1.0384 -2.0251
   13CHL1  H21C  943   5.102   1.751   8.818 -1.0930 -0.1227 -0.5990
   13CHL1   C22  944   4.846   1.853   8.831  0.3033 -0.1638 -0.0861
   13CHL1  H22A  945   4.765   1.899   8.891 -0.0894 -0.2848 -0.5166
   13CHL1  H22B  946   4.920   1.928   8.796  1.0942 -0.9232 -0.0607
   13CHL1   C23  947   4.780   1.793   8.706 -0.5422  0.1832 -0.7103
   13CHL1  H23A  948   4.859   1.742   8.646  0.6753  0.9770  0.1587
   13CHL1  H23B  949   4.704   1.718   8.738  1.6702 -1.9601 -0.0879
   13CHL1   C24  950   4.720   1.888   8.604  0.1786 -0.7409 -0.2511
   13CHL1  H24A  951   4.782   1.977   8.584  1.6108 -1.7424 -0.4346
   13CHL1  H24B  952   4.720   1.831   8.509 -1.3109  0.9435 -1.3247
   13CHL1   C25  953   4.582   1.940   8.637 -0.0925  0.8076 -0.7889
   13CHL1   H25  954   4.600   1.990   8.734  0.7830  0.2916 -0.6850
   13CHL1   C26  955   4.545   2.048   8.535  0.7560 -0.3403 -0.1524
   13CHL1  H26A  956   4.444   2.093   8.549  0.3054 -1.2530 -0.4017
   13CHL1  H26B  957   4.623   2.127   8.533  0.8055 -0.3602  0.7146
   13CHL1  H26C  958   4.542   2.006   8.432 -0.3515 -2.4802  0.6889
   13CHL1   C27  959   4.470   1.829   8.657 -0.1831 -0.2352 -0.1169
   13CHL1  H27A  960   4.367   1.872   8.654 -0.1581 -0.1459 -3.4319
   13CHL1  H27B  961   4.481   1.750   8.579  2.6034  1.3246 -1.4617
   13CHL1  H27C  962   4.485   1.792   8.760  0.4497  1.8554  0.5762
   14CHL1    C3  963   3.979   3.200  10.294  0.4795 -0.0412  0.0529
   14CHL1    H3  964   4.065   3.131  10.307  0.0371 -0.1608  3.0789
   14CHL1    O3  965   3.946   3.256  10.421  0.1105  0.3457  0.3760
   14CHL1   H3'  966   3.897   3.337  10.401  2.1210  1.0974 -2.0094
   14CHL1    C4  967   4.026   3.310  10.204  0.1981  0.0692  0.7760
   14CHL1   H4A  968   3.935   3.375  10.197  1.7527  2.4905  1.5888
   14CHL1   H4B  969   4.108   3.374  10.244  1.5915 -0.6683 -0.8220
   14CHL1    C5  970   4.052   3.269  10.062  0.0930  0.2489 -0.2698
   14CHL1    C6  971   4.169   3.291   9.999  0.2995  0.5405  0.9216
   14CHL1    H6  972   4.250   3.336  10.058 -0.1055 -0.6631  2.4614
   14CHL1    C7  973   4.192   3.258   9.858  1.2126  0.1107 -0.3310
   14CHL1   H7A  974   4.242   3.342   9.805  0.1933 -0.1031 -1.6687
   14CHL1   H7B  975   4.260   3.169   9.861 -0.1785 -1.0366  3.3382
   14CHL1    C8  976   4.066   3.209   9.784  0.0658  0.2776  0.2524
   14CHL1    H8  977   4.010   3.301   9.759  1.1250  0.3968 -1.8328
   14CHL1   C14  978   4.099   3.133   9.657 -0.0878  0.0579  0.0222
   14CHL1   H14  979   4.165   3.051   9.692  1.8264  1.6856  0.4918
   14CHL1   C15  980   4.191   3.201   9.551  0.4054 -0.1927  0.2155
   14CHL1  H15A  981   4.152   3.296   9.509  1.6874  0.3019  0.1316
   14CHL1  H15B  982   4.291   3.211   9.598 -0.1681  0.6347  1.3102
   14CHL1   C16  983   4.201   3.098   9.433 -0.0847  0.2618  0.3392
   14CHL1  H16A  984   4.193   3.151   9.335 -2.8518  0.0059  0.3494
   14CHL1  H16B  985   4.288   3.029   9.434 -0.3885 -0.1276  1.1641
   14CHL1   C17  986   4.067   3.012   9.453 -0.6042  0.3367 -0.2976
   14CHL1   H17  987   4.099   2.914   9.496  2.3670  0.5298 -1.8028
   14CHL1   C13  988   3.985   3.082   9.568  0.1491 -0.2431  0.6002
   14CHL1   C18  989   3.904   3.192   9.504 -0.0982 -0.1847  0.1682
   14CHL1  H18A  990   3.967   3.252   9.436 -1.2401  0.7711 -0.0778
   14CHL1  H18B  991   3.814   3.150   9.453  0.8356 -0.7273 -1.0989
   14CHL1  H18C  992   3.858   3.257   9.581 -1.5928 -1.5075  0.4528
   14CHL1   C12  993   3.891   2.997   9.660  0.1753 -0.2195  0.4590
   14CHL1  H12A  994   3.800   2.974   9.601  0.4134 -0.9546  0.3713
   14CHL1  H12B  995   3.942   2.908   9.703 -1.4726 -1.6774 -0.4679
   14CHL1   C11  996   3.840   3.073   9.786 -0.3389 -0.0982 -0.5547
   14CHL1  H11A  997   3.777   3.149   9.735 -0.7415 -0.9446 -1.3519
   14CHL1  H11B  998   3.779   2.999   9.843 -0.0381 -2.2264 -2.8204
   14CHL1    C9  999   3.962   3.125   9.865 -0.0338  0.0196 -1.0994
   14CHL1    H9 1000   4.023   3.035   9.885 -0.2002 -0.4289 -2.5513
   14CHL1   C10 1001   3.925   3.194  10.003  0.5074 -0.5430  0.9863
   14CHL1   C19 1002   3.799   3.280   9.977  0.2627 -0.2488  0.4728
   14CHL1  H19A 1003   3.815   3.344   9.888 -1.1529 -0.6048 -0.0577
   14CHL1  H19B 1004   3.709   3.218   9.956 -0.1722  0.8719 -1.1598
   14CHL1  H19C 1005   3.777   3.337  10.070  0.6063  0.8877 -0.1231
   14CHL1    C1 1006   3.888   3.079  10.103 -0.4233 -0.0707 -0.1927
   14CHL1   H1A 1007   3.803   3.027  10.055  1.4921 -1.7039 -2.0494
   14CHL1   H1B 1008   3.977   3.012  10.107 -0.4277 -0.0748 -0.1485
   14CHL1    C2 1009   3.854   3.127  10.240 -0.0426 -0.3905  0.7897
   14CHL1   H2A 1010   3.833   3.044  10.310 -1.6529 -0.1158  0.6631
   14CHL1   H2B 1011   3.762   3.189  10.233 -0.0883 -0.4644  0.7333
   14CHL1   C20 1012   3.995   2.981   9.324  0.5346  0.4822  0.2184
   14CHL1   H20 1013   3.961   3.069   9.264 -0.0803  0.2563  0.2267
   14CHL1   C21 1014   3.862   2.901   9.348  0.7417 -0.4635  0.0441
   14CHL1  H21A 1015   3.783   2.957   9.404 -0.4430 -1.1888 -0.8614
   14CHL1  H21B 1016   3.887   2.812   9.409  1.1758  0.8180  1.8447
   14CHL1  H21C 1017   3.810   2.864   9.257  3.8056 -0.3052 -1.9048
   14CHL1   C22 1018   4.089   2.907   9.233  0.2132  0.0997  0.2103
   14CHL1  H22A 1019   4.177   2.973   9.213  0.2366  0.1381  0.4381
   14CHL1  H22B 1020   4.116   2.816   9.290 -0.3499  0.5460  1.2234
   14CHL1   C23 1021   4.025   2.851   9.103  0.8553  0.6009 -0.3620
   14CHL1  H23A 1022   3.961   2.762   9.122  1.2956  0.0722 -1.2589
   14CHL1  H23B 1023   3.964   2.928   9.051 -0.1400  0.3424  0.3885
   14CHL1   C24 1024   4.135   2.796   9.009 -0.1383  0.2677  0.4416
   14CHL1  H24A 1025   4.215   2.872   8.991  1.1896 -0.9951  0.8116
   14CHL1  H24B 1026   4.194   2.718   9.061 -0.1503 -0.2487 -0.3064
   14CHL1   C25 1027   4.082   2.758   8.866 -0.0721 -0.3166 -0.2242
   14CHL1   H25 1028   3.994   2.695   8.892  0.4399 -0.5587  1.0160
   14CHL1   C26 1029   4.047   2.880   8.786 -0.3019  0.1554 -0.0232
   14CHL1  H26A 1030   3.989   2.841   8.700 -0.9820  1.5726 -0.2372
   14CHL1  H26B 1031   3.981   2.944   8.848  0.1904 -0.6866  1.4474
   14CHL1  H26C 1032   4.142   2.930   8.759 -1.1632  1.2055 -1.2257
   14CHL1   C27 1033   4.178   2.670   8.784 -0.1504 -0.2170 -0.5192
   14CHL1  H27A 1034   4.211   2.573   8.827 -2.5183 -1.5933 -1.5529
   14CHL1  H27B 1035   4.121   2.640   8.693  0.5628 -1.1233 -0.6867
   14CHL1  H27C 1036   4.260   2.734   8.747 -0.7555  1.7639  1.4113
   15CHL1    C3 1037   5.145   3.992  10.375 -1.2617  0.8368  0.2568
   15CHL1    H3 1038   5.214   4.079  10.374 -0.4645  0.2186  0.1532
   15CHL1    O3 1039   5.132   3.948  10.507 -0.4148 -0.3447 -0.3819
   15CHL1   H3' 1040   5.039   3.932  10.525 -0.1857 -1.7880 -0.3602
   15CHL1    C4 1041   5.013   4.038  10.332  0.8451 -0.2719 -0.1761
   15CHL1   H4A 1042   4.940   3.958  10.354  0.5613  0.2004  0.6464
   15CHL1   H4B 1043   4.997   4.124  10.401  0.1570 -1.1358  0.7562
   15CHL1    C5 1044   4.999   4.082  10.188 -0.0721 -0.4874  0.4136
   15CHL1    C6 1045   4.948   4.208  10.163 -0.4983 -0.1598 -0.8305
   15CHL1    H6 1046   4.911   4.260  10.253 -2.3536 -1.1399 -0.9916
   15CHL1    C7 1047   4.923   4.257  10.023  0.3075  0.2303 -0.0262
   15CHL1   H7A 1048   4.825   4.308  10.013 -0.9034 -1.9784  0.0071
   15CHL1   H7B 1049   5.003   4.330   9.998  0.2014 -0.2207 -1.7933
   15CHL1    C8 1050   4.945   4.147   9.913 -0.3581 -0.1887  0.7417
   15CHL1    H8 1051   4.858   4.079   9.918 -1.1856  0.6197 -1.4137
   15CHL1   C14 1052   4.966   4.200   9.771 -0.4647 -0.7823  0.3705
   15CHL1   H14 1053   5.057   4.263   9.771 -0.5784 -0.5147 -1.7704
   15CHL1   C15 1054   4.860   4.297   9.720 -0.0822 -0.3376 -0.5813
   15CHL1  H15A 1055   4.761   4.260   9.752 -1.1333  1.0204 -2.1174
   15CHL1  H15B 1056   4.872   4.396   9.769  0.0165 -0.6772  0.0901
   15CHL1   C16 1057   4.869   4.295   9.571  0.2302 -0.6398  0.2766
   15CHL1  H16A 1058   4.768   4.263   9.537  0.5417 -1.8110  0.4168
   15CHL1  H16B 1059   4.886   4.393   9.521  0.0498 -0.2789  0.9152
   15CHL1   C17 1060   4.968   4.188   9.534 -0.2097  0.5330  0.4404
   15CHL1   H17 1061   5.067   4.238   9.535  1.7010 -2.9360  1.9441
   15CHL1   C13 1062   4.986   4.090   9.659 -0.0872  0.7123 -0.2193
   15CHL1   C18 1063   4.864   3.995   9.666 -0.4549 -0.3118 -1.1537
   15CHL1  H18A 1064   4.772   4.047   9.632 -0.7534  0.0091  0.0985
   15CHL1  H18B 1065   4.884   3.916   9.590 -0.7973  1.0218 -2.6863
   15CHL1  H18C 1066   4.857   3.934   9.759 -0.5565 -1.3405 -1.8153
   15CHL1   C12 1067   5.119   4.020   9.692 -1.1708 -0.1533 -0.2921
   15CHL1  H12A 1068   5.160   3.941   9.626  0.3062 -0.2551  0.7088
   15CHL1  H12B 1069   5.198   4.097   9.676 -0.7872 -0.9449 -2.6769
   15CHL1   C11 1070   5.120   3.963   9.836  0.9351  1.0016  0.0629
   15CHL1  H11A 1071   5.055   3.873   9.836  1.1152  0.8702 -0.3189
   15CHL1  H11B 1072   5.224   3.941   9.867  0.2538 -0.3024  1.5783
   15CHL1    C9 1073   5.067   4.060   9.945 -0.1139  0.2681 -0.0739
   15CHL1    H9 1074   5.151   4.133   9.939  2.0940 -2.1484 -0.4379
   15CHL1   C10 1075   5.055   3.986  10.083 -0.1213 -0.3403  0.2103
   15CHL1   C19 1076   4.955   3.870  10.069  0.0661 -0.2044 -0.3009
   15CHL1  H19A 1077   4.852   3.901  10.039 -0.8859 -0.7126  2.2494
   15CHL1  H19B 1078   4.998   3.785  10.012  0.4471  0.3788 -0.8995
   15CHL1  H19C 1079   4.919   3.831  10.166 -2.2953 -2.5645 -1.9827
   15CHL1    C1 1080   5.204   3.938  10.131 -0.1241 -0.0794 -0.3037
   15CHL1   H1A 1081   5.240   3.856  10.066 -3.2839 -2.0138  0.2042
   15CHL1   H1B 1082   5.272   4.025  10.120 -0.1721  0.0610  0.4585
   15CHL1    C2 1083   5.205   3.888  10.281 -0.2200 -0.6546  0.7856
   15CHL1   H2A 1084   5.308   3.862  10.314 -0.1238  0.1218  1.1160
   15CHL1   H2B 1085   5.144   3.795  10.289 -0.9831 -0.0168  3.1910
   15CHL1   C20 1086   4.956   4.131   9.391 -0.3737  0.3577  0.3751
   15CHL1   H20 1087   4.853   4.091   9.378  0.3375 -2.0324  1.4937
   15CHL1   C21 1088   5.066   4.020   9.366  0.2696 -0.6232 -0.1754
   15CHL1  H21A 1089   5.017   3.924   9.392  1.2933 -1.1121 -0.0425
   15CHL1  H21B 1090   5.155   4.033   9.430  0.5049 -1.4237 -0.3339
   15CHL1  H21C 1091   5.112   4.018   9.264  0.6493 -0.6758 -0.0036
   15CHL1   C22 1092   4.975   4.248   9.282  0.4121  0.4769 -0.2168
   15CHL1  H22A 1093   4.921   4.344   9.291 -0.1514  0.3481 -1.8636
   15CHL1  H22B 1094   5.083   4.271   9.292  0.5442  0.7512 -2.0110
   15CHL1   C23 1095   4.956   4.203   9.132 -0.7438 -0.7419  0.3612
   15CHL1  H23A 1096   4.995   4.270   9.053 -2.0570 -0.2927  0.0776
   15CHL1  H23B 1097   4.994   4.101   9.107  0.1400 -0.3292 -0.0231
   15CHL1   C24 1098   4.808   4.181   9.103  0.0611  0.2801 -0.1889
   15CHL1  H24A 1099   4.772   4.102   9.174  1.3131  0.0158  0.1706
   15CHL1  H24B 1100   4.760   4.281   9.110 -0.1604  0.2597 -1.2820
   15CHL1   C25 1101   4.771   4.133   8.960 -0.4036  0.0796 -0.4613
   15CHL1   H25 1102   4.796   4.027   8.938 -2.6391 -0.8627  1.1493
   15CHL1   C26 1103   4.620   4.144   8.939  0.3207 -0.3357  0.7893
   15CHL1  H26A 1104   4.567   4.069   9.001 -2.4693 -0.1237 -1.1409
   15CHL1  H26B 1105   4.586   4.244   8.971  0.3343 -0.1841  0.3387
   15CHL1  H26C 1106   4.596   4.111   8.836 -0.2035 -1.3130  1.2089
   15CHL1   C27 1107   4.830   4.225   8.854  1.1362  0.3405 -0.1068
   15CHL1  H27A 1108   4.941   4.218   8.862  1.0804  0.7244  1.2198
   15CHL1  H27B 1109   4.793   4.207   8.751  0.4212 -0.4401  0.2746
   15CHL1  H27C 1110   4.810   4.331   8.879  3.3431  0.6529  0.5334
   16CHL1    C3 1111   5.741   4.493  10.425 -0.5457  0.4486  0.5835
   16CHL1    H3 1112   5.632   4.509  10.440 -1.5135 -4.3607  0.4110
   16CHL1    O3 1113   5.794   4.511  10.555 -0.0146 -0.4231 -0.0691
   16CHL1   H3' 1114   5.860   4.443  10.570 -0.3286 -0.4663  1.2272
   16CHL1    C4 1115   5.742   4.339  10.374 -0.1944  0.2792 -0.2106
   16CHL1   H4A 1116   5.838   4.285  10.391  1.3701  2.4527 -1.5978
   16CHL1   H4B 1117   5.663   4.288  10.434  1.7818 -1.3248  1.1483
   16CHL1    C5 1118   5.696   4.316  10.233  0.0973  0.2428 -0.1693
   16CHL1    C6 1119   5.598   4.231  10.202  0.1595  0.0199  0.6682
   16CHL1    H6 1120   5.552   4.173  10.284  1.5115  0.3421  1.6855
   16CHL1    C7 1121   5.542   4.205  10.067  0.0308  0.3125  0.1863
   16CHL1   H7A 1122   5.554   4.096  10.047  0.0290  0.7330 -2.5824
   16CHL1   H7B 1123   5.437   4.240  10.055  0.4148  0.8403 -2.2798
   16CHL1    C8 1124   5.632   4.273   9.962 -0.4829 -0.6667  0.3168
   16CHL1    H8 1125   5.716   4.203   9.944 -0.0103  0.1622 -0.7578
   16CHL1   C14 1126   5.557   4.292   9.826 -0.0520 -0.2927  0.0083
   16CHL1   H14 1127   5.478   4.364   9.857 -0.9663 -0.9296 -0.8132
   16CHL1   C15 1128   5.481   4.170   9.781  0.1764  0.3647 -0.1062
   16CHL1  H15A 1129   5.540   4.077   9.794 -1.2676 -0.2563  2.5954
   16CHL1  H15B 1130   5.378   4.154   9.819 -1.0875  1.4262 -2.8182
   16CHL1   C16 1131   5.455   4.201   9.628  0.8591  0.2187 -0.5554
   16CHL1  H16A 1132   5.495   4.119   9.565 -0.3399 -0.9468  0.1693
   16CHL1  H16B 1133   5.347   4.211   9.607 -0.0046  0.0107  3.1690
   16CHL1   C17 1134   5.525   4.345   9.607  0.4761  0.3453 -0.3266
   16CHL1   H17 1135   5.441   4.410   9.639 -2.7311 -2.9113 -1.2940
   16CHL1   C13 1136   5.634   4.359   9.713  0.2541 -0.4672  0.5994
   16CHL1   C18 1137   5.759   4.274   9.660 -0.5107 -0.0039  0.1664
   16CHL1  H18A 1138   5.828   4.340   9.604 -0.4858 -0.6833 -0.6363
   16CHL1  H18B 1139   5.825   4.240   9.742 -0.5145 -1.2931 -0.3376
   16CHL1  H18C 1140   5.733   4.184   9.599  1.3142 -1.1843  1.0459
   16CHL1   C12 1141   5.676   4.500   9.755  0.7017  0.4583  0.2033
   16CHL1  H12A 1142   5.726   4.556   9.672 -0.5205  2.0718  0.5089
   16CHL1  H12B 1143   5.587   4.562   9.779  0.4832  0.7452 -1.2214
   16CHL1   C11 1144   5.749   4.496   9.888  0.4164 -0.7564  0.7545
   16CHL1  H11A 1145   5.846   4.445   9.870 -0.8413 -2.4702 -1.8896
   16CHL1  H11B 1146   5.771   4.603   9.905 -3.6276  0.6578 -1.5388
   16CHL1    C9 1147   5.678   4.417  10.000 -0.4045 -0.4865 -0.2806
   16CHL1    H9 1148   5.590   4.481  10.021  0.0137  0.7856 -2.1893
   16CHL1   C10 1149   5.766   4.413  10.131 -0.1898  0.1135 -0.1277
   16CHL1   C19 1150   5.915   4.376  10.102 -0.0207  0.1270  0.1603
   16CHL1  H19A 1151   5.927   4.292  10.031 -1.7268  1.6719 -2.1253
   16CHL1  H19B 1152   5.970   4.466  10.068 -0.0483  0.6142  1.3319
   16CHL1  H19C 1153   5.958   4.331  10.194 -1.7316  0.3417  1.1138
   16CHL1    C1 1154   5.749   4.558  10.192  0.9405  0.1337 -0.1057
   16CHL1   H1A 1155   5.786   4.622  10.109  0.8532 -0.6329 -0.7495
   16CHL1   H1B 1156   5.644   4.590  10.208  2.1064  2.2965  4.9509
   16CHL1    C2 1157   5.810   4.585  10.328 -0.5444  0.5918 -0.3237
   16CHL1   H2A 1158   5.808   4.690  10.363  1.3272  0.6465 -0.2442
   16CHL1   H2B 1159   5.918   4.560  10.313 -0.4200  0.8299  0.1367
   16CHL1   C20 1160   5.560   4.365   9.458  0.7685  0.1819  0.1519
   16CHL1   H20 1161   5.652   4.307   9.437  0.4379 -0.0996 -0.5496
   16CHL1   C21 1162   5.573   4.516   9.426  0.2448 -0.0379  0.5539
   16CHL1  H21A 1163   5.485   4.565   9.473  0.8870  0.1990  1.5406
   16CHL1  H21B 1164   5.566   4.537   9.317 -0.1342  1.5525  0.8586
   16CHL1  H21C 1165   5.658   4.560   9.483 -0.6169 -0.9212  2.6551
   16CHL1   C22 1166   5.451   4.315   9.359 -0.1850  0.5769  0.6766
   16CHL1  H22A 1167   5.392   4.232   9.401  2.1491 -1.2359  0.5608
   16CHL1  H22B 1168   5.382   4.402   9.347 -1.5211 -0.6338 -0.7016
   16CHL1   C23 1169   5.493   4.261   9.220 -0.1096  0.2068  0.3072
   16CHL1  H23A 1170   5.551   4.339   9.166  0.1996 -1.0020 -1.1638
   16CHL1  H23B 1171   5.552   4.170   9.240 -0.0339  0.3102  0.5571
   16CHL1   C24 1172   5.367   4.213   9.148  0.5876 -0.4778 -0.5830
   16CHL1  H24A 1173   5.321   4.134   9.211 -2.4959  1.6639  0.0750
   16CHL1  H24B 1174   5.288   4.289   9.131  0.5393  0.0109  1.5856
   16CHL1   C25 1175   5.389   4.148   9.010 -0.4855 -0.6852 -0.1112
   16CHL1   H25 1176   5.440   4.050   9.023  0.9630  0.1365  0.6230
   16CHL1   C26 1177   5.259   4.133   8.946  0.0152  0.0181  0.0296
   16CHL1  H26A 1178   5.262   4.095   8.841 -0.0147  2.6862 -1.0211
   16CHL1  H26B 1179   5.205   4.055   9.004 -0.5196  0.7165  0.4878
   16CHL1  H26C 1180   5.192   4.222   8.953 -1.7186 -1.3244  1.6472
   16CHL1   C27 1181   5.470   4.243   8.925  0.0261  0.0678 -0.5024
   16CHL1  H27A 1182   5.404   4.327   8.893  1.4077  0.6255 -2.0776
   16CHL1  H27B 1183   5.550   4.296   8.981 -1.1358 -0.3993  1.6967
   16CHL1  H27C 1184   5.500   4.201   8.826  3.4568  0.7744  0.1092
   17CHL1    C3 1185   1.723   1.342  10.382  0.6309 -0.5397  0.2760
   17CHL1    H3 1186   1.619   1.370  10.355  0.8254 -0.5552 -0.5149
   17CHL1    O3 1187   1.734   1.348  10.519  0.0391  0.0452  0.4495
   17CHL1   H3' 1188   1.671   1.289  10.560  1.7097  0.3197  3.7858
   17CHL1    C4 1189   1.743   1.195  10.336 -0.2793  0.0071 -0.5650
   17CHL1   H4A 1190   1.833   1.168  10.395  0.1308  3.1161  0.4391
   17CHL1   H4B 1191   1.663   1.128  10.374  0.7573 -0.8653  0.1286
   17CHL1    C5 1192   1.762   1.166  10.187  1.0474  0.1709 -0.4506
   17CHL1    C6 1193   1.696   1.071  10.123 -0.4195 -0.5253  0.2551
   17CHL1    H6 1194   1.621   1.010  10.175 -0.2938 -0.6490  0.2897
   17CHL1    C7 1195   1.702   1.051   9.973 -0.1736 -0.1348  0.1103
   17CHL1   H7A 1196   1.696   0.946   9.938  0.7959  0.3483 -1.6632
   17CHL1   H7B 1197   1.602   1.090   9.942 -1.1245 -1.2903  1.5806
   17CHL1    C8 1198   1.826   1.116   9.909 -0.6652 -0.1960 -0.0894
   17CHL1    H8 1199   1.918   1.061   9.938  1.0397  1.1024 -2.6045
   17CHL1   C14 1200   1.818   1.126   9.759 -0.1194  0.2627  0.0800
   17CHL1   H14 1201   1.731   1.194   9.746 -1.7040 -1.2673  1.9003
   17CHL1   C15 1202   1.802   0.993   9.678 -0.0752 -0.3905 -0.5912
   17CHL1  H15A 1203   1.875   0.922   9.722 -0.3728 -0.5344 -0.3224
   17CHL1  H15B 1204   1.700   0.948   9.684 -0.4587  0.6309  2.0686
   17CHL1   C16 1205   1.847   1.034   9.536 -0.2225 -0.4243  0.4033
   17CHL1  H16A 1206   1.916   0.957   9.496  0.8708  1.1593 -0.8632
   17CHL1  H16B 1207   1.758   1.033   9.470 -1.3418  0.8106  1.8048
   17CHL1   C17 1208   1.912   1.175   9.542  0.3896  0.2926  0.2929
   17CHL1   H17 1209   1.836   1.250   9.511  1.0713  0.6774 -0.4824
   17CHL1   C13 1210   1.935   1.202   9.696  0.2403 -0.0560 -0.0067
   17CHL1   C18 1211   2.068   1.131   9.732 -0.0172 -0.3249 -0.7253
   17CHL1  H18A 1212   2.080   1.031   9.685 -0.4843 -0.3653 -0.7702
   17CHL1  H18B 1213   2.152   1.187   9.686  0.0264 -0.0430 -0.3030
   17CHL1  H18C 1214   2.079   1.107   9.840 -2.5842  2.7226  0.3647
   17CHL1   C12 1215   1.936   1.350   9.739 -0.1392  1.2002 -0.2637
   17CHL1  H12A 1216   2.034   1.391   9.703  2.1518 -2.4064  1.3056
   17CHL1  H12B 1217   1.849   1.401   9.693  1.2987  1.6289 -2.7004
   17CHL1   C11 1218   1.946   1.352   9.889  0.6058  0.4222 -0.6950
   17CHL1  H11A 1219   2.044   1.321   9.931  1.5188  1.7611 -1.7703
   17CHL1  H11B 1220   1.937   1.460   9.911 -1.2012  0.6146 -2.1366
   17CHL1    C9 1221   1.839   1.264   9.968  0.2088 -0.0112 -0.5696
   17CHL1    H9 1222   1.735   1.298   9.950 -0.3442 -0.6382  1.1553
   17CHL1   C10 1223   1.856   1.269  10.123  0.4832  0.8125 -0.1855
   17CHL1   C19 1224   1.995   1.226  10.176 -0.3060 -0.1532 -0.1457
   17CHL1  H19A 1225   1.997   1.223  10.287  0.6457  2.0578 -0.0389
   17CHL1  H19B 1226   2.018   1.137  10.115 -3.6952  0.0862 -2.0110
   17CHL1  H19C 1227   2.072   1.304  10.160  1.0688 -0.8637  2.5030
   17CHL1    C1 1228   1.816   1.411  10.166 -0.4698  0.2352  0.0314
   17CHL1   H1A 1229   1.899   1.476  10.131 -0.3390 -0.8617 -1.8824
   17CHL1   H1B 1230   1.717   1.434  10.121 -1.3725  0.9340  2.2401
   17CHL1    C2 1231   1.821   1.434  10.315  0.7269 -0.5079  0.6896
   17CHL1   H2A 1232   1.788   1.540  10.325  0.3641 -0.6225  0.7263
   17CHL1   H2B 1233   1.921   1.417  10.360  1.0966 -0.3492 -0.0525
   17CHL1   C20 1234   2.026   1.190   9.445  0.1119 -0.2377  0.8325
   17CHL1   H20 1235   2.105   1.128   9.492  1.5750  0.7467 -0.2343
   17CHL1   C21 1236   2.092   1.329   9.440 -0.1117  0.5636  0.3850
   17CHL1  H21A 1237   2.167   1.337   9.522  1.1411 -0.6096 -0.6018
   17CHL1  H21B 1238   2.022   1.412   9.462 -0.2983  0.5272 -0.0472
   17CHL1  H21C 1239   2.141   1.346   9.342 -0.2790 -1.4817 -0.1042
   17CHL1   C22 1240   1.993   1.151   9.296 -0.6208 -0.5243 -0.5756
   17CHL1  H22A 1241   1.895   1.099   9.286 -0.3995 -0.8918 -0.8363
   17CHL1  H22B 1242   1.978   1.243   9.236  1.8024  1.7166  1.9720
   17CHL1   C23 1243   2.111   1.086   9.227  0.6143  0.3793 -0.4588
   17CHL1  H23A 1244   2.199   1.152   9.244 -0.6314  2.4133 -1.5484
   17CHL1  H23B 1245   2.138   0.986   9.267 -0.3671  0.1444 -0.3762
   17CHL1   C24 1246   2.080   1.080   9.072 -0.0200  0.4771 -0.1652
   17CHL1  H24A 1247   1.994   1.010   9.064  0.6719 -0.6962  1.9839
   17CHL1  H24B 1248   2.050   1.178   9.029 -0.6592  0.5081  0.3473
   17CHL1   C25 1249   2.192   1.012   8.983  0.4460  0.1187 -0.2287
   17CHL1   H25 1250   2.220   0.918   9.035 -0.0724 -1.0238 -1.9523
   17CHL1   C26 1251   2.141   0.974   8.843 -0.3990  0.1436  0.0717
   17CHL1  H26A 1252   2.139   1.062   8.775  0.0644  1.0602  1.1976
   17CHL1  H26B 1253   2.221   0.914   8.795  1.3876  3.7385 -1.8486
   17CHL1  H26C 1254   2.041   0.925   8.845 -0.9093  1.1542 -0.1020
   17CHL1   C27 1255   2.310   1.111   8.958  1.0081  0.2298 -0.8245
   17CHL1  H27A 1256   2.273   1.215   8.944  0.3382  0.1009 -0.0375
   17CHL1  H27B 1257   2.380   1.096   9.043 -0.6887 -0.0075  0.5771
   17CHL1  H27C 1258   2.367   1.089   8.865  0.3107  1.4269 -1.5497
   18CHL1    C3 1259   6.749   5.805  10.381  0.5258  0.3839 -0.0105
   18CHL1    H3 1260   6.658   5.866  10.362  1.0595  1.7584  1.5520
   18CHL1    O3 1261   6.771   5.761  10.515 -0.2012  0.3796  0.4465
   18CHL1   H3' 1262   6.841   5.817  10.551  2.3685 -1.6810 -0.9751
   18CHL1    C4 1263   6.738   5.682  10.294 -0.6173  0.1294  0.0529
   18CHL1   H4A 1264   6.822   5.611  10.308 -1.0521 -0.1412  1.5183
   18CHL1   H4B 1265   6.649   5.622  10.322  0.3300 -0.5008  1.9043
   18CHL1    C5 1266   6.726   5.719  10.150  0.2647 -0.2269  0.2109
   18CHL1    C6 1267   6.627   5.670  10.072  0.1360 -0.2954 -0.9421
   18CHL1    H6 1268   6.557   5.599  10.119 -1.3691  1.7864  0.1023
   18CHL1    C7 1269   6.625   5.689   9.926 -0.3659 -0.0193 -0.5472
   18CHL1   H7A 1270   6.606   5.588   9.882  1.0225 -0.7914  0.5273
   18CHL1   H7B 1271   6.542   5.757   9.899 -0.9966 -0.6069 -0.1224
   18CHL1    C8 1272   6.759   5.743   9.869  0.3741 -0.8823  0.0479
   18CHL1    H8 1273   6.833   5.660   9.871  2.3830  0.8332  0.2474
   18CHL1   C14 1274   6.745   5.797   9.727  0.2278 -0.4916 -0.4490
   18CHL1   H14 1275   6.677   5.885   9.739  0.7691 -0.0411 -0.6388
   18CHL1   C15 1276   6.667   5.711   9.620 -0.0401 -0.3906  0.0193
   18CHL1  H15A 1277   6.691   5.603   9.609  1.9031  0.0732 -0.7669
   18CHL1  H15B 1278   6.559   5.724   9.641  0.7906  1.6200  4.2628
   18CHL1   C16 1279   6.698   5.776   9.491 -0.6377  0.0538 -0.6339
   18CHL1  H16A 1280   6.758   5.705   9.430  1.0556  0.9651 -0.0891
   18CHL1  H16B 1281   6.611   5.816   9.436 -1.2029  1.6694  1.2944
   18CHL1   C17 1282   6.809   5.893   9.521  0.0563  0.6943 -0.2988
   18CHL1   H17 1283   6.749   5.984   9.544 -2.1991 -1.2183  2.1942
   18CHL1   C13 1284   6.867   5.845   9.656 -0.4449 -0.1211 -0.3328
   18CHL1   C18 1285   6.972   5.724   9.634 -0.1090 -1.0604  0.6354
   18CHL1  H18A 1286   7.022   5.684   9.725 -1.7693 -0.5049  1.8417
   18CHL1  H18B 1287   6.926   5.639   9.580  0.7225 -1.5796  0.7146
   18CHL1  H18C 1288   7.048   5.761   9.562 -1.3333 -1.6468 -1.0120
   18CHL1   C12 1289   6.924   5.953   9.743 -0.0442 -0.5878 -0.5452
   18CHL1  H12A 1290   7.020   5.994   9.704 -0.5605  1.3801  0.1355
   18CHL1  H12B 1291   6.857   6.041   9.741  0.1975 -0.4122 -1.0372
   18CHL1   C11 1292   6.951   5.904   9.895  0.1674 -0.3390 -0.7019
   18CHL1  H11A 1293   7.028   5.823   9.888 -1.0975 -1.7863  1.2198
   18CHL1  H11B 1294   6.987   5.989   9.957  0.9880 -0.0085 -1.6072
   18CHL1    C9 1295   6.823   5.844   9.961 -0.3015 -0.7520  0.4988
   18CHL1    H9 1296   6.751   5.928   9.964  0.2419  0.0209 -3.2614
   18CHL1   C10 1297   6.844   5.804  10.105 -0.1487 -0.1781 -0.9090
   18CHL1   C19 1298   6.971   5.714  10.113  0.7586 -0.3948  0.6885
   18CHL1  H19A 1299   6.957   5.622  10.054 -1.9090  0.9250 -0.9050
   18CHL1  H19B 1300   7.057   5.779  10.083  0.8437 -0.6783  0.3203
   18CHL1  H19C 1301   6.998   5.694  10.219 -1.2612 -0.4614  1.2328
   18CHL1    C1 1302   6.860   5.928  10.196  0.3195  0.0614 -0.4152
   18CHL1   H1A 1303   6.947   5.988  10.161  1.6479 -1.3183  0.4100
   18CHL1   H1B 1304   6.768   5.989  10.182 -0.6915 -1.2966  0.0433
   18CHL1    C2 1305   6.876   5.895  10.337  0.7770 -0.0147 -0.3835
   18CHL1   H2A 1306   6.874   5.979  10.410  1.5546  2.1154 -2.6413
   18CHL1   H2B 1307   6.967   5.838  10.364 -0.4956 -1.9749 -0.0499
   18CHL1   C20 1308   6.891   5.919   9.394  0.0631 -0.5272  0.2163
   18CHL1   H20 1309   6.941   5.826   9.359 -0.6596 -0.6799 -0.4328
   18CHL1   C21 1310   7.001   6.022   9.428 -0.3444 -0.0847 -0.3386
   18CHL1  H21A 1311   6.960   6.118   9.467  0.7285 -0.1985  1.1277
   18CHL1  H21B 1312   7.071   6.043   9.344  0.2931  0.1565  0.2477
   18CHL1  H21C 1313   7.060   5.977   9.510  0.7578  1.4505 -0.2375
   18CHL1   C22 1314   6.796   5.963   9.280 -0.1213  1.0862 -0.6177
   18CHL1  H22A 1315   6.730   5.874   9.265  1.9124 -0.9508  1.5244
   18CHL1  H22B 1316   6.731   6.047   9.312  0.1482  0.9091  0.4261
   18CHL1   C23 1317   6.870   5.994   9.154  0.1509 -0.0935 -0.4884
   18CHL1  H23A 1318   6.901   6.101   9.152  0.5779 -0.1820  0.5587
   18CHL1  H23B 1319   6.969   5.944   9.163  0.5938  0.7847 -0.3124
   18CHL1   C24 1320   6.800   5.968   9.023 -0.0252 -0.4324 -0.0122
   18CHL1  H24A 1321   6.702   6.020   9.020 -0.3908 -1.1277 -1.5198
   18CHL1  H24B 1322   6.868   6.010   8.945 -3.2544 -1.1109 -3.4650
   18CHL1   C25 1323   6.757   5.823   8.991  0.0680  0.2782 -0.3946
   18CHL1   H25 1324   6.696   5.785   9.076  1.5376  2.1050  1.5778
   18CHL1   C26 1325   6.675   5.820   8.861 -0.6324 -0.2310 -0.1787
   18CHL1  H26A 1326   6.739   5.872   8.786 -0.9917  0.5039  0.0101
   18CHL1  H26B 1327   6.671   5.711   8.844  1.2508 -0.1048 -1.9273
   18CHL1  H26C 1328   6.580   5.876   8.870 -0.5492  0.0685 -1.0969
   18CHL1   C27 1329   6.874   5.715   8.985  0.1323 -0.0178 -0.0285
   18CHL1  H27A 1330   6.850   5.607   8.998  1.7307 -0.4814 -0.7064
   18CHL1  H27B 1331   6.925   5.719   8.886  1.0316  1.3198  0.4590
   18CHL1  H27C 1332   6.950   5.742   9.061  1.7613 -2.0090 -0.8811
   19CHL1    C3 1333   5.173   3.471  10.345 -0.1802 -0.0659 -0.5468
   19CHL1    H3 1334   5.140   3.577  10.356  0.6643  0.2299 -0.7652
   19CHL1    O3 1335   5.175   3.401  10.474 -0.3565 -0.3278 -0.1041
   19CHL1   H3' 1336   5.201   3.312  10.449 -0.1164 -0.2871 -0.0042
   19CHL1    C4 1337   5.089   3.389  10.250 -0.0259  0.1426  0.3621
   19CHL1   H4A 1338   5.129   3.285  10.254 -0.3635 -0.0208 -0.4187
   19CHL1   H4B 1339   4.986   3.381  10.291  0.2627 -0.3819  1.0028
   19CHL1    C5 1340   5.091   3.423  10.104 -0.1438 -0.1224  0.5305
   19CHL1    C6 1341   4.983   3.441  10.018  0.3033 -0.5287  0.5903
   19CHL1    H6 1342   4.880   3.430  10.056 -1.4799  3.8974 -2.2264
   19CHL1    C7 1343   4.992   3.482   9.874  0.0113 -0.2187  0.1925
   19CHL1   H7A 1344   4.928   3.417   9.811 -1.0718 -1.1607  2.1596
   19CHL1   H7B 1345   4.966   3.590   9.884 -0.6854 -0.5286  2.3194
   19CHL1    C8 1346   5.139   3.459   9.818 -0.4865 -0.1243  0.6276
   19CHL1    H8 1347   5.166   3.354   9.793  3.6166  0.1242  2.9775
   19CHL1   C14 1348   5.146   3.551   9.695  0.0548  0.5556  0.3685
   19CHL1   H14 1349   5.136   3.655   9.733  2.1762  1.5498 -1.5600
   19CHL1   C15 1350   5.030   3.534   9.588  0.3222 -0.7460 -0.2896
   19CHL1  H15A 1351   5.014   3.429   9.555  0.9227 -1.5825  1.9608
   19CHL1  H15B 1352   4.931   3.573   9.621 -0.7053 -1.8366 -1.9235
   19CHL1   C16 1353   5.094   3.608   9.471 -0.0361 -0.1714 -0.0225
   19CHL1  H16A 1354   5.094   3.538   9.385  0.5726  0.2769 -0.4034
   19CHL1  H16B 1355   5.034   3.697   9.444  0.2314 -0.0143 -0.1068
   19CHL1   C17 1356   5.244   3.650   9.507 -0.0728 -0.0411  0.0027
   19CHL1   H17 1357   5.252   3.754   9.544 -1.6100  0.0607  0.1041
   19CHL1   C13 1358   5.279   3.554   9.620 -0.0270  0.5749  0.9527
   19CHL1   C18 1359   5.312   3.411   9.567  0.1281  0.6273  0.0578
   19CHL1  H18A 1360   5.342   3.344   9.650  1.3173  1.2528  0.1476
   19CHL1  H18B 1361   5.230   3.366   9.507  0.2189  1.1239 -0.4467
   19CHL1  H18C 1362   5.398   3.403   9.498 -1.3828  1.3328 -2.0011
   19CHL1   C12 1363   5.386   3.610   9.717  0.1695 -0.0250 -0.3816
   19CHL1  H12A 1364   5.494   3.606   9.690  0.3905  1.5635  0.1591
   19CHL1  H12B 1365   5.353   3.715   9.733  3.3905  1.3710 -1.8945
   19CHL1   C11 1366   5.390   3.524   9.849  0.3314  0.1831  0.3011
   19CHL1  H11A 1367   5.422   3.420   9.832 -1.9960 -0.3898 -1.0996
   19CHL1  H11B 1368   5.467   3.550   9.924  1.7139 -2.9695  0.1190
   19CHL1    C9 1369   5.246   3.513   9.915 -0.4054  0.2555 -0.0163
   19CHL1    H9 1370   5.214   3.619   9.927 -0.1266  0.6532 -2.2485
   19CHL1   C10 1371   5.236   3.436  10.049 -0.3699 -0.4369 -0.4871
   19CHL1   C19 1372   5.305   3.298  10.041  0.1266 -0.2196  0.2928
   19CHL1  H19A 1373   5.255   3.244   9.958 -1.9829 -0.2446  1.5071
   19CHL1  H19B 1374   5.415   3.305  10.029  0.1822  0.1162  0.9380
   19CHL1  H19C 1375   5.291   3.241  10.135 -0.3441 -1.7940 -0.7085
   19CHL1    C1 1376   5.314   3.536  10.149  0.2779 -0.2294 -0.0743
   19CHL1   H1A 1377   5.420   3.550  10.121  0.5755 -2.8087 -0.4493
   19CHL1   H1B 1378   5.271   3.638  10.137  0.3279 -0.0883  0.8286
   19CHL1    C2 1379   5.319   3.491  10.295  0.1845 -0.1856  1.0224
   19CHL1   H2A 1380   5.376   3.567  10.352  1.1159 -0.3134  0.2846
   19CHL1   H2B 1381   5.378   3.396  10.296  3.0290  1.4313 -0.9270
   19CHL1   C20 1382   5.341   3.647   9.381 -0.3891  0.5522  0.7626
   19CHL1   H20 1383   5.322   3.555   9.321  0.4542 -1.0451  2.7898
   19CHL1   C21 1384   5.486   3.659   9.427  0.7212  0.0312 -0.4146
   19CHL1  H21A 1385   5.492   3.739   9.503  1.9012  0.7801 -1.2464
   19CHL1  H21B 1386   5.550   3.670   9.337  0.9971  0.2310 -0.1942
   19CHL1  H21C 1387   5.514   3.570   9.487  0.6261  0.4774  0.3022
   19CHL1   C22 1388   5.303   3.768   9.296  0.2914  0.1056  0.4075
   19CHL1  H22A 1389   5.192   3.782   9.295  0.3919  0.9240 -0.8768
   19CHL1  H22B 1390   5.353   3.855   9.343  0.3525  1.7982 -2.5616
   19CHL1   C23 1391   5.361   3.762   9.156 -0.5218  0.2187 -0.0848
   19CHL1  H23A 1392   5.336   3.853   9.098  4.4631  1.3505 -0.8998
   19CHL1  H23B 1393   5.471   3.769   9.163 -0.1940 -3.4095  0.3576
   19CHL1   C24 1394   5.321   3.646   9.060  0.1492 -0.0386 -0.4939
   19CHL1  H24A 1395   5.371   3.661   8.962 -0.1583 -0.7702 -0.7761
   19CHL1  H24B 1396   5.346   3.545   9.100 -0.1741  0.7376  1.7715
   19CHL1   C25 1397   5.168   3.637   9.030  0.3753 -0.5639 -0.4315
   19CHL1   H25 1398   5.107   3.629   9.123  0.7472  1.1618  0.0022
   19CHL1   C26 1399   5.124   3.768   8.958  0.5362 -0.3930 -0.3989
   19CHL1  H26A 1400   5.193   3.792   8.875  1.9018 -3.5754 -0.3421
   19CHL1  H26B 1401   5.017   3.768   8.927  0.4797  2.3690 -0.4207
   19CHL1  H26C 1402   5.133   3.843   9.040 -1.0604 -1.1475  0.5161
   19CHL1   C27 1403   5.151   3.529   8.926  0.0518 -0.5799  0.4632
   19CHL1  H27A 1404   5.048   3.533   8.885  0.0120  0.0542  0.6148
   19CHL1  H27B 1405   5.226   3.556   8.848 -0.4149  3.5870  1.1968
   19CHL1  H27C 1406   5.176   3.423   8.949 -1.6416 -0.9109  0.8846
   20CHL1    C3 1407   0.037   2.184  10.381 -1.0209  0.1200 -0.1927
   20CHL1    H3 1408   0.126   2.248  10.360 -0.3709 -0.7881 -0.2186
   20CHL1    O3 1409   0.022   2.175  10.521  0.6435 -0.3140  0.0933
   20CHL1   H3' 1410   0.097   2.117  10.536  2.0801  1.3980 -0.1892
   20CHL1    C4 1411  -0.093   2.231  10.333 -0.0847 -0.2356  0.1983
   20CHL1   H4A 1412  -0.169   2.169  10.384  0.7393 -0.3433  1.3400
   20CHL1   H4B 1413  -0.119   2.330  10.376 -2.1906 -1.7587  2.7375
   20CHL1    C5 1414  -0.113   2.205  10.183  0.0414  0.0160 -0.1109
   20CHL1    C6 1415  -0.156   2.299  10.100  0.9882  0.2423  0.4062
   20CHL1    H6 1416  -0.188   2.398  10.136 -1.9217 -0.7760  0.8765
   20CHL1    C7 1417  -0.178   2.293   9.951 -0.1244 -0.3642 -0.1555
   20CHL1   H7A 1418  -0.264   2.357   9.920  0.5977  0.1344 -1.2144
   20CHL1   H7B 1419  -0.090   2.335   9.898  0.0667 -0.5168  0.0394
   20CHL1    C8 1420  -0.190   2.150   9.901  0.7743  0.1828 -0.0198
   20CHL1    H8 1421  -0.289   2.106   9.926  1.0325  0.0948  0.9183
   20CHL1   C14 1422  -0.177   2.146   9.749  0.9675  0.2898  0.1510
   20CHL1   H14 1423  -0.082   2.190   9.713  0.1159  1.4474 -0.7877
   20CHL1   C15 1424  -0.277   2.227   9.663  0.8987  0.2783 -0.1428
   20CHL1  H15A 1425  -0.374   2.197   9.706  0.6164 -0.3570 -1.1901
   20CHL1  H15B 1426  -0.254   2.336   9.662  1.9081  0.0864  0.5866
   20CHL1   C16 1427  -0.267   2.168   9.523  0.0287  0.3123 -0.2193
   20CHL1  H16A 1428  -0.369   2.163   9.480  0.1363 -0.5789 -0.3954
   20CHL1  H16B 1429  -0.203   2.221   9.449 -1.4266  0.0865 -1.7055
   20CHL1   C17 1430  -0.182   2.032   9.547  0.4076 -0.0693  0.7476
   20CHL1   H17 1431  -0.079   2.075   9.536  0.1202  0.9383  1.7167
   20CHL1   C13 1432  -0.183   1.999   9.693  0.3294 -0.5112  0.1414
   20CHL1   C18 1433  -0.315   1.922   9.720 -0.6334  0.3323 -0.0334
   20CHL1  H18A 1434  -0.408   1.969   9.682 -1.2732 -1.9831 -1.5840
   20CHL1  H18B 1435  -0.312   1.818   9.681 -1.2722 -0.3975  1.7552
   20CHL1  H18C 1436  -0.332   1.924   9.829  1.1590 -0.5664  0.2917
   20CHL1   C12 1437  -0.065   1.917   9.751  0.2542 -1.0137 -0.3745
   20CHL1  H12A 1438  -0.058   1.819   9.700  0.6885 -0.2341 -1.8726
   20CHL1  H12B 1439   0.030   1.971   9.728 -0.3980 -0.4433 -1.8092
   20CHL1   C11 1440  -0.078   1.914   9.903 -0.7759  0.5262  0.7587
   20CHL1  H11A 1441  -0.167   1.849   9.917 -1.9836  1.4579 -1.8511
   20CHL1  H11B 1442   0.010   1.859   9.942  0.4850  0.7960 -1.4914
   20CHL1    C9 1443  -0.085   2.060   9.966 -0.1218  0.7560 -0.6433
   20CHL1    H9 1444   0.011   2.105   9.932 -0.3859  0.5286 -1.7131
   20CHL1   C10 1445  -0.082   2.064  10.123 -0.3981  0.8406 -0.6618
   20CHL1   C19 1446  -0.169   1.943  10.172 -0.0315  0.0536  0.2586
   20CHL1  H19A 1447  -0.121   1.843  10.173 -1.3188 -0.6048 -0.2523
   20CHL1  H19B 1448  -0.207   1.954  10.277  1.2571  0.0229  0.7398
   20CHL1  H19C 1449  -0.260   1.948  10.108  0.5305  1.6076 -0.4605
   20CHL1    C1 1450   0.061   2.035  10.179  0.2560  0.0543  0.2578
   20CHL1   H1A 1451   0.086   1.934  10.140 -0.7945  0.0402 -0.4091
   20CHL1   H1B 1452   0.124   2.110  10.127 -1.2674  1.6400  0.5997
   20CHL1    C2 1453   0.071   2.043  10.332  0.5554 -0.3630 -0.4939
   20CHL1   H2A 1454   0.179   2.017  10.343  0.2497 -2.4328 -1.8538
   20CHL1   H2B 1455   0.002   1.968  10.376  1.0500 -0.8231 -0.4883
   20CHL1   C20 1456  -0.192   1.919   9.442 -0.2099 -0.0476 -0.3430
   20CHL1   H20 1457  -0.176   1.821   9.492 -0.3458  0.7247  1.2872
   20CHL1   C21 1458  -0.078   1.935   9.332 -0.0314 -0.4338 -0.0906
   20CHL1  H21A 1459  -0.093   1.875   9.240  1.1076 -0.3201 -0.3645
   20CHL1  H21B 1460   0.025   1.921   9.370  0.2975  0.1620 -0.7289
   20CHL1  H21C 1461  -0.085   2.041   9.298  0.3777 -0.6503 -0.8817
   20CHL1   C22 1462  -0.336   1.918   9.380  0.2013  0.6240  0.1029
   20CHL1  H22A 1463  -0.410   1.935   9.461 -0.7772 -0.7815 -0.4579
   20CHL1  H22B 1464  -0.360   1.996   9.304 -1.4747 -0.8224 -0.9595
   20CHL1   C23 1465  -0.372   1.779   9.314  0.3181  0.0373 -0.3047
   20CHL1  H23A 1466  -0.330   1.699   9.379 -0.3631  1.4115  1.9525
   20CHL1  H23B 1467  -0.482   1.767   9.326 -0.1536  1.8120 -2.2133
   20CHL1   C24 1468  -0.345   1.761   9.159  0.8848 -0.0440 -0.8067
   20CHL1  H24A 1469  -0.381   1.855   9.112 -0.3865  0.6893  1.4714
   20CHL1  H24B 1470  -0.237   1.747   9.137  0.7355  0.5129 -2.0032
   20CHL1   C25 1471  -0.415   1.629   9.096  0.4297 -0.5607 -0.2540
   20CHL1   H25 1472  -0.521   1.629   9.130  0.8576  0.6287  1.1858
   20CHL1   C26 1473  -0.432   1.636   8.939 -0.5919 -0.0915  0.3732
   20CHL1  H26A 1474  -0.504   1.714   8.908  0.3568  0.1090 -1.4752
   20CHL1  H26B 1475  -0.342   1.643   8.874 -0.1474  0.2976  1.0169
   20CHL1  H26C 1476  -0.480   1.538   8.918 -0.9104  0.3380 -1.0291
   20CHL1   C27 1477  -0.355   1.492   9.122 -0.8216 -0.1648 -0.3097
   20CHL1  H27A 1478  -0.416   1.411   9.076  0.1332 -0.1465 -1.6495
   20CHL1  H27B 1479  -0.258   1.477   9.072 -0.3463 -0.8698  0.7888
   20CHL1  H27C 1480  -0.343   1.472   9.231  4.4628  1.3598 -0.3503
   21CHL1    C3 1481   0.113   6.592  10.299  0.0083  0.1669 -0.7492
   21CHL1    H3 1482   0.110   6.701  10.279  1.0784  0.0619 -1.5581
   21CHL1    O3 1483   0.138   6.581  10.438 -0.3826  0.0545 -0.2756
   21CHL1   H3' 1484   0.231   6.604  10.434 -0.1424 -0.9869 -1.3634
   21CHL1    C4 1485  -0.020   6.537  10.263 -0.6608  0.2575 -0.6248
   21CHL1   H4A 1486  -0.024   6.433  10.302  2.2703  0.7593  1.3004
   21CHL1   H4B 1487  -0.101   6.586  10.321 -1.2132 -0.8604 -0.4217
   21CHL1    C5 1488  -0.044   6.516  10.116  0.9377  0.8818 -0.6211
   21CHL1    C6 1489  -0.157   6.558  10.064  0.6162  0.0783 -0.3383
   21CHL1    H6 1490  -0.223   6.608  10.136  0.5948 -0.6428  0.1399
   21CHL1    C7 1491  -0.195   6.561   9.919 -0.1682 -0.1696 -0.4744
   21CHL1   H7A 1492  -0.300   6.528   9.905  0.1425 -1.8989  0.8914
   21CHL1   H7B 1493  -0.202   6.663   9.876  0.7320 -0.7282 -2.0287
   21CHL1    C8 1494  -0.103   6.473   9.835  0.8536  0.5431 -0.0779
   21CHL1    H8 1495  -0.125   6.368   9.863  0.7241  1.0132  1.6801
   21CHL1   C14 1496  -0.122   6.509   9.689 -0.0871 -0.3686  0.6362
   21CHL1   H14 1497  -0.100   6.615   9.663 -1.4670 -0.2707 -0.2087
   21CHL1   C15 1498  -0.265   6.494   9.626 -0.0709 -0.4976  0.3929
   21CHL1  H15A 1499  -0.332   6.416   9.668 -0.1987 -1.3752 -1.3262
   21CHL1  H15B 1500  -0.312   6.595   9.635  0.6882  0.2654 -2.7060
   21CHL1   C16 1501  -0.244   6.476   9.480 -0.3359  0.1991 -0.1380
   21CHL1  H16A 1502  -0.286   6.377   9.451 -1.1821  1.1761 -2.5519
   21CHL1  H16B 1503  -0.300   6.544   9.412 -0.5682  2.8499  2.5398
   21CHL1   C17 1504  -0.098   6.467   9.455  0.1455 -0.9003 -0.4114
   21CHL1   H17 1505  -0.076   6.573   9.432 -1.5047 -0.8949 -2.1413
   21CHL1   C13 1506  -0.034   6.430   9.595 -0.0108  0.2406  1.2319
   21CHL1   C18 1507  -0.058   6.277   9.607 -0.2262 -0.7916 -0.6476
   21CHL1  H18A 1508   0.015   6.229   9.538  2.2000 -0.8382  1.7663
   21CHL1  H18B 1509  -0.047   6.244   9.713 -1.6656  1.4805  0.2922
   21CHL1  H18C 1510  -0.158   6.242   9.575  0.3544 -2.5517 -0.6504
   21CHL1   C12 1511   0.108   6.482   9.628  0.0718 -0.3949 -0.5916
   21CHL1  H12A 1512   0.183   6.427   9.567 -2.1520 -2.1563 -1.8909
   21CHL1  H12B 1513   0.099   6.592   9.612 -1.6176 -0.4358 -0.1410
   21CHL1   C11 1514   0.142   6.446   9.771 -0.9547  0.2216 -0.5751
   21CHL1  H11A 1515   0.143   6.335   9.773 -1.1267  0.1490 -2.6675
   21CHL1  H11B 1516   0.245   6.481   9.797 -1.8501  0.6437  2.8661
   21CHL1    C9 1517   0.045   6.503   9.872 -0.1377  0.1119  0.5088
   21CHL1    H9 1518   0.051   6.613   9.863 -1.1736  0.0531 -1.6095
   21CHL1   C10 1519   0.074   6.470  10.023 -0.4806  0.1101 -0.3349
   21CHL1   C19 1520   0.088   6.317  10.038  0.1630  0.1742  0.2301
   21CHL1  H19A 1521   0.174   6.277   9.980 -0.8441 -1.6920 -0.0359
   21CHL1  H19B 1522   0.109   6.280  10.140 -0.2363  0.3924  0.3961
   21CHL1  H19C 1523  -0.001   6.262   9.999  1.7815 -1.1860 -1.7110
   21CHL1    C1 1524   0.204   6.551  10.069  0.2560  0.7930 -0.1564
   21CHL1   H1A 1525   0.287   6.522  10.000  0.2153 -0.7288  0.3905
   21CHL1   H1B 1526   0.182   6.657  10.047 -1.9743  0.1788 -1.2090
   21CHL1    C2 1527   0.231   6.530  10.221  0.2118 -0.5464 -0.9484
   21CHL1   H2A 1528   0.322   6.591  10.238  1.1730 -1.7517 -1.6089
   21CHL1   H2B 1529   0.249   6.423  10.247  1.6361 -0.2106 -0.4933
   21CHL1   C20 1530  -0.056   6.384   9.329 -0.5332 -0.2471  0.6888
   21CHL1   H20 1531  -0.061   6.276   9.356  0.1979 -0.8062 -1.2180
   21CHL1   C21 1532   0.088   6.410   9.283 -0.1437  0.1842  0.3914
   21CHL1  H21A 1533   0.122   6.340   9.204 -0.6435  0.0511  0.2919
   21CHL1  H21B 1534   0.164   6.396   9.363 -1.2799 -0.2113  1.4460
   21CHL1  H21C 1535   0.104   6.514   9.248  1.0977  0.6426  2.1860
   21CHL1   C22 1536  -0.146   6.410   9.203 -0.3154 -0.1504  0.0350
   21CHL1  H22A 1537  -0.250   6.389   9.234  0.3464 -1.7023  1.3668
   21CHL1  H22B 1538  -0.131   6.513   9.165 -1.4392  0.1925  0.4948
   21CHL1   C23 1539  -0.116   6.323   9.082  0.3898 -0.2507 -0.0745
   21CHL1  H23A 1540  -0.013   6.346   9.048  0.1686  2.5509  0.8882
   21CHL1  H23B 1541  -0.124   6.214   9.100  0.5512 -0.2148  0.2153
   21CHL1   C24 1542  -0.217   6.342   8.971 -0.0531  0.0457  0.2301
   21CHL1  H24A 1543  -0.322   6.336   9.004 -0.5271 -1.6995 -1.4414
   21CHL1  H24B 1544  -0.194   6.440   8.922 -1.2145  0.1700 -0.0843
   21CHL1   C25 1545  -0.211   6.231   8.862 -0.4620 -0.5592 -0.8340
   21CHL1   H25 1546  -0.215   6.141   8.926  0.3571 -0.3057 -0.4096
   21CHL1   C26 1547  -0.327   6.243   8.762  0.2677 -0.3798  0.3687
   21CHL1  H26A 1548  -0.320   6.345   8.717 -2.2158 -0.1307  0.4015
   21CHL1  H26B 1549  -0.315   6.166   8.682 -3.3753 -0.0545 -0.6734
   21CHL1  H26C 1550  -0.425   6.231   8.812  1.0971 -1.8802  1.7226
   21CHL1   C27 1551  -0.074   6.236   8.791 -0.9929 -0.6381 -0.9743
   21CHL1  H27A 1552  -0.056   6.324   8.725  0.9414  0.2309  0.5995
   21CHL1  H27B 1553   0.013   6.252   8.859 -0.6828  2.2270 -1.8999
   21CHL1  H27C 1554  -0.043   6.139   8.747  2.3116 -0.8615  1.4179
   22CHL1    C3 1555   4.336   1.152   9.963 -0.2432  0.4246  0.5505
   22CHL1    H3 1556   4.296   1.049   9.949 -0.2287  0.6155 -1.0354
   22CHL1    O3 1557   4.318   1.202  10.096 -0.1634  0.2646  0.2290
   22CHL1   H3' 1558   4.324   1.129  10.158  3.4031  0.5338  0.3751
   22CHL1    C4 1559   4.486   1.123   9.944  0.2665 -0.0417  0.0638
   22CHL1   H4A 1560   4.539   1.218   9.968 -0.5353 -0.1864  2.7175
   22CHL1   H4B 1561   4.513   1.053  10.027  0.6670  0.3078  0.2310
   22CHL1    C5 1562   4.517   1.063   9.804  0.0566  0.1944 -0.9009
   22CHL1    C6 1563   4.572   0.938   9.789 -0.2044  0.2838  0.0915
   22CHL1    H6 1564   4.603   0.888   9.882 -0.2167 -0.3622 -0.2411
   22CHL1    C7 1565   4.614   0.879   9.659  0.6335 -0.2854  0.3200
   22CHL1   H7A 1566   4.713   0.829   9.657  0.3358 -1.1512 -4.3610
   22CHL1   H7B 1567   4.544   0.796   9.638 -0.8878  1.0477 -0.1729
   22CHL1    C8 1568   4.600   0.985   9.545  0.2029  0.0836  0.4952
   22CHL1    H8 1569   4.690   1.050   9.549  0.2643 -0.0565  2.0637
   22CHL1   C14 1570   4.616   0.916   9.413 -0.2830  0.3603  0.8546
   22CHL1   H14 1571   4.535   0.842   9.399  0.1539  0.2414 -1.6612
   22CHL1   C15 1572   4.745   0.830   9.389 -0.0101  0.7751  0.3581
   22CHL1  H15A 1573   4.839   0.875   9.427  0.2404  0.2086  0.4076
   22CHL1  H15B 1574   4.741   0.729   9.435  0.1258  1.9812  3.2640
   22CHL1   C16 1575   4.755   0.819   9.231  0.6899 -0.7289  0.3330
   22CHL1  H16A 1576   4.857   0.857   9.211  1.2782 -0.4520  3.4026
   22CHL1  H16B 1577   4.736   0.713   9.204  0.2989 -0.7433  0.6471
   22CHL1   C17 1578   4.634   0.909   9.179 -0.2267  0.1595 -1.1169
   22CHL1   H17 1579   4.546   0.842   9.171 -1.5160  1.7036 -0.3056
   22CHL1   C13 1580   4.606   1.006   9.295  0.4561  0.2544 -0.1772
   22CHL1   C18 1581   4.715   1.116   9.283  1.0075  0.0663 -0.4451
   22CHL1  H18A 1582   4.818   1.075   9.283  1.7388  1.7335  1.1396
   22CHL1  H18B 1583   4.703   1.180   9.193  1.4628 -1.3254 -1.5160
   22CHL1  H18C 1584   4.713   1.184   9.371  0.8701 -0.7676  0.2070
   22CHL1   C12 1585   4.464   1.070   9.300  0.2105  0.4259  0.3816
   22CHL1  H12A 1586   4.441   1.127   9.207 -2.9798 -1.5639 -0.2142
   22CHL1  H12B 1587   4.388   0.990   9.309 -1.1118  1.6105  0.1212
   22CHL1   C11 1588   4.441   1.152   9.428  0.9612 -0.4616 -0.2845
   22CHL1  H11A 1589   4.504   1.243   9.431 -2.2819  2.1364 -2.6424
   22CHL1  H11B 1590   4.334   1.182   9.434  0.8201 -1.0427  0.1782
   22CHL1    C9 1591   4.473   1.066   9.559  0.5235  0.3698  0.3296
   22CHL1    H9 1592   4.393   0.990   9.556 -0.4238  1.3575 -1.0738
   22CHL1   C10 1593   4.458   1.149   9.692  0.7623  0.2262  0.2412
   22CHL1   C19 1594   4.535   1.285   9.681 -0.7076  0.7530  0.4302
   22CHL1  H19A 1595   4.640   1.279   9.644 -0.7872  3.1217 -0.4029
   22CHL1  H19B 1596   4.481   1.346   9.605 -0.3445  0.7474  0.1639
   22CHL1  H19C 1597   4.549   1.341   9.776  0.8532 -1.0131  1.3030
   22CHL1    C1 1598   4.312   1.184   9.723  0.1402 -0.3189 -0.0185
   22CHL1   H1A 1599   4.266   1.248   9.644  1.0549  0.5794  0.1534
   22CHL1   H1B 1600   4.251   1.092   9.711 -1.4166  0.5436  0.9565
   22CHL1    C2 1601   4.283   1.246   9.863  0.4952  0.1325  0.7496
   22CHL1   H2A 1602   4.176   1.266   9.885  0.9764  1.8427  1.7433
   22CHL1   H2B 1603   4.336   1.343   9.873  1.7629 -0.2426 -1.6510
   22CHL1   C20 1604   4.667   0.959   9.038  0.0286 -0.0574  0.7450
   22CHL1   H20 1605   4.757   1.024   9.039 -0.4973  0.8359 -1.9333
   22CHL1   C21 1606   4.547   1.040   8.989 -0.2372 -0.3477 -0.0724
   22CHL1  H21A 1607   4.545   1.060   8.880 -3.2497 -2.7260 -0.5763
   22CHL1  H21B 1608   4.533   1.141   9.033 -2.4232 -0.1012 -1.1790
   22CHL1  H21C 1609   4.458   0.977   9.009  0.5627 -1.0623  1.4213
   22CHL1   C22 1610   4.708   0.854   8.934  0.8489  0.4862 -0.3396
   22CHL1  H22A 1611   4.733   0.908   8.840  0.7467  0.1011 -0.5882
   22CHL1  H22B 1612   4.803   0.809   8.970  0.8167  0.3691 -0.4049
   22CHL1   C23 1613   4.608   0.747   8.890  0.0508 -0.2396 -0.6559
   22CHL1  H23A 1614   4.577   0.695   8.983 -2.1559 -3.2910 -2.8729
   22CHL1  H23B 1615   4.519   0.802   8.851  0.3315  1.8184  1.3803
   22CHL1   C24 1616   4.647   0.650   8.785 -0.6435  0.2793  0.1407
   22CHL1  H24A 1617   4.572   0.568   8.793  0.6076 -0.8156  1.1178
   22CHL1  H24B 1618   4.640   0.693   8.683  0.7317  1.4763  0.5281
   22CHL1   C25 1619   4.782   0.590   8.816  0.4072 -0.5347  0.0674
   22CHL1   H25 1620   4.863   0.666   8.820 -1.0005  0.9451  2.0464
   22CHL1   C26 1621   4.787   0.516   8.950 -1.0130  0.2025  0.4689
   22CHL1  H26A 1622   4.723   0.424   8.953 -0.0064 -0.5135  0.4188
   22CHL1  H26B 1623   4.890   0.475   8.954 -1.9351 -2.4493 -0.6068
   22CHL1  H26C 1624   4.765   0.584   9.035  0.8301  1.5989 -0.1275
   22CHL1   C27 1625   4.824   0.494   8.703 -0.4741 -0.1868 -0.3297
   22CHL1  H27A 1626   4.781   0.530   8.607 -0.0023  0.2193 -0.3943
   22CHL1  H27B 1627   4.934   0.508   8.692 -0.3353  0.2150  1.2353
   22CHL1  H27C 1628   4.789   0.392   8.727 -1.0013  0.1474  0.3430
   23CHL1    C3 1629   1.589   2.814  10.183  0.1948  0.6879 -0.0852
   23CHL1    H3 1630   1.554   2.914  10.150  1.4829  0.8957 -0.9176
   23CHL1    O3 1631   1.636   2.804  10.320  0.5612 -0.1232 -0.4280
   23CHL1   H3' 1632   1.687   2.722  10.326  1.3526  0.4431  1.0178
   23CHL1    C4 1633   1.471   2.717  10.161 -0.2553  0.5405 -0.1759
   23CHL1   H4A 1634   1.502   2.616  10.194 -0.1893  0.1109 -1.4809
   23CHL1   H4B 1635   1.387   2.747  10.226 -1.4828 -1.8749 -0.5503
   23CHL1    C5 1636   1.431   2.706  10.017  0.4900  1.2066 -0.2132
   23CHL1    C6 1637   1.308   2.737   9.978  0.1529  0.1874 -0.3908
   23CHL1    H6 1638   1.236   2.769  10.055  2.3930  1.4878  1.2457
   23CHL1    C7 1639   1.250   2.718   9.843  0.0496 -0.0469 -0.4038
   23CHL1   H7A 1640   1.152   2.667   9.844 -0.2490  0.4237  2.8381
   23CHL1   H7B 1641   1.231   2.818   9.799 -0.0783  0.2474  0.3125
   23CHL1    C8 1642   1.346   2.636   9.749 -0.2542  0.3565  0.0766
   23CHL1    H8 1643   1.339   2.528   9.774 -2.0223  0.6005  0.7783
   23CHL1   C14 1644   1.303   2.647   9.612  0.9905  0.5812 -0.2918
   23CHL1   H14 1645   1.327   2.749   9.578 -0.8021  0.6586 -1.4309
   23CHL1   C15 1646   1.155   2.639   9.582  0.0677 -0.3569 -0.8007
   23CHL1  H15A 1647   1.112   2.559   9.645 -1.1289  0.4020 -0.6295
   23CHL1  H15B 1648   1.109   2.736   9.611 -1.1480 -0.7596 -1.3575
   23CHL1   C16 1649   1.140   2.594   9.427 -0.3836  0.3630 -0.1959
   23CHL1  H16A 1650   1.074   2.505   9.418 -0.6496  0.7311 -2.6453
   23CHL1  H16B 1651   1.089   2.673   9.368  0.5264  2.3745  1.5871
   23CHL1   C17 1652   1.291   2.582   9.382  0.5544  0.2927  0.4625
   23CHL1   H17 1653   1.308   2.683   9.340  0.9164 -0.7288 -2.0724
   23CHL1   C13 1654   1.370   2.556   9.511 -0.1963  0.6098 -0.8168
   23CHL1   C18 1655   1.353   2.405   9.547 -0.1976 -0.2038 -0.6088
   23CHL1  H18A 1656   1.427   2.356   9.480 -0.8547  1.0416 -2.3030
   23CHL1  H18B 1657   1.382   2.381   9.652  2.1370  0.3057 -1.0822
   23CHL1  H18C 1658   1.248   2.377   9.525 -0.4411  0.3860 -0.2046
   23CHL1   C12 1659   1.516   2.602   9.515  0.6274  0.2575 -0.8110
   23CHL1  H12A 1660   1.580   2.539   9.450  1.4007  0.2398 -0.0405
   23CHL1  H12B 1661   1.516   2.710   9.490 -0.9312  0.6032  0.4560
   23CHL1   C11 1662   1.578   2.594   9.660 -0.4060 -0.0612 -0.2745
   23CHL1  H11A 1663   1.583   2.488   9.694 -0.9418 -0.2251 -0.6958
   23CHL1  H11B 1664   1.683   2.632   9.664 -1.0760  1.7591  1.5907
   23CHL1    C9 1665   1.491   2.678   9.765  0.0294  0.1123 -0.4795
   23CHL1    H9 1666   1.496   2.782   9.725 -3.0278  0.0073 -1.4130
   23CHL1   C10 1667   1.539   2.673   9.917 -0.5024  0.4507  0.3203
   23CHL1   C19 1668   1.581   2.521   9.944 -0.2638  0.0835  0.1946
   23CHL1  H19A 1669   1.612   2.504  10.049  0.7740 -0.3995 -0.1811
   23CHL1  H19B 1670   1.498   2.456   9.909  0.0032 -0.6676  0.9361
   23CHL1  H19C 1671   1.673   2.518   9.882 -0.0513  1.8691  0.3832
   23CHL1    C1 1672   1.660   2.773   9.939  0.2769  1.0387  0.2174
   23CHL1   H1A 1673   1.747   2.754   9.873 -0.1580 -1.0463  0.1819
   23CHL1   H1B 1674   1.623   2.875   9.916 -1.8208  0.4686  0.8087
   23CHL1    C2 1675   1.709   2.780  10.085  0.2043 -0.8228  1.2952
   23CHL1   H2A 1676   1.780   2.865  10.094 -0.1462 -0.5644  1.6621
   23CHL1   H2B 1677   1.753   2.680  10.107  2.3392 -0.1039  0.4993
   23CHL1   C20 1678   1.301   2.478   9.258 -0.5538  0.1046  0.1263
   23CHL1   H20 1679   1.270   2.377   9.293 -1.4566  0.5821  0.7491
   23CHL1   C21 1680   1.445   2.458   9.213 -0.1262 -0.6434 -0.3277
   23CHL1  H21A 1681   1.492   2.556   9.193 -0.4313 -0.5510 -0.5984
   23CHL1  H21B 1682   1.448   2.395   9.122  3.7338 -0.7463 -0.3036
   23CHL1  H21C 1683   1.497   2.402   9.294 -1.2358 -1.5904 -0.2440
   23CHL1   C22 1684   1.210   2.513   9.140  0.1979 -0.3097 -0.0917
   23CHL1  H22A 1685   1.214   2.430   9.066  0.9379  0.2365 -0.6754
   23CHL1  H22B 1686   1.107   2.525   9.180 -0.8976 -0.4551 -2.7169
   23CHL1   C23 1687   1.243   2.649   9.073 -0.1616 -0.2133  0.2055
   23CHL1  H23A 1688   1.246   2.729   9.151 -2.1357 -0.8435  0.9952
   23CHL1  H23B 1689   1.342   2.631   9.028 -0.3608  0.6148 -0.5980
   23CHL1   C24 1690   1.144   2.674   8.954 -0.2828 -0.4264 -0.1168
   23CHL1  H24A 1691   1.189   2.625   8.865  1.8763 -1.0272  1.2426
   23CHL1  H24B 1692   1.044   2.629   8.971 -0.3880 -0.8689 -1.7599
   23CHL1   C25 1693   1.115   2.825   8.921  0.4372  0.2200 -0.4515
   23CHL1   H25 1694   1.080   2.875   9.014 -0.5366 -3.4440  1.3262
   23CHL1   C26 1695   1.244   2.895   8.861 -0.2496  0.1080 -0.1194
   23CHL1  H26A 1696   1.294   2.827   8.790  2.9700  1.3247  0.8148
   23CHL1  H26B 1697   1.235   2.999   8.822  1.6598 -0.0671 -1.1237
   23CHL1  H26C 1698   1.308   2.902   8.952 -0.4352 -1.6213  0.1661
   23CHL1   C27 1699   1.003   2.844   8.816  0.1164 -0.0666  0.7659
   23CHL1  H27A 1700   1.032   2.797   8.720 -0.7104  3.0434 -1.1379
   23CHL1  H27B 1701   0.917   2.777   8.841  1.3660 -2.0043  0.0524
   23CHL1  H27C 1702   0.962   2.946   8.800 -2.1803 -1.0674 -0.3479
   24CHL1    C3 1703   4.914   2.875  10.200  0.1129 -0.1035  0.3856
   24CHL1    H3 1704   4.806   2.901  10.199  0.4349  1.3812  0.5506
   24CHL1    O3 1705   4.939   2.828  10.332  0.3289 -0.5127  0.2476
   24CHL1   H3' 1706   4.992   2.748  10.326 -0.5840 -1.1285  0.1340
   24CHL1    C4 1707   4.944   2.761  10.108  0.1143  0.4967 -0.8363
   24CHL1   H4A 1708   5.042   2.727  10.149 -0.5010  1.2822  1.4332
   24CHL1   H4B 1709   4.867   2.683  10.124 -1.7871  2.6092  0.8593
   24CHL1    C5 1710   4.949   2.789   9.964 -0.0422 -0.1657  0.9472
   24CHL1    C6 1711   4.866   2.720   9.875 -0.1307  0.2085  0.4044
   24CHL1    H6 1712   4.809   2.633   9.913 -0.3034  0.2059  0.1396
   24CHL1    C7 1713   4.866   2.753   9.732 -0.0480  0.1269  0.3327
   24CHL1   H7A 1714   4.853   2.666   9.664 -1.7842  1.2804 -0.9173
   24CHL1   H7B 1715   4.773   2.813   9.722 -1.0626 -0.9712  2.4646
   24CHL1    C8 1716   4.981   2.840   9.673 -0.0111  0.1479  0.4748
   24CHL1    H8 1717   5.075   2.783   9.662  0.9025  1.8018 -0.9191
   24CHL1   C14 1718   4.946   2.900   9.538 -0.1096  0.3299  0.0410
   24CHL1   H14 1719   4.857   2.964   9.556 -0.0004  0.3206  0.6269
   24CHL1   C15 1720   4.910   2.805   9.419  0.3181 -0.8285 -0.0406
   24CHL1  H15A 1721   4.981   2.720   9.428  1.6551  0.3974  1.7688
   24CHL1  H15B 1722   4.805   2.769   9.425  0.2548 -0.4159  2.2013
   24CHL1   C16 1723   4.930   2.891   9.293  0.3922  0.6823 -0.2598
   24CHL1  H16A 1724   5.008   2.848   9.227 -0.3150 -0.0066 -0.6670
   24CHL1  H16B 1725   4.834   2.899   9.238  0.3720 -2.3262 -0.8356
   24CHL1   C17 1726   4.979   3.034   9.342  0.2981 -0.8300 -0.7620
   24CHL1   H17 1727   4.893   3.099   9.367  1.8537  0.0184  3.1840
   24CHL1   C13 1728   5.047   3.002   9.479 -0.6858  0.0576  0.1364
   24CHL1   C18 1729   5.187   2.933   9.460  0.2025  0.0265  0.0964
   24CHL1  H18A 1730   5.176   2.854   9.383 -3.0790 -1.1198  1.5437
   24CHL1  H18B 1731   5.258   3.014   9.433  0.7545 -0.0685  1.1968
   24CHL1  H18C 1732   5.224   2.899   9.559 -1.9287  0.5272  1.1257
   24CHL1   C12 1733   5.056   3.114   9.588  0.4235 -0.1736 -0.4619
   24CHL1  H12A 1734   5.125   3.187   9.540  4.1317 -3.7868 -1.1838
   24CHL1  H12B 1735   4.959   3.161   9.616  1.9742  2.3859  0.9956
   24CHL1   C11 1736   5.107   3.063   9.726 -0.2417  0.0758 -0.1586
   24CHL1  H11A 1737   5.212   3.031   9.712 -0.6343 -0.3998 -2.4863
   24CHL1  H11B 1738   5.110   3.140   9.806  2.8416  0.1249 -0.2262
   24CHL1    C9 1739   5.009   2.953   9.774 -0.0204 -0.7202 -0.3195
   24CHL1    H9 1740   4.908   2.998   9.779 -0.3502 -1.2381 -1.8534
   24CHL1   C10 1741   5.037   2.910   9.923 -0.0885  0.0254 -0.1016
   24CHL1   C19 1742   5.186   2.858   9.924 -0.2669 -0.6474 -0.0383
   24CHL1  H19A 1743   5.204   2.788   9.840 -0.8096  0.4703 -1.1078
   24CHL1  H19B 1744   5.254   2.943   9.903  0.5266 -1.6289 -1.5981
   24CHL1  H19C 1745   5.231   2.816  10.017  0.2667 -1.9984 -0.8814
   24CHL1    C1 1746   5.003   3.024  10.028 -0.2416  0.2197  0.6913
   24CHL1   H1A 1747   5.074   3.107  10.007 -0.5268  0.7273  1.6960
   24CHL1   H1B 1748   4.910   3.077  10.000 -0.9799 -1.2720  0.2408
   24CHL1    C2 1749   5.001   2.999  10.178  0.1008  0.1272 -0.2198
   24CHL1   H2A 1750   4.961   3.070  10.253 -1.3410 -2.0638  1.2078
   24CHL1   H2B 1751   5.102   2.965  10.212 -0.3749  1.3141  2.6224
   24CHL1   C20 1752   5.071   3.103   9.232  0.1007  0.4721 -0.0678
   24CHL1   H20 1753   5.155   3.037   9.202 -1.1347 -0.8470 -0.7439
   24CHL1   C21 1754   5.139   3.226   9.294  1.4525  0.7933  0.0546
   24CHL1  H21A 1755   5.182   3.287   9.212  2.8571 -1.6712 -1.1823
   24CHL1  H21B 1756   5.218   3.186   9.361  1.3608  1.7529  0.7386
   24CHL1  H21C 1757   5.065   3.290   9.347  2.0683  1.3206  0.2834
   24CHL1   C22 1758   4.987   3.138   9.104 -1.2515 -0.0813 -0.0161
   24CHL1  H22A 1759   4.928   3.049   9.075 -1.4324  0.5184 -1.5685
   24CHL1  H22B 1760   4.917   3.221   9.127 -1.2283 -0.2668  0.7333
   24CHL1   C23 1761   5.075   3.168   8.982 -1.0286 -0.1732 -0.3387
   24CHL1  H23A 1762   5.017   3.230   8.910 -2.9505  0.9274  1.9845
   24CHL1  H23B 1763   5.166   3.223   9.016 -0.4720 -1.0216 -0.4516
   24CHL1   C24 1764   5.148   3.042   8.933 -0.1174  0.8279 -0.3197
   24CHL1  H24A 1765   5.205   2.995   9.016  0.6591  3.0919  0.5162
   24CHL1  H24B 1766   5.082   2.965   8.888  0.0038  1.3227 -1.3619
   24CHL1   C25 1767   5.260   3.071   8.829 -0.0732  0.2850 -0.8534
   24CHL1   H25 1768   5.330   3.146   8.872  1.1385 -0.8260 -0.8031
   24CHL1   C26 1769   5.345   2.941   8.803  0.3287 -0.2955  0.5522
   24CHL1  H26A 1770   5.417   2.923   8.885  2.2021 -1.8901 -1.3219
   24CHL1  H26B 1771   5.272   2.860   8.782  0.3206  0.1472 -1.3203
   24CHL1  H26C 1772   5.413   2.946   8.716  0.7844 -0.6997  0.8792
   24CHL1   C27 1773   5.201   3.130   8.700  0.0785 -0.2608 -0.3999
   24CHL1  H27A 1774   5.276   3.147   8.621  0.7947  0.0878  0.3451
   24CHL1  H27B 1775   5.116   3.071   8.660 -1.3603  2.1492 -1.1032
   24CHL1  H27C 1776   5.164   3.232   8.722  0.8199 -0.0459 -0.1497
   25CHL1    C3 1777   4.132   4.239  10.493 -1.0661 -0.3561  0.4224
   25CHL1    H3 1778   4.220   4.207  10.434 -1.1815  0.7337 -0.3661
   25CHL1    O3 1779   4.142   4.196  10.629  0.1801 -0.4271  0.2359
   25CHL1   H3' 1780   4.074   4.244  10.678 -1.9085 -1.1911 -1.7508
   25CHL1    C4 1781   4.134   4.389  10.493  0.3815 -0.7252 -0.4918
   25CHL1   H4A 1782   4.055   4.428  10.560  1.5791 -0.7234  0.9569
   25CHL1   H4B 1783   4.229   4.422  10.540  0.4597 -2.8531  0.9220
   25CHL1    C5 1784   4.132   4.443  10.349  0.1050 -0.4683  0.4222
   25CHL1    C6 1785   4.230   4.527  10.297 -0.2030 -0.8431 -0.0853
   25CHL1    H6 1786   4.314   4.557  10.361 -1.3876  1.1970  0.5998
   25CHL1    C7 1787   4.222   4.564  10.151 -1.2542  0.1602 -0.0319
   25CHL1   H7A 1788   4.240   4.673  10.141 -2.5196  0.3024 -0.8910
   25CHL1   H7B 1789   4.309   4.522  10.095 -2.3723 -0.7494 -1.1341
   25CHL1    C8 1790   4.086   4.547  10.074 -0.5028  0.1677 -0.5782
   25CHL1    H8 1791   4.023   4.631  10.112  2.8010  2.8936 -0.6814
   25CHL1   C14 1792   4.107   4.563   9.923 -0.2686 -0.3466 -0.2271
   25CHL1   H14 1793   4.173   4.479   9.893  0.0440  0.5454 -2.2276
   25CHL1   C15 1794   4.186   4.686   9.883  0.2398 -0.5015 -0.3146
   25CHL1  H15A 1795   4.145   4.782   9.921 -1.9981 -1.6947  0.5035
   25CHL1  H15B 1796   4.292   4.686   9.916  0.7958  2.3484 -1.7604
   25CHL1   C16 1797   4.179   4.678   9.728  0.6492 -0.7753 -0.0582
   25CHL1  H16A 1798   4.160   4.776   9.680  0.8459  0.2305  1.8195
   25CHL1  H16B 1799   4.272   4.626   9.696 -1.3534 -3.2947 -2.2113
   25CHL1   C17 1800   4.064   4.576   9.701  0.4794  0.3432  0.1241
   25CHL1   H17 1801   4.113   4.479   9.677 -2.0281 -0.8333 -0.5409
   25CHL1   C13 1802   3.985   4.551   9.834  0.5521  0.2663  0.4218
   25CHL1   C18 1803   3.894   4.672   9.871 -0.4379  0.5546 -0.0101
   25CHL1  H18A 1804   3.945   4.767   9.845  0.5806 -0.4659 -1.9459
   25CHL1  H18B 1805   3.805   4.668   9.804  0.8399 -1.3988 -1.7003
   25CHL1  H18C 1806   3.841   4.666   9.968  0.7084 -1.5100  0.5381
   25CHL1   C12 1807   3.932   4.401   9.860  0.1737 -0.4708 -0.0621
   25CHL1  H12A 1808   3.842   4.369   9.803  1.7220 -2.1548 -1.7099
   25CHL1  H12B 1809   4.017   4.331   9.847 -0.4168 -0.8285 -2.6959
   25CHL1   C11 1810   3.902   4.382  10.011  1.1056  0.5371 -0.1584
   25CHL1  H11A 1811   3.820   4.452  10.038  1.5410  1.3876 -0.9760
   25CHL1  H11B 1812   3.869   4.278  10.035 -2.4676  1.5493 -0.1626
   25CHL1    C9 1813   4.027   4.413  10.108  0.1803 -0.4812 -0.5525
   25CHL1    H9 1814   4.101   4.334  10.079  0.9416 -0.4029  1.0819
   25CHL1   C10 1815   4.012   4.390  10.264  0.5766  0.2732 -0.4647
   25CHL1   C19 1816   3.894   4.468  10.323  0.4312 -0.0575 -0.0644
   25CHL1  H19A 1817   3.890   4.446  10.432  0.4881 -0.1470 -0.0802
   25CHL1  H19B 1818   3.899   4.573  10.287 -1.2456 -0.3111 -1.1338
   25CHL1  H19C 1819   3.805   4.419  10.279  0.2115  0.9212 -0.7321
   25CHL1    C1 1820   3.984   4.232  10.294  0.5299  0.1978 -0.4063
   25CHL1   H1A 1821   3.882   4.211  10.255  1.0679 -2.2236 -0.7030
   25CHL1   H1B 1822   4.050   4.170  10.228 -0.9706 -0.5926 -1.2052
   25CHL1    C2 1823   4.005   4.197  10.438 -0.9577 -0.0679 -0.6719
   25CHL1   H2A 1824   3.990   4.088  10.455 -1.0118  0.0199 -0.1247
   25CHL1   H2B 1825   3.933   4.245  10.507 -0.6982 -1.1969  0.4106
   25CHL1   C20 1826   3.980   4.596   9.576 -0.1893  0.1570  0.1911
   25CHL1   H20 1827   3.923   4.691   9.586 -1.5791 -0.7619  1.4974
   25CHL1   C21 1828   3.871   4.491   9.574  0.2057  0.0625  0.2133
   25CHL1  H21A 1829   3.905   4.385   9.583 -1.4411 -0.8175 -2.5589
   25CHL1  H21B 1830   3.809   4.495   9.482 -0.2996 -1.7783  0.4194
   25CHL1  H21C 1831   3.801   4.510   9.658 -0.3037  0.9836 -0.4120
   25CHL1   C22 1832   4.061   4.603   9.446  0.3680  0.3047  0.5375
   25CHL1  H22A 1833   4.143   4.675   9.467 -0.2985  1.1982  0.1116
   25CHL1  H22B 1834   4.108   4.507   9.414  0.3479 -0.1613  1.8451
   25CHL1   C23 1835   3.988   4.660   9.324 -0.5692 -0.2719 -0.4803
   25CHL1  H23A 1836   3.898   4.597   9.308  0.2547 -1.5225 -0.3481
   25CHL1  H23B 1837   3.965   4.762   9.362  0.3724 -0.9110  2.0030
   25CHL1   C24 1838   4.072   4.659   9.191  0.5009 -0.2307 -0.5162
   25CHL1  H24A 1839   4.146   4.741   9.206  1.1659 -1.0580  0.9888
   25CHL1  H24B 1840   4.137   4.569   9.187 -1.2300 -1.5284 -0.5287
   25CHL1   C25 1841   4.000   4.665   9.064  0.1613 -0.5402  0.3304
   25CHL1   H25 1842   3.932   4.579   9.042 -0.9867  0.3760  0.1757
   25CHL1   C26 1843   3.904   4.789   9.071  0.1216  0.4440 -0.1643
   25CHL1  H26A 1844   3.812   4.764   9.128  1.2383 -2.5810  0.4893
   25CHL1  H26B 1845   3.943   4.879   9.124 -3.7082  2.5469 -0.5394
   25CHL1  H26C 1846   3.875   4.809   8.966 -1.6115  0.4303  0.2837
   25CHL1   C27 1847   4.098   4.677   8.951 -0.2290 -0.4107  0.0767
   25CHL1  H27A 1848   4.143   4.778   8.946 -0.2279 -0.3537  1.0240
   25CHL1  H27B 1849   4.179   4.606   8.979  0.6284  0.1841 -0.8270
   25CHL1  H27C 1850   4.054   4.642   8.856  0.3709 -0.1396 -0.3102
   26CHL1    C3 1851   4.809   0.546  10.188  0.4796  0.7088 -0.0149
   26CHL1    H3 1852   4.911   0.503  10.204 -0.5464 -1.0578  2.5076
   26CHL1    O3 1853   4.760   0.614  10.303  0.5597  0.3156 -0.1567
   26CHL1   H3' 1854   4.674   0.651  10.279  0.9035  1.2397 -0.0059
   26CHL1    C4 1855   4.814   0.644  10.072 -0.7116 -0.7264 -0.2776
   26CHL1   H4A 1856   4.713   0.690  10.069 -0.7447 -0.8212 -0.7327
   26CHL1   H4B 1857   4.885   0.725  10.100 -1.0932 -0.8048  0.9425
   26CHL1    C5 1858   4.849   0.593   9.937 -0.1344  0.2918  0.1214
   26CHL1    C6 1859   4.943   0.635   9.848  0.5571  0.4551  0.7569
   26CHL1    H6 1860   5.002   0.722   9.882  1.4389  0.4334 -0.6409
   26CHL1    C7 1861   4.969   0.579   9.712 -0.6244 -0.6848  0.1042
   26CHL1   H7A 1862   4.997   0.665   9.648 -1.7185 -1.6830 -1.7967
   26CHL1   H7B 1863   5.061   0.518   9.718 -0.8704 -0.9393  2.7086
   26CHL1    C8 1864   4.846   0.495   9.662 -0.9459 -0.3335 -0.0882
   26CHL1    H8 1865   4.764   0.568   9.640  0.5661  2.2108  2.1550
   26CHL1   C14 1866   4.886   0.413   9.539  0.2098 -0.1185 -0.1467
   26CHL1   H14 1867   4.966   0.347   9.580  2.2682  2.0488 -0.4542
   26CHL1   C15 1868   4.946   0.487   9.430  0.0077  0.0250 -0.0385
   26CHL1  H15A 1869   4.889   0.579   9.404  2.2423  1.1152 -1.3759
   26CHL1  H15B 1870   5.051   0.517   9.451  0.7558 -0.5064 -2.7093
   26CHL1   C16 1871   4.935   0.391   9.307 -0.2762  0.1227  0.6531
   26CHL1  H16A 1872   4.874   0.447   9.233 -2.1022 -0.3578  1.7406
   26CHL1  H16B 1873   5.037   0.359   9.276  1.1017  3.0786  1.6695
   26CHL1   C17 1874   4.850   0.271   9.357  0.3498 -0.0596 -0.8633
   26CHL1   H17 1875   4.914   0.191   9.400  0.0030 -0.0561 -0.3162
   26CHL1   C13 1876   4.772   0.330   9.487 -0.5749  0.3993  0.4052
   26CHL1   C18 1877   4.653   0.414   9.440 -0.5719  0.9337 -0.4469
   26CHL1  H18A 1878   4.583   0.351   9.381  0.8206  0.1115 -1.2433
   26CHL1  H18B 1879   4.599   0.453   9.530 -1.9963 -3.2494  0.7289
   26CHL1  H18C 1880   4.689   0.494   9.373  1.4028 -1.7226 -2.7721
   26CHL1   C12 1881   4.732   0.227   9.589  0.2780  0.7214  0.7713
   26CHL1  H12A 1882   4.649   0.165   9.551 -0.5913  1.7243  0.9953
   26CHL1  H12B 1883   4.819   0.159   9.600  1.4159  1.1623 -3.4229
   26CHL1   C11 1884   4.690   0.293   9.719 -0.0969  0.7507  0.4135
   26CHL1  H11A 1885   4.597   0.355   9.722 -0.1077  0.7066  1.6443
   26CHL1  H11B 1886   4.680   0.214   9.796  0.8214  0.9192  0.7187
   26CHL1    C9 1887   4.802   0.396   9.776  0.2929 -0.5113 -0.7590
   26CHL1    H9 1888   4.889   0.335   9.806  0.4011 -0.3186 -0.6844
   26CHL1   C10 1889   4.761   0.472   9.901 -0.5060 -0.1238  0.1475
   26CHL1   C19 1890   4.618   0.537   9.877  0.8615  0.0572 -0.6591
   26CHL1  H19A 1891   4.599   0.589   9.781 -0.1710 -1.4429 -1.3159
   26CHL1  H19B 1892   4.542   0.456   9.880  1.1602 -0.1780  1.2645
   26CHL1  H19C 1893   4.590   0.610   9.956  1.1712  0.4595 -0.9202
   26CHL1    C1 1894   4.758   0.374  10.024 -0.1722 -0.2385  0.1297
   26CHL1   H1A 1895   4.681   0.299   9.997  1.2144 -2.1539  1.2118
   26CHL1   H1B 1896   4.853   0.316  10.032  0.6523  0.8544 -1.2571
   26CHL1    C2 1897   4.713   0.434  10.154 -0.5502 -0.1548  0.1626
   26CHL1   H2A 1898   4.725   0.357  10.234  2.8416 -1.1637 -1.1447
   26CHL1   H2B 1899   4.607   0.466  10.148 -0.5808 -0.5436 -2.0554
   26CHL1   C20 1900   4.772   0.205   9.242  0.3375  0.1215  0.6865
   26CHL1   H20 1901   4.698   0.277   9.202 -1.2782 -1.4951  0.6560
   26CHL1   C21 1902   4.683   0.087   9.289  0.3268  0.2786 -0.0428
   26CHL1  H21A 1903   4.751   0.008   9.327 -0.4230 -0.5578 -0.4197
   26CHL1  H21B 1904   4.640   0.040   9.198 -0.0822  2.4674 -1.0393
   26CHL1  H21C 1905   4.605   0.120   9.362 -1.4615 -0.6928 -1.4354
   26CHL1   C22 1906   4.863   0.167   9.124 -0.6476  0.2038  0.6547
   26CHL1  H22A 1907   4.918   0.255   9.086  0.0768 -1.2006 -1.8289
   26CHL1  H22B 1908   4.943   0.094   9.151  0.1207  1.3910  1.6703
   26CHL1   C23 1909   4.799   0.120   8.993  0.2536  0.5147 -0.1131
   26CHL1  H23A 1910   4.759   0.018   9.009 -0.1383  0.8940  1.5313
   26CHL1  H23B 1911   4.718   0.190   8.963  0.8148  1.7793  1.2296
   26CHL1   C24 1912   4.904   0.124   8.879  0.0883 -0.0887  0.1809
   26CHL1  H24A 1913   4.953   0.224   8.873  2.3200 -1.2170 -3.1534
   26CHL1  H24B 1914   4.987   0.053   8.899 -0.6254 -0.6383  1.3118
   26CHL1   C25 1915   4.841   0.111   8.739 -0.4887 -0.6522  0.1222
   26CHL1   H25 1916   4.766   0.191   8.728  1.0465  0.7059 -0.9808
   26CHL1   C26 1917   4.949   0.147   8.631 -0.0731 -0.6593 -0.5443
   26CHL1  H26A 1918   4.966   0.257   8.620 -0.3479 -0.6533 -0.9365
   26CHL1  H26B 1919   5.050   0.104   8.649  0.2380 -0.2429 -1.2544
   26CHL1  H26C 1920   4.912   0.111   8.533 -2.0038  1.0440 -0.5141
   26CHL1   C27 1921   4.776  -0.027   8.711 -0.1361 -0.6318 -0.1761
   26CHL1  H27A 1922   4.689  -0.040   8.779 -1.5190  1.7185 -1.3726
   26CHL1  H27B 1923   4.726  -0.017   8.612 -2.9385 -1.1961  1.1033
   26CHL1  H27C 1924   4.845  -0.114   8.720  0.9874  0.3926  1.8822
   27CHL1    C3 1925   5.326   5.034  10.293 -1.0368 -0.3059  0.4697
   27CHL1    H3 1926   5.254   4.951  10.276  0.1349 -1.6145  1.7161
   27CHL1    O3 1927   5.366   5.063  10.428  0.2231  0.5052  0.6632
   27CHL1   H3' 1928   5.373   5.159  10.431 -0.0237  0.5133  1.1055
   27CHL1    C4 1929   5.456   4.993  10.221 -0.2754 -0.5144  0.8263
   27CHL1   H4A 1930   5.539   5.066  10.238 -1.3102  1.1207 -0.8386
   27CHL1   H4B 1931   5.508   4.905  10.263 -0.1601  0.1145  2.0497
   27CHL1    C5 1932   5.442   4.977  10.069  0.4915  0.0096 -0.2625
   27CHL1    C6 1933   5.470   4.860  10.000 -0.5536  1.0650  0.3254
   27CHL1    H6 1934   5.490   4.767  10.055 -2.5507  0.4036  0.0258
   27CHL1    C7 1935   5.452   4.859   9.846 -0.6808 -0.3598 -0.4102
   27CHL1   H7A 1936   5.531   4.803   9.790  0.0734  0.9479 -0.6970
   27CHL1   H7B 1937   5.358   4.803   9.831  0.5497 -2.5781 -0.2870
   27CHL1    C8 1938   5.432   4.993   9.777  0.1749  0.0188  0.5568
   27CHL1    H8 1939   5.528   5.049   9.772 -0.6422  1.3759 -3.5034
   27CHL1   C14 1940   5.385   4.968   9.633 -0.3983 -0.7794  0.7405
   27CHL1   H14 1941   5.289   4.912   9.631 -1.3738  0.8436 -0.3685
   27CHL1   C15 1942   5.487   4.886   9.548 -0.3228  0.1777 -0.6227
   27CHL1  H15A 1943   5.590   4.919   9.572  0.1722 -0.7782 -1.3966
   27CHL1  H15B 1944   5.484   4.776   9.562 -1.4610  0.2470 -0.1850
   27CHL1   C16 1945   5.455   4.925   9.400  0.0965 -1.0025 -0.2547
   27CHL1  H16A 1946   5.548   4.968   9.358 -0.0742  0.0248  0.3897
   27CHL1  H16B 1947   5.409   4.846   9.338 -0.4334 -1.1019  0.2552
   27CHL1   C17 1948   5.343   5.037   9.415 -0.0109 -0.2954 -0.2238
   27CHL1   H17 1949   5.248   4.982   9.426 -0.3330  0.3971  0.6358
   27CHL1   C13 1950   5.364   5.097   9.550  0.3140  0.1099 -0.2833
   27CHL1   C18 1951   5.490   5.180   9.531 -0.2160 -0.0337 -0.4078
   27CHL1  H18A 1952   5.569   5.133   9.469 -0.3276 -0.4676 -0.2266
   27CHL1  H18B 1953   5.455   5.271   9.477 -1.1074  0.0925  0.3513
   27CHL1  H18C 1954   5.531   5.211   9.630 -2.1294 -0.3250  0.5172
   27CHL1   C12 1955   5.252   5.177   9.626  0.1798  0.1866 -0.5124
   27CHL1  H12A 1956   5.225   5.269   9.570 -1.1780 -0.8967 -1.7049
   27CHL1  H12B 1957   5.153   5.127   9.628  0.5833 -0.6014  0.4540
   27CHL1   C11 1958   5.281   5.201   9.773  0.0202  0.7153 -0.7131
   27CHL1  H11A 1959   5.369   5.268   9.784  0.9091 -0.4231 -0.7297
   27CHL1  H11B 1960   5.184   5.241   9.811 -0.5346 -0.0252 -1.3169
   27CHL1    C9 1961   5.334   5.077   9.857  0.1196  0.4545  0.0419
   27CHL1    H9 1962   5.244   5.012   9.867 -0.3121  1.0765  0.2469
   27CHL1   C10 1963   5.381   5.107  10.005  0.6068  0.1586 -0.0249
   27CHL1   C19 1964   5.496   5.210  10.002 -0.2872  0.1785  0.0109
   27CHL1  H19A 1965   5.574   5.184   9.927 -0.1581 -0.0020  0.2085
   27CHL1  H19B 1966   5.461   5.308   9.963 -0.5406  0.7012  1.5143
   27CHL1  H19C 1967   5.545   5.236  10.098 -1.0587 -0.6040  0.6367
   27CHL1    C1 1968   5.255   5.158  10.081 -0.4192  0.3753 -0.0027
   27CHL1   H1A 1969   5.231   5.259  10.040 -1.1933 -0.0433 -0.6072
   27CHL1   H1B 1970   5.169   5.095  10.049 -0.5706  1.3796 -1.6876
   27CHL1    C2 1971   5.264   5.156  10.234  0.3389 -0.0766  0.1523
   27CHL1   H2A 1972   5.169   5.182  10.285  0.9525  0.1333  1.2276
   27CHL1   H2B 1973   5.317   5.253  10.248  0.0825  0.4790 -2.3449
   27CHL1   C20 1974   5.308   5.117   9.292 -0.3309  0.4572  0.7668
   27CHL1   H20 1975   5.371   5.208   9.296  1.6130 -0.8542  3.5685
   27CHL1   C21 1976   5.159   5.149   9.292 -0.2720 -0.6003  0.3615
   27CHL1  H21A 1977   5.131   5.212   9.204 -1.6975 -0.1881  1.0876
   27CHL1  H21B 1978   5.126   5.196   9.387  2.1038 -0.0061  0.9584
   27CHL1  H21C 1979   5.102   5.054   9.279  0.5664 -1.0974  0.2332
   27CHL1   C22 1980   5.348   5.049   9.157 -0.7840  0.4838 -0.1915
   27CHL1  H22A 1981   5.444   4.992   9.161 -1.6807 -1.6882 -4.1027
   27CHL1  H22B 1982   5.271   4.970   9.139  0.1633 -0.3006 -0.9343
   27CHL1   C23 1983   5.369   5.144   9.040  0.0258  0.5575 -0.9212
   27CHL1  H23A 1984   5.276   5.204   9.033  0.3130  1.0735 -0.4104
   27CHL1  H23B 1985   5.449   5.221   9.054 -0.7851  1.1548  0.7890
   27CHL1   C24 1986   5.385   5.074   8.904  0.0980 -0.2831  0.0223
   27CHL1  H24A 1987   5.449   4.984   8.912 -0.2841 -0.4887  0.9880
   27CHL1  H24B 1988   5.290   5.041   8.858  0.1656  0.6173 -0.7912
   27CHL1   C25 1989   5.452   5.172   8.800 -0.5244 -0.2287 -0.1758
   27CHL1   H25 1990   5.553   5.202   8.833  0.6987 -3.1717 -0.9176
   27CHL1   C26 1991   5.473   5.091   8.669 -0.0936 -0.4755 -0.0814
   27CHL1  H26A 1992   5.375   5.062   8.625 -0.8569 -0.0897  1.2938
   27CHL1  H26B 1993   5.534   5.146   8.595  0.4492  1.2856  1.5834
   27CHL1  H26C 1994   5.532   5.003   8.702 -1.2885 -1.5512 -0.7540
   27CHL1   C27 1995   5.347   5.287   8.769 -0.3071  0.2136 -0.5055
   27CHL1  H27A 1996   5.319   5.338   8.863 -1.2780 -1.4654  0.1597
   27CHL1  H27B 1997   5.393   5.362   8.701 -1.2415  1.6947  0.4261
   27CHL1  H27C 1998   5.255   5.249   8.719 -0.5912 -1.4228  1.1675
   28CHL1    C3 1999   5.753   3.304  10.213 -0.9474  0.1689  0.6273
   28CHL1    H3 2000   5.661   3.366  10.203  0.2549  2.1014  0.8627
   28CHL1    O3 2001   5.782   3.285  10.352  0.4199  0.6228 -0.4383
   28CHL1   H3' 2002   5.773   3.193  10.377  0.6489  1.0130  1.1745
   28CHL1    C4 2003   5.737   3.167  10.134  0.3617  0.2533  0.5380
   28CHL1   H4A 2004   5.818   3.095  10.161  0.8653  0.6603  0.1527
   28CHL1   H4B 2005   5.650   3.119  10.182 -1.1525  2.7531  0.4508
   28CHL1    C5 2006   5.722   3.182   9.986  0.4943 -0.4590  0.6565
   28CHL1    C6 2007   5.617   3.134   9.922 -0.5957  0.3744 -0.7219
   28CHL1    H6 2008   5.540   3.086   9.984 -0.8603 -0.3379 -1.5829
   28CHL1    C7 2009   5.584   3.143   9.783 -0.2430 -0.1332 -0.5309
   28CHL1   H7A 2010   5.554   3.044   9.741  0.2917  0.4677 -2.4561
   28CHL1   H7B 2011   5.500   3.216   9.775  1.1813  1.4463 -1.8366
   28CHL1    C8 2012   5.704   3.191   9.699 -0.2645  1.2416 -0.3494
   28CHL1    H8 2013   5.782   3.112   9.687 -0.6513  0.6542  0.7769
   28CHL1   C14 2014   5.650   3.233   9.560  0.3094  0.4044 -0.1827
   28CHL1   H14 2015   5.586   3.321   9.581  1.0425  1.2837 -1.5239
   28CHL1   C15 2016   5.551   3.139   9.484  0.2214 -0.2187  0.2479
   28CHL1  H15A 2017   5.593   3.037   9.495 -1.3484 -1.0575 -1.0707
   28CHL1  H15B 2018   5.446   3.146   9.522  0.1456  1.1714 -0.1609
   28CHL1   C16 2019   5.569   3.189   9.342  0.2824 -0.2156 -0.5245
   28CHL1  H16A 2020   5.603   3.100   9.284  1.9863 -0.3951  0.6958
   28CHL1  H16B 2021   5.473   3.228   9.302  1.0763  0.4305 -1.8937
   28CHL1   C17 2022   5.675   3.302   9.334 -0.0683  0.4221  0.1547
   28CHL1   H17 2023   5.619   3.394   9.363 -0.0133 -0.6870  4.4086
   28CHL1   C13 2024   5.763   3.275   9.460  0.0543  0.2576  0.2974
   28CHL1   C18 2025   5.864   3.159   9.432  0.2079 -0.1524  0.5268
   28CHL1  H18A 2026   5.949   3.198   9.371 -0.8620  2.3945  0.5203
   28CHL1  H18B 2027   5.904   3.140   9.533 -0.0953  1.1202  0.9100
   28CHL1  H18C 2028   5.810   3.072   9.389 -2.5439 -0.1609  3.6364
   28CHL1   C12 2029   5.832   3.390   9.532  0.6899  0.3730  0.6949
   28CHL1  H12A 2030   5.911   3.427   9.463  1.9018 -0.3251  1.6783
   28CHL1  H12B 2031   5.770   3.483   9.539 -0.1160  0.1574 -2.0339
   28CHL1   C11 2032   5.894   3.351   9.671  0.2828  0.4669  0.4819
   28CHL1  H11A 2033   5.973   3.273   9.663 -1.5868 -1.4096 -0.9645
   28CHL1  H11B 2034   5.931   3.445   9.716 -0.5105  0.9301  0.1830
   28CHL1    C9 2035   5.781   3.301   9.767  0.3592  0.6579  0.9424
   28CHL1    H9 2036   5.702   3.380   9.771  0.0444  0.7932 -3.1872
   28CHL1   C10 2037   5.820   3.279   9.919  0.0180 -0.0743  0.6169
   28CHL1   C19 2038   5.957   3.202   9.923  0.3090  0.1065 -0.1532
   28CHL1  H19A 2039   5.941   3.104   9.873 -3.6616  1.1901 -1.3422
   28CHL1  H19B 2040   6.049   3.255   9.888  2.4049 -2.8906  0.3907
   28CHL1  H19C 2041   5.986   3.179  10.028  0.3495 -0.6438 -0.3213
   28CHL1    C1 2042   5.834   3.413   9.993  0.7907  0.5650 -0.3521
   28CHL1   H1A 2043   5.910   3.467   9.933  1.7346 -0.1801  0.1449
   28CHL1   H1B 2044   5.738   3.468   9.983  0.5112 -0.0334 -1.0066
   28CHL1    C2 2045   5.861   3.384  10.148 -1.1465  0.4500 -0.2771
   28CHL1   H2A 2046   5.872   3.484  10.195 -2.0773  1.8570 -2.8802
   28CHL1   H2B 2047   5.966   3.348  10.154 -0.8714  1.4005  1.1909
   28CHL1   C20 2048   5.731   3.314   9.186 -0.3021  0.1209  0.0838
   28CHL1   H20 2049   5.759   3.210   9.158 -0.0764 -0.1969  1.3979
   28CHL1   C21 2050   5.860   3.394   9.173 -0.3707 -0.2926  0.1435
   28CHL1  H21A 2051   5.909   3.397   9.073 -0.4101 -0.4321  0.1205
   28CHL1  H21B 2052   5.935   3.336   9.231 -0.6010  0.1323  0.8868
   28CHL1  H21C 2053   5.853   3.497   9.215  3.4330 -0.0543  0.5637
   28CHL1   C22 2054   5.631   3.369   9.080  0.8880  1.1735 -0.8110
   28CHL1  H22A 2055   5.532   3.320   9.095  0.7159  2.1272  1.7410
   28CHL1  H22B 2056   5.607   3.477   9.091 -0.8995  0.8960 -1.6324
   28CHL1   C23 2057   5.663   3.343   8.931 -0.1759 -0.2118  0.7165
   28CHL1  H23A 2058   5.747   3.409   8.901  0.7152 -1.3293  0.6657
   28CHL1  H23B 2059   5.693   3.236   8.928 -0.1516 -0.1818 -0.3564
   28CHL1   C24 2060   5.544   3.367   8.845  0.6495  0.0374 -0.2182
   28CHL1  H24A 2061   5.457   3.314   8.889  1.0028  0.9358  1.6665
   28CHL1  H24B 2062   5.529   3.476   8.863 -0.1141 -0.1075  0.0403
   28CHL1   C25 2063   5.560   3.350   8.699  0.5330  0.2332 -0.2747
   28CHL1   H25 2064   5.636   3.423   8.663  1.8739 -1.1090 -0.2856
   28CHL1   C26 2065   5.606   3.203   8.670 -0.9811  0.5823  0.7379
   28CHL1  H26A 2066   5.528   3.133   8.706 -0.2120  0.0474  1.4116
   28CHL1  H26B 2067   5.620   3.178   8.563 -1.6369  1.3933  0.4503
   28CHL1  H26C 2068   5.700   3.181   8.725  0.4922 -1.0284 -2.1827
   28CHL1   C27 2069   5.429   3.384   8.619 -0.1993  0.8918  0.0500
   28CHL1  H27A 2070   5.408   3.489   8.649 -0.4101  1.0911 -0.7570
   28CHL1  H27B 2071   5.461   3.384   8.512 -0.8214  1.2023 -0.1397
   28CHL1  H27C 2072   5.344   3.321   8.651  0.9916 -0.4640  0.6220
   29CHL1    C3 2073   6.410   5.402   6.642  0.4916  0.0771 -0.0168
   29CHL1    H3 2074   6.322   5.469   6.639  0.5814  0.3317  1.8854
   29CHL1    O3 2075   6.431   5.355   6.506 -0.0708  0.1327  0.1310
   29CHL1   H3' 2076   6.512   5.305   6.505  0.7660  1.4391 -0.1258
   29CHL1    C4 2077   6.534   5.467   6.690 -0.0252 -0.1919 -0.3205
   29CHL1   H4A 2078   6.616   5.392   6.690 -1.5344 -1.9794 -2.1026
   29CHL1   H4B 2079   6.560   5.550   6.621 -0.1589 -0.7568 -1.0751
   29CHL1    C5 2080   6.519   5.515   6.839 -0.2585 -0.4579 -0.8415
   29CHL1    C6 2081   6.531   5.650   6.871 -0.3483 -0.1252  0.2082
   29CHL1    H6 2082   6.552   5.728   6.796  1.1239  1.3798  2.0670
   29CHL1    C7 2083   6.533   5.705   7.015 -0.5571  0.1830 -0.1285
   29CHL1   H7A 2084   6.628   5.760   7.031 -0.2940  0.2127 -1.6664
   29CHL1   H7B 2085   6.447   5.774   7.027  0.5499  1.7760 -0.9735
   29CHL1    C8 2086   6.524   5.586   7.118 -0.1452 -0.3948  0.1955
   29CHL1    H8 2087   6.628   5.548   7.121  0.3845  1.0190  0.3726
   29CHL1   C14 2088   6.480   5.638   7.256  0.2956  0.9737  0.5955
   29CHL1   H14 2089   6.381   5.683   7.237 -0.5541 -0.1686  2.1561
   29CHL1   C15 2090   6.581   5.741   7.323  0.9051 -0.0084 -0.6532
   29CHL1  H15A 2091   6.681   5.694   7.315  0.8235 -0.3652  0.3237
   29CHL1  H15B 2092   6.573   5.844   7.280 -0.2096  0.3773  0.4159
   29CHL1   C16 2093   6.529   5.739   7.470  0.1097  0.3170  0.5801
   29CHL1  H16A 2094   6.615   5.706   7.533  0.1791 -0.7121 -0.0338
   29CHL1  H16B 2095   6.479   5.835   7.494 -0.6819  0.4113 -1.3116
   29CHL1   C17 2096   6.430   5.624   7.488 -0.4707 -0.2113  0.0518
   29CHL1   H17 2097   6.328   5.663   7.468 -0.5868 -0.9887 -0.9989
   29CHL1   C13 2098   6.452   5.531   7.361  0.0872  0.2790 -0.6298
   29CHL1   C18 2099   6.577   5.446   7.399 -0.1093  0.5661 -0.6533
   29CHL1  H18A 2100   6.548   5.355   7.455  2.2952 -1.8707 -3.0503
   29CHL1  H18B 2101   6.612   5.395   7.306  0.5982 -0.7687  0.3052
   29CHL1  H18C 2102   6.657   5.500   7.453 -0.8075 -0.1257  1.1289
   29CHL1   C12 2103   6.335   5.453   7.309  0.2108 -0.2810 -0.0748
   29CHL1  H12A 2104   6.314   5.375   7.385 -0.2715 -2.1453 -2.0341
   29CHL1  H12B 2105   6.250   5.525   7.300  0.3560 -0.1617 -0.5065
   29CHL1   C11 2106   6.378   5.385   7.178  0.0636 -0.0787 -0.5641
   29CHL1  H11A 2107   6.453   5.304   7.186 -0.4231 -0.4576  0.2369
   29CHL1  H11B 2108   6.296   5.323   7.136 -0.6372 -0.7235  1.6464
   29CHL1    C9 2109   6.425   5.476   7.066  0.5767  0.6470 -0.3672
   29CHL1    H9 2110   6.323   5.518   7.050  0.0587 -0.5296 -0.2843
   29CHL1   C10 2111   6.470   5.407   6.935 -0.6559 -0.4622  0.2030
   29CHL1   C19 2112   6.585   5.302   6.953  1.0530  0.3530  0.4887
   29CHL1  H19A 2113   6.538   5.221   7.014  1.5254  0.4676  1.0074
   29CHL1  H19B 2114   6.624   5.260   6.858 -0.7233 -2.7984  1.0052
   29CHL1  H19C 2115   6.671   5.340   7.012  1.0793 -0.0513  0.7186
   29CHL1    C1 2116   6.351   5.328   6.876  0.1284 -0.1088 -0.3721
   29CHL1   H1A 2117   6.330   5.244   6.946  0.7218 -0.2826 -0.4017
   29CHL1   H1B 2118   6.260   5.392   6.872  0.4697  0.4625  0.5274
   29CHL1    C2 2119   6.363   5.283   6.731  0.1613  0.3922  0.3918
   29CHL1   H2A 2120   6.265   5.253   6.689  1.2912 -1.2710 -1.2408
   29CHL1   H2B 2121   6.434   5.198   6.720 -0.9827 -0.5028 -0.3283
   29CHL1   C20 2122   6.429   5.560   7.625  0.2963 -0.2077 -0.2451
   29CHL1   H20 2123   6.521   5.501   7.645 -0.0480 -1.5271 -2.1880
   29CHL1   C21 2124   6.311   5.463   7.639 -0.0805  0.1865 -0.1609
   29CHL1  H21A 2125   6.218   5.504   7.594 -0.2048  0.0487 -0.0310
   29CHL1  H21B 2126   6.298   5.435   7.746  1.5903 -1.6629 -0.3736
   29CHL1  H21C 2127   6.333   5.365   7.590  0.8985  0.3379 -0.0423
   29CHL1   C22 2128   6.432   5.652   7.749 -0.0191 -0.6311  0.6113
   29CHL1  H22A 2129   6.412   5.592   7.840 -2.3020  0.0056  0.5828
   29CHL1  H22B 2130   6.531   5.703   7.754 -0.7439  0.8644  0.1485
   29CHL1   C23 2131   6.326   5.763   7.747  0.3649 -0.3596  0.2217
   29CHL1  H23A 2132   6.338   5.838   7.667 -0.1180 -0.3592  0.1448
   29CHL1  H23B 2133   6.233   5.708   7.719  0.2965 -0.9210  1.4792
   29CHL1   C24 2134   6.300   5.819   7.890 -0.0178  0.3956 -0.1040
   29CHL1  H24A 2135   6.268   5.731   7.950  3.2707 -0.6728  0.2836
   29CHL1  H24B 2136   6.395   5.858   7.932  0.4285 -0.7788  0.0047
   29CHL1   C25 2137   6.200   5.932   7.893 -1.2107  0.1597 -0.5187
   29CHL1   H25 2138   6.233   6.012   7.824  0.0973  0.5780  0.5530
   29CHL1   C26 2139   6.054   5.884   7.854 -0.1801 -0.7011 -0.8333
   29CHL1  H26A 2140   5.986   5.972   7.863  1.3450  0.3316  1.6908
   29CHL1  H26B 2141   6.052   5.849   7.749  3.7021  1.8124 -1.9571
   29CHL1  H26C 2142   6.021   5.808   7.929 -2.5177  0.0007 -1.0479
   29CHL1   C27 2143   6.189   5.980   8.039 -0.5647 -0.5307 -0.4494
   29CHL1  H27A 2144   6.133   6.076   8.045  2.9044  1.8252 -2.0396
   29CHL1  H27B 2145   6.150   5.902   8.107 -3.2693  1.0067 -0.0865
   29CHL1  H27C 2146   6.289   6.016   8.072 -0.6287  0.3089 -1.0994
   30CHL1    C3 2147   6.390   4.926   7.366 -0.4630  0.1849 -0.1953
   30CHL1    H3 2148   6.309   4.851   7.376 -0.4285  0.0791 -0.6904
   30CHL1    O3 2149   6.401   4.950   7.230  0.5781 -0.4855 -0.0819
   30CHL1   H3' 2150   6.490   4.923   7.207  0.6216 -0.1859 -0.2713
   30CHL1    C4 2151   6.341   5.060   7.435 -0.3522  0.9694  0.3849
   30CHL1   H4A 2152   6.406   5.144   7.404  1.2151  0.9985  3.3934
   30CHL1   H4B 2153   6.236   5.080   7.403 -0.7074  0.1353  0.9966
   30CHL1    C5 2154   6.343   5.060   7.587 -0.3806  0.4819 -1.3566
   30CHL1    C6 2155   6.234   5.088   7.661 -0.1480  0.0342 -0.1252
   30CHL1    H6 2156   6.141   5.108   7.605 -0.7696  0.3730  1.0019
   30CHL1    C7 2157   6.234   5.084   7.811  0.3614 -0.5363  0.2955
   30CHL1   H7A 2158   6.171   5.158   7.865 -1.4713 -1.8730  0.0740
   30CHL1   H7B 2159   6.181   4.991   7.840 -1.3989  0.5791  0.8572
   30CHL1    C8 2160   6.375   5.067   7.876  0.0915  0.5142 -0.3614
   30CHL1    H8 2161   6.423   5.166   7.888 -0.4081  0.7626 -0.3812
   30CHL1   C14 2162   6.349   5.004   8.013 -0.2049 -0.3640  0.0872
   30CHL1   H14 2163   6.306   4.904   7.991 -0.2673 -0.2325 -0.4046
   30CHL1   C15 2164   6.250   5.080   8.113  0.3632 -0.5557  0.9593
   30CHL1  H15A 2165   6.236   5.190   8.102  1.3132 -0.5441 -0.3130
   30CHL1  H15B 2166   6.155   5.029   8.087  0.4021 -0.1726  0.0247
   30CHL1   C16 2167   6.301   5.052   8.255 -0.3185  0.1622  0.8727
   30CHL1  H16A 2168   6.327   5.155   8.286 -2.3326  1.1299 -0.4486
   30CHL1  H16B 2169   6.226   5.006   8.323 -0.8791  0.8816  0.7577
   30CHL1   C17 2170   6.428   4.962   8.236 -0.0825 -0.5391  0.0681
   30CHL1   H17 2171   6.381   4.862   8.233  1.4210 -1.2935 -3.4220
   30CHL1   C13 2172   6.481   4.990   8.090 -0.1808 -0.5935 -0.6235
   30CHL1   C18 2173   6.560   5.121   8.098  0.0910 -0.4232 -0.1230
   30CHL1  H18A 2174   6.575   5.158   7.995 -2.5321  0.1817 -0.3639
   30CHL1  H18B 2175   6.495   5.199   8.143  2.1160  1.1190  0.2273
   30CHL1  H18C 2176   6.653   5.120   8.159 -1.4418  0.2578  2.3663
   30CHL1   C12 2177   6.555   4.879   8.021  0.1825  0.4869 -0.3591
   30CHL1  H12A 2178   6.650   4.850   8.072 -0.9125 -1.4470  0.6768
   30CHL1  H12B 2179   6.491   4.791   8.040 -0.9909  1.6889  1.7411
   30CHL1   C11 2180   6.578   4.917   7.878  0.1864 -0.4023  0.1743
   30CHL1  H11A 2181   6.653   4.999   7.883  1.9592 -1.9685  0.7480
   30CHL1  H11B 2182   6.630   4.830   7.832 -2.4307 -2.0437  0.1088
   30CHL1    C9 2183   6.451   4.959   7.799 -0.3892  0.2396  0.8786
   30CHL1    H9 2184   6.380   4.874   7.805 -0.9435  0.6796  0.5371
   30CHL1   C10 2185   6.476   4.998   7.649  0.1657  0.2975 -0.1497
   30CHL1   C19 2186   6.600   5.085   7.631  0.6410  0.4281 -0.7767
   30CHL1  H19A 2187   6.584   5.173   7.698 -2.0882 -1.5456  1.3801
   30CHL1  H19B 2188   6.692   5.027   7.651  0.7879  0.1764 -2.0834
   30CHL1  H19C 2189   6.610   5.126   7.528  0.2015 -1.0429 -1.4252
   30CHL1    C1 2190   6.511   4.870   7.579  0.8133 -0.4837 -0.3070
   30CHL1   H1A 2191   6.605   4.824   7.616  0.9723  1.2204  1.6353
   30CHL1   H1B 2192   6.432   4.797   7.604  3.4898 -3.2416  0.7822
   30CHL1    C2 2193   6.523   4.878   7.424  0.1630  0.0392  0.3032
   30CHL1   H2A 2194   6.561   4.785   7.375 -1.0874 -0.6507  0.5899
   30CHL1   H2B 2195   6.602   4.954   7.407 -0.5410  1.9850  4.5542
   30CHL1   C20 2196   6.526   4.974   8.355 -0.5427  0.6498 -0.0276
   30CHL1   H20 2197   6.625   4.942   8.316 -0.0424 -2.2309  3.1430
   30CHL1   C21 2198   6.493   4.862   8.449 -0.4302 -0.1254 -0.3558
   30CHL1  H21A 2199   6.569   4.852   8.530 -0.1783 -1.4226 -0.7258
   30CHL1  H21B 2200   6.473   4.763   8.402  1.1699 -0.6050 -0.0883
   30CHL1  H21C 2201   6.400   4.889   8.504 -1.2882 -2.5517 -0.5026
   30CHL1   C22 2202   6.543   5.106   8.428 -0.4503 -0.1956 -1.0343
   30CHL1  H22A 2203   6.578   5.182   8.356  0.0592 -1.7589 -2.5142
   30CHL1  H22B 2204   6.444   5.145   8.460 -0.5864  0.3439 -2.0553
   30CHL1   C23 2205   6.653   5.125   8.534 -0.6255  0.0246  0.0048
   30CHL1  H23A 2206   6.621   5.051   8.609 -1.3830  0.5968  0.2660
   30CHL1  H23B 2207   6.741   5.084   8.480 -1.0093 -1.3979  0.4196
   30CHL1   C24 2208   6.665   5.260   8.598 -0.0253  0.8327 -0.4402
   30CHL1  H24A 2209   6.668   5.344   8.526  0.5377  1.6770  0.5411
   30CHL1  H24B 2210   6.572   5.275   8.657 -1.1879 -0.4020 -1.8704
   30CHL1   C25 2211   6.787   5.280   8.693 -0.1477  0.2920  0.3917
   30CHL1   H25 2212   6.883   5.264   8.639  1.3916 -0.0711  3.0376
   30CHL1   C26 2213   6.796   5.432   8.735  0.9288 -0.0715  0.3815
   30CHL1  H26A 2214   6.707   5.461   8.796  0.9468 -0.0236  0.3844
   30CHL1  H26B 2215   6.882   5.459   8.800  2.1932  2.0535 -2.0025
   30CHL1  H26C 2216   6.808   5.500   8.648  1.6170  0.6067  0.9909
   30CHL1   C27 2217   6.782   5.195   8.825 -0.2123 -0.2710  0.6680
   30CHL1  H27A 2218   6.710   5.230   8.902 -0.8546 -1.3189  0.5741
   30CHL1  H27B 2219   6.753   5.093   8.791 -0.9921  0.4650 -0.9728
   30CHL1  H27C 2220   6.883   5.194   8.870  0.9804 -0.3261 -1.8723
   31CHL1    C3 2221   0.126   0.675   6.740  0.0942  0.5142 -0.3241
   31CHL1    H3 2222   0.191   0.594   6.702 -1.2266 -0.8411  0.2353
   31CHL1    O3 2223   0.110   0.765   6.636  0.0924  0.3665  0.1176
   31CHL1   H3' 2224   0.036   0.825   6.644  0.7009  1.2865 -0.9859
   31CHL1    C4 2225  -0.013   0.611   6.779  0.4271 -0.0764  0.6382
   31CHL1   H4A 2226  -0.085   0.693   6.799 -0.4543 -0.3039 -1.4181
   31CHL1   H4B 2227  -0.050   0.551   6.693  0.8583  1.8973 -1.0285
   31CHL1    C5 2228  -0.010   0.534   6.908  0.3642  0.0494 -0.1107
   31CHL1    C6 2229  -0.055   0.410   6.912  0.6469  0.2788  0.1879
   31CHL1    H6 2230  -0.112   0.367   6.828 -1.4933 -0.8783  2.1257
   31CHL1    C7 2231  -0.042   0.319   7.032  0.0178 -0.3389  0.4821
   31CHL1   H7A 2232  -0.145   0.279   7.049 -0.2249 -0.4624 -1.0559
   31CHL1   H7B 2233   0.018   0.229   7.011 -1.6749 -1.3390 -0.3302
   31CHL1    C8 2234  -0.010   0.395   7.163  0.5438  0.2192 -0.0393
   31CHL1    H8 2235  -0.101   0.458   7.178 -0.0014 -0.9330  1.9012
   31CHL1   C14 2236   0.012   0.296   7.286 -0.0463  0.3169  0.2503
   31CHL1   H14 2237   0.105   0.241   7.259 -0.4279 -0.4504  0.4773
   31CHL1   C15 2238  -0.084   0.183   7.310  0.4993  0.1254  0.0055
   31CHL1  H15A 2239  -0.186   0.224   7.294  0.7021  1.5312  2.0402
   31CHL1  H15B 2240  -0.063   0.101   7.237  1.2713  3.0865 -3.4053
   31CHL1   C16 2241  -0.051   0.146   7.457  0.3754  0.6405 -0.8399
   31CHL1  H16A 2242  -0.144   0.162   7.515  1.3863  2.3869  0.4111
   31CHL1  H16B 2243  -0.015   0.041   7.465  1.2027  1.0090  0.7742
   31CHL1   C17 2244   0.044   0.246   7.519  0.2712 -0.4554  0.7778
   31CHL1   H17 2245   0.144   0.198   7.505 -0.0351 -1.1439  0.9065
   31CHL1   C13 2246   0.039   0.364   7.423 -0.4620 -0.2699 -0.0052
   31CHL1   C18 2247  -0.070   0.471   7.463 -0.4466  0.1653 -0.7954
   31CHL1  H18A 2248  -0.167   0.428   7.495  0.1961 -1.4598 -0.9047
   31CHL1  H18B 2249  -0.043   0.531   7.552 -0.6592  0.2530 -0.7904
   31CHL1  H18C 2250  -0.079   0.544   7.380  2.6115  2.0976  0.3772
   31CHL1   C12 2251   0.177   0.449   7.398  0.0562  0.8056  0.1935
   31CHL1  H12A 2252   0.221   0.493   7.490  0.3868 -1.5029  1.2251
   31CHL1  H12B 2253   0.248   0.372   7.360 -0.1468 -0.8439  2.8391
   31CHL1   C11 2254   0.157   0.556   7.280 -0.1766 -0.5404 -0.6376
   31CHL1  H11A 2255   0.082   0.629   7.317  0.8727  0.1747  0.1611
   31CHL1  H11B 2256   0.249   0.617   7.265  0.7189 -2.1503 -2.0644
   31CHL1    C9 2257   0.107   0.497   7.144 -0.1425  0.1858 -0.5623
   31CHL1    H9 2258   0.187   0.441   7.092 -0.5407  0.9176 -2.0345
   31CHL1   C10 2259   0.063   0.598   7.027  0.3848  0.9554 -0.1995
   31CHL1   C19 2260  -0.028   0.707   7.093  0.0927 -0.0927  0.2409
   31CHL1  H19A 2261   0.035   0.768   7.161  1.9507  0.0238 -1.5037
   31CHL1  H19B 2262  -0.066   0.782   7.020  0.5693  0.1482  0.2328
   31CHL1  H19C 2263  -0.116   0.665   7.146 -0.3073 -1.1901 -1.2398
   31CHL1    C1 2264   0.194   0.663   6.986 -0.3231 -1.1888  1.2070
   31CHL1   H1A 2265   0.228   0.740   7.059 -0.6288 -0.9799  1.1307
   31CHL1   H1B 2266   0.287   0.602   6.986  1.3149  1.1823  1.5403
   31CHL1    C2 2267   0.187   0.748   6.861 -0.4810  0.2385 -0.2099
   31CHL1   H2A 2268   0.290   0.786   6.844  0.1754 -1.3450  0.1273
   31CHL1   H2B 2269   0.125   0.837   6.885 -1.3366 -0.4617  0.2096
   31CHL1   C20 2270   0.031   0.273   7.665  0.5948 -0.6807 -0.3268
   31CHL1   H20 2271  -0.066   0.324   7.679  0.4493 -0.2506 -2.4510
   31CHL1   C21 2272   0.148   0.362   7.721 -0.2564  0.1247  0.4464
   31CHL1  H21A 2273   0.248   0.345   7.676  0.7609 -0.5873  2.8704
   31CHL1  H21B 2274   0.146   0.352   7.831  0.3637 -2.1659  0.2819
   31CHL1  H21C 2275   0.134   0.471   7.703 -2.2936 -0.0749  0.5675
   31CHL1   C22 2276   0.020   0.143   7.757  0.0728  0.1746  0.0555
   31CHL1  H22A 2277  -0.054   0.080   7.703  0.1891 -0.0495  0.1629
   31CHL1  H22B 2278   0.119   0.094   7.762  0.5972  1.0889 -0.9188
   31CHL1   C23 2279  -0.044   0.174   7.893 -0.2992  1.0078 -0.1082
   31CHL1  H23A 2280   0.025   0.243   7.945 -1.4369  2.2237 -0.1482
   31CHL1  H23B 2281  -0.143   0.222   7.876 -2.6117 -2.7042  1.5786
   31CHL1   C24 2282  -0.054   0.045   7.973  0.0681 -0.1077  0.0899
   31CHL1  H24A 2283  -0.149  -0.002   7.937 -0.6671  2.2128 -1.2234
   31CHL1  H24B 2284   0.026  -0.024   7.940 -0.4771  0.2061 -2.0607
   31CHL1   C25 2285  -0.055   0.069   8.123  0.4979  0.9956  0.3770
   31CHL1   H25 2286   0.023   0.147   8.139  2.9266 -0.8701 -1.4348
   31CHL1   C26 2287  -0.187   0.127   8.181  0.3104 -0.0001  0.5277
   31CHL1  H26A 2288  -0.222   0.213   8.121  2.1985  0.0232 -0.6456
   31CHL1  H26B 2289  -0.268   0.052   8.190  0.1052  0.1540 -0.0077
   31CHL1  H26C 2290  -0.161   0.165   8.281 -0.8343 -0.1306  0.8846
   31CHL1   C27 2291  -0.009  -0.052   8.203  0.2563  0.4797 -0.5179
   31CHL1  H27A 2292  -0.074  -0.142   8.198  2.8518 -1.7732  2.0464
   31CHL1  H27B 2293   0.009  -0.022   8.308  0.6281 -1.7565  0.1101
   31CHL1  H27C 2294   0.085  -0.098   8.165  0.1183 -0.1550 -0.0971
   32CHL1    C3 2295   5.836   4.566   7.107 -0.2063  0.8234  0.4103
   32CHL1    H3 2296   5.912   4.495   7.144 -0.2855  1.0760  1.0613
   32CHL1    O3 2297   5.812   4.525   6.968  0.5069  0.2700 -0.0014
   32CHL1   H3' 2298   5.792   4.609   6.925 -0.6267 -0.8155 -1.6996
   32CHL1    C4 2299   5.708   4.549   7.190 -0.2816 -0.5250  0.5956
   32CHL1   H4A 2300   5.631   4.617   7.148  0.8353  2.7286  3.3452
   32CHL1   H4B 2301   5.682   4.442   7.173  0.1300 -0.8121  1.6571
   32CHL1    C5 2302   5.733   4.579   7.337 -0.4792 -0.1410  0.5629
   32CHL1    C6 2303   5.733   4.487   7.434  0.1034  0.6196 -0.9165
   32CHL1    H6 2304   5.704   4.387   7.401  1.0897 -0.2788  0.8208
   32CHL1    C7 2305   5.747   4.519   7.577  0.4526  0.0100 -0.4014
   32CHL1   H7A 2306   5.659   4.472   7.626  1.9766 -0.6189  1.8856
   32CHL1   H7B 2307   5.840   4.480   7.624  0.5843  0.9324  0.1214
   32CHL1    C8 2308   5.726   4.676   7.603  0.0926  0.0701  0.7273
   32CHL1    H8 2309   5.619   4.701   7.594  0.2602  0.0310 -2.5209
   32CHL1   C14 2310   5.768   4.712   7.747  0.6189  0.2683  0.1773
   32CHL1   H14 2311   5.875   4.685   7.753  0.5999  0.4715  1.6939
   32CHL1   C15 2312   5.704   4.618   7.856 -0.3734  0.0513 -0.4978
   32CHL1  H15A 2313   5.595   4.600   7.844  0.0316 -1.5062 -2.4019
   32CHL1  H15B 2314   5.753   4.518   7.866 -0.1469  0.2967  1.0962
   32CHL1   C16 2315   5.729   4.709   7.987  0.0067  0.3566 -0.2962
   32CHL1  H16A 2316   5.639   4.725   8.050 -0.1202 -1.4487  0.0441
   32CHL1  H16B 2317   5.791   4.657   8.062 -0.1142  0.4890 -0.1039
   32CHL1   C17 2318   5.811   4.830   7.937 -0.5667  0.5561 -0.9047
   32CHL1   H17 2319   5.919   4.805   7.931 -0.5707  0.0886  0.4824
   32CHL1   C13 2320   5.760   4.854   7.792 -0.2399  0.3453 -0.4600
   32CHL1   C18 2321   5.617   4.903   7.800  0.6599  0.1460 -0.4055
   32CHL1  H18A 2322   5.571   4.921   7.701 -0.8229  0.7716  0.3670
   32CHL1  H18B 2323   5.547   4.833   7.851  0.3597  0.4398 -0.4129
   32CHL1  H18C 2324   5.617   5.001   7.851  1.6338 -1.3526  2.7699
   32CHL1   C12 2325   5.842   4.940   7.689  0.8180  0.0158  0.2229
   32CHL1  H12A 2326   5.820   5.045   7.719  0.1516  0.1591 -0.7284
   32CHL1  H12B 2327   5.947   4.905   7.690  0.1221 -2.2646 -0.6893
   32CHL1   C11 2328   5.798   4.915   7.544  0.3612 -0.4986  0.1683
   32CHL1  H11A 2329   5.696   4.957   7.553  0.3930 -0.4111  0.1151
   32CHL1  H11B 2330   5.852   4.981   7.473 -1.4517  1.0818  0.1756
   32CHL1    C9 2331   5.805   4.762   7.508 -0.2097 -0.0329 -0.0506
   32CHL1    H9 2332   5.913   4.733   7.513  0.1706  1.4681  1.6233
   32CHL1   C10 2333   5.765   4.732   7.359 -0.0024 -0.1653 -0.0810
   32CHL1   C19 2334   5.645   4.824   7.334  0.0043  1.0900  0.1596
   32CHL1  H19A 2335   5.685   4.925   7.311  0.4549  0.9304  0.2295
   32CHL1  H19B 2336   5.584   4.784   7.250  1.0386 -1.5533  0.5770
   32CHL1  H19C 2337   5.574   4.831   7.419  0.5456  0.8223  0.6415
   32CHL1    C1 2338   5.884   4.749   7.264  0.1195 -0.3302 -0.3536
   32CHL1   H1A 2339   5.917   4.855   7.269 -1.6072  0.2376 -0.2934
   32CHL1   H1B 2340   5.968   4.683   7.294  0.4150 -0.4841 -1.4940
   32CHL1    C2 2341   5.875   4.713   7.116  0.0212 -0.4509  0.4089
   32CHL1   H2A 2342   5.974   4.724   7.068  0.3391  0.1601  1.1713
   32CHL1   H2B 2343   5.805   4.780   7.061  0.6134  0.3367  0.5947
   32CHL1   C20 2344   5.805   4.945   8.042  0.0489 -0.4401 -0.5395
   32CHL1   H20 2345   5.699   4.960   8.074  0.4975 -3.8558  3.4693
   32CHL1   C21 2346   5.859   5.082   7.988  0.1514 -0.8787 -0.5253
   32CHL1  H21A 2347   5.964   5.061   7.960 -0.2340 -2.1010 -1.1177
   32CHL1  H21B 2348   5.855   5.161   8.066 -0.5534 -2.1133  0.7396
   32CHL1  H21C 2349   5.812   5.115   7.893  3.4218  2.1946 -1.2821
   32CHL1   C22 2350   5.873   4.911   8.185  0.0569 -0.4066  0.7844
   32CHL1  H22A 2351   5.822   4.828   8.239 -1.0949 -0.0556  0.2671
   32CHL1  H22B 2352   5.982   4.898   8.164  0.7342  0.2417  3.5020
   32CHL1   C23 2353   5.870   5.029   8.294  0.2329  0.3126  0.2261
   32CHL1  H23A 2354   5.931   5.114   8.257 -1.3772  1.3675 -0.0899
   32CHL1  H23B 2355   5.766   5.067   8.305  0.0084 -0.6247  1.7387
   32CHL1   C24 2356   5.902   4.968   8.427 -0.4246 -0.2734 -0.7740
   32CHL1  H24A 2357   5.831   4.883   8.438 -1.1184 -0.1926 -3.8403
   32CHL1  H24B 2358   6.002   4.919   8.425 -0.5768 -0.6022 -0.4637
   32CHL1   C25 2359   5.900   5.069   8.548  0.0897  0.1866 -0.5418
   32CHL1   H25 2360   5.820   5.141   8.522 -1.1239 -1.0099 -0.2546
   32CHL1   C26 2361   5.874   4.991   8.675 -0.0820  0.2456  0.4532
   32CHL1  H26A 2362   5.963   4.962   8.734 -0.9770 -1.4620  1.0299
   32CHL1  H26B 2363   5.812   5.055   8.743 -0.9162 -0.7087  0.6085
   32CHL1  H26C 2364   5.821   4.896   8.655 -0.1916  0.5099 -0.5887
   32CHL1   C27 2365   6.035   5.145   8.572 -0.4307 -0.0099  0.1556
   32CHL1  H27A 2366   6.069   5.188   8.475 -0.6625 -1.5886 -0.6526
   32CHL1  H27B 2367   6.032   5.224   8.651  0.7078 -1.0187  1.2550
   32CHL1  H27C 2368   6.123   5.079   8.588  0.0057  0.4313 -0.3763
   33CHL1    C3 2369   6.568   6.296   6.813 -0.2706 -0.6577  0.6373
   33CHL1    H3 2370   6.652   6.307   6.885 -1.1138  0.7577  1.4541
   33CHL1    O3 2371   6.603   6.284   6.676 -0.0155  0.0157 -0.0043
   33CHL1   H3' 2372   6.534   6.328   6.626  0.5550  0.9177 -0.0246
   33CHL1    C4 2373   6.488   6.177   6.856 -0.1970 -0.1261  0.4429
   33CHL1   H4A 2374   6.405   6.165   6.783  1.3413  3.4777 -2.2727
   33CHL1   H4B 2375   6.548   6.084   6.847 -1.1795 -0.9220  1.8038
   33CHL1    C5 2376   6.431   6.182   6.992 -0.4463  0.2928  0.5208
   33CHL1    C6 2377   6.461   6.086   7.084  0.1469 -0.3073  0.8899
   33CHL1    H6 2378   6.512   5.993   7.056 -0.1756 -0.7996  1.8848
   33CHL1    C7 2379   6.404   6.083   7.227  0.1995 -0.3783 -0.2247
   33CHL1   H7A 2380   6.372   5.980   7.253 -0.3455 -0.5908 -1.6288
   33CHL1   H7B 2381   6.468   6.122   7.308 -1.4011  1.5309  0.1980
   33CHL1    C8 2382   6.276   6.176   7.233 -0.0088  0.1113 -0.0802
   33CHL1    H8 2383   6.191   6.128   7.181 -1.0298  1.3462  0.3895
   33CHL1   C14 2384   6.245   6.200   7.375  0.1793  0.4380  0.2142
   33CHL1   H14 2385   6.326   6.252   7.431  0.9326 -2.4425  2.0373
   33CHL1   C15 2386   6.228   6.074   7.466  0.3603  0.6058  0.0652
   33CHL1  H15A 2387   6.167   5.992   7.424  1.3420  0.0047 -0.2151
   33CHL1  H15B 2388   6.329   6.034   7.489 -0.1128 -0.2283  0.7451
   33CHL1   C16 2389   6.156   6.129   7.592 -0.2277  0.0021  0.8166
   33CHL1  H16A 2390   6.072   6.061   7.619 -1.8047  1.1887 -0.8407
   33CHL1  H16B 2391   6.226   6.137   7.677 -0.2865  0.3436  0.8329
   33CHL1   C17 2392   6.094   6.268   7.548  0.0904  0.0812  0.4733
   33CHL1   H17 2393   6.159   6.343   7.597 -1.4810  0.8509  1.4917
   33CHL1   C13 2394   6.117   6.281   7.400 -0.1718  0.4190  0.4114
   33CHL1   C18 2395   5.992   6.211   7.333  0.9708  0.7422  0.0297
   33CHL1  H18A 2396   5.906   6.273   7.366  0.9457 -0.2662  2.0433
   33CHL1  H18B 2397   5.991   6.200   7.223  3.3657 -0.0420  0.0283
   33CHL1  H18C 2398   5.973   6.110   7.377  2.2562  1.0684  1.4147
   33CHL1   C12 2399   6.147   6.420   7.339  0.4792 -0.9373 -0.2861
   33CHL1  H12A 2400   6.066   6.493   7.356  0.7809 -0.8925  1.0425
   33CHL1  H12B 2401   6.236   6.464   7.388  0.1147  2.0072 -2.0586
   33CHL1   C11 2402   6.178   6.413   7.188 -0.2974  0.0215 -0.1686
   33CHL1  H11A 2403   6.079   6.383   7.148  0.3791 -1.7312 -0.6446
   33CHL1  H11B 2404   6.210   6.515   7.157  1.8782 -0.7227 -0.5779
   33CHL1    C9 2405   6.300   6.315   7.166  0.2364 -0.1110 -0.2623
   33CHL1    H9 2406   6.388   6.357   7.219  1.2411 -0.6973 -1.4115
   33CHL1   C10 2407   6.338   6.304   7.018 -0.3897  0.0641  0.2320
   33CHL1   C19 2408   6.207   6.294   6.940  0.1803  0.5028  0.1157
   33CHL1  H19A 2409   6.141   6.209   6.969 -1.0507  1.3555 -0.0940
   33CHL1  H19B 2410   6.150   6.389   6.946  0.7479  0.9127 -0.8142
   33CHL1  H19C 2411   6.240   6.282   6.835  2.0129  0.8245  0.6305
   33CHL1    C1 2412   6.423   6.428   6.970  0.0113  0.4968  0.3098
   33CHL1   H1A 2413   6.349   6.510   6.961  0.5796  1.1803  1.6425
   33CHL1   H1B 2414   6.494   6.458   7.049  0.9444  2.1527 -1.1130
   33CHL1    C2 2415   6.487   6.424   6.831  0.1948  0.5319  0.2056
   33CHL1   H2A 2416   6.542   6.520   6.824  0.2958  0.5577  1.1751
   33CHL1   H2B 2417   6.415   6.427   6.746 -1.6468 -2.3767  1.4976
   33CHL1   C20 2418   5.960   6.305   7.618 -0.3574  0.4655  0.8763
   33CHL1   H20 2419   5.880   6.241   7.576  0.8713 -0.9106  0.5424
   33CHL1   C21 2420   5.928   6.452   7.583 -0.0360  0.0461  0.0408
   33CHL1  H21A 2421   5.845   6.486   7.649 -0.1142  0.9204 -0.4869
   33CHL1  H21B 2422   5.888   6.455   7.480  1.4207  0.8405 -0.5222
   33CHL1  H21C 2423   6.012   6.523   7.597 -3.7944  5.0074  0.2412
   33CHL1   C22 2424   5.977   6.286   7.769  0.1778 -0.6173 -0.3340
   33CHL1  H22A 2425   6.018   6.186   7.794 -1.0376 -1.0866 -0.1207
   33CHL1  H22B 2426   6.055   6.353   7.810  1.0546 -2.2046  0.7194
   33CHL1   C23 2427   5.856   6.306   7.864 -0.3822  0.7150  0.1594
   33CHL1  H23A 2428   5.820   6.411   7.852  0.0599  0.7893 -0.5808
   33CHL1  H23B 2429   5.779   6.232   7.835 -0.2016  1.6521 -3.1502
   33CHL1   C24 2430   5.896   6.303   8.008  0.3474  0.3824  0.0457
   33CHL1  H24A 2431   5.958   6.211   8.011 -0.4939 -0.3145 -2.0812
   33CHL1  H24B 2432   5.962   6.389   8.035 -1.4152  1.1080  2.3759
   33CHL1   C25 2433   5.776   6.308   8.112 -0.3983  0.1953 -0.5549
   33CHL1   H25 2434   5.708   6.390   8.081 -1.2024 -0.0073  0.6305
   33CHL1   C26 2435   5.699   6.173   8.115  0.2098 -0.0577  0.5868
   33CHL1  H26A 2436   5.763   6.087   8.145  0.9092  0.6734  1.2453
   33CHL1  H26B 2437   5.603   6.176   8.170 -1.0469  0.4210 -1.4995
   33CHL1  H26C 2438   5.663   6.153   8.012  0.3230  1.3879  0.2557
   33CHL1   C27 2439   5.842   6.332   8.245  0.5396 -0.1142  0.0097
   33CHL1  H27A 2440   5.905   6.423   8.239  1.8338 -0.7968  2.2038
   33CHL1  H27B 2441   5.767   6.358   8.323 -0.2294  0.3160 -0.8526
   33CHL1  H27C 2442   5.903   6.244   8.275 -0.0021 -0.8517 -0.9740
   34CHL1    C3 2443   0.926   4.186   7.119  0.0069  0.3693  0.1474
   34CHL1    H3 2444   0.972   4.263   7.185  0.2524 -1.3601  2.0749
   34CHL1    O3 2445   0.940   4.235   6.986 -0.2409  0.2754  0.0181
   34CHL1   H3' 2446   1.021   4.287   6.985  0.6711 -1.1107 -0.6152
   34CHL1    C4 2447   1.013   4.063   7.151  0.4404 -0.0393  0.3475
   34CHL1   H4A 2448   0.989   3.984   7.077 -1.5353 -0.3482  1.2641
   34CHL1   H4B 2449   1.117   4.097   7.131  0.5618 -1.5428 -1.9782
   34CHL1    C5 2450   0.993   4.017   7.298 -1.3215 -0.3441  0.3242
   34CHL1    C6 2451   1.096   4.030   7.385 -0.0854  0.8184 -0.6379
   34CHL1    H6 2452   1.198   4.055   7.353  0.7353  0.4633  1.5498
   34CHL1    C7 2453   1.079   3.981   7.529 -0.2389 -0.1527  0.0482
   34CHL1   H7A 2454   1.160   3.915   7.565  0.1772  0.1072 -0.3954
   34CHL1   H7B 2455   1.083   4.069   7.597 -1.3222  1.2002 -1.5559
   34CHL1    C8 2456   0.959   3.889   7.551  0.1560 -0.1100 -0.1320
   34CHL1    H8 2457   0.985   3.792   7.505  0.5938 -0.3409  0.5857
   34CHL1   C14 2458   0.932   3.870   7.705  0.0926 -0.3852 -0.5067
   34CHL1   H14 2459   0.902   3.973   7.735  0.3766 -0.5928  0.5447
   34CHL1   C15 2460   1.052   3.844   7.801  0.3921 -0.2064 -0.5124
   34CHL1  H15A 2461   1.124   3.766   7.765  1.0210 -0.2087  0.6976
   34CHL1  H15B 2462   1.117   3.934   7.803  1.5422 -1.0115 -0.2753
   34CHL1   C16 2463   0.984   3.781   7.925 -0.0034 -0.4971  0.3782
   34CHL1  H16A 2464   1.006   3.673   7.940  0.0574 -0.3641  1.2973
   34CHL1  H16B 2465   1.002   3.832   8.021 -1.5532  1.0766 -0.1081
   34CHL1   C17 2466   0.831   3.785   7.890  0.1407  0.2699 -0.2273
   34CHL1   H17 2467   0.792   3.887   7.911 -1.6460 -0.1170 -1.4823
   34CHL1   C13 2468   0.820   3.773   7.740  0.1794 -0.5153  0.2496
   34CHL1   C18 2469   0.855   3.627   7.693  0.4902 -0.2641 -0.0454
   34CHL1  H18A 2470   0.942   3.581   7.744  0.1243  0.3886  1.2036
   34CHL1  H18B 2471   0.770   3.560   7.719 -2.5698  2.7181 -1.4903
   34CHL1  H18C 2472   0.870   3.618   7.583 -0.0686  2.3864 -0.4068
   34CHL1   C12 2473   0.692   3.828   7.674  0.1970 -0.2102 -0.1211
   34CHL1  H12A 2474   0.607   3.756   7.676 -0.4975  0.5992  0.3275
   34CHL1  H12B 2475   0.659   3.917   7.731  1.0175 -0.2955  0.4910
   34CHL1   C11 2476   0.710   3.846   7.523  0.2117 -0.2712  0.1342
   34CHL1  H11A 2477   0.724   3.746   7.476 -1.0410 -1.1422  1.5252
   34CHL1  H11B 2478   0.622   3.887   7.469 -0.0224 -1.8106 -0.7150
   34CHL1    C9 2479   0.828   3.937   7.484 -0.8640 -0.4892  0.1614
   34CHL1    H9 2480   0.814   4.034   7.538 -0.2134 -1.3204  1.9146
   34CHL1   C10 2481   0.844   3.976   7.335  0.0317  0.4898 -0.0676
   34CHL1   C19 2482   0.808   3.844   7.265  0.1930  0.1621 -0.0953
   34CHL1  H19A 2483   0.865   3.762   7.312 -1.2709 -1.5005 -1.0983
   34CHL1  H19B 2484   0.699   3.821   7.272  0.2326  0.1014  0.3027
   34CHL1  H19C 2485   0.838   3.842   7.158  1.5322 -0.3570  0.2702
   34CHL1    C1 2486   0.744   4.094   7.291 -0.3074 -0.0412  0.4277
   34CHL1   H1A 2487   0.638   4.061   7.301  0.1295 -1.6174  0.1380
   34CHL1   H1B 2488   0.766   4.176   7.363  1.9527 -0.7911  0.6574
   34CHL1    C2 2489   0.780   4.154   7.147 -0.1913 -0.0131 -0.6590
   34CHL1   H2A 2490   0.730   4.253   7.152 -2.0213 -0.9372  1.1081
   34CHL1   H2B 2491   0.741   4.086   7.068  1.8920 -1.4663 -0.5024
   34CHL1   C20 2492   0.746   3.686   7.969  0.5026 -0.2263 -0.0114
   34CHL1   H20 2493   0.738   3.587   7.919 -0.7736 -0.5300  0.7565
   34CHL1   C21 2494   0.615   3.759   7.990  0.4673 -0.2494  0.3688
   34CHL1  H21A 2495   0.574   3.778   7.889 -1.5270 -0.4769  1.0821
   34CHL1  H21B 2496   0.628   3.858   8.041 -0.4358 -0.2351  0.5996
   34CHL1  H21C 2497   0.531   3.697   8.028  0.0882  1.0762  1.8573
   34CHL1   C22 2498   0.805   3.663   8.113 -0.2499 -0.6082  0.1805
   34CHL1  H22A 2499   0.908   3.621   8.112 -0.3215 -0.9729  2.4617
   34CHL1  H22B 2500   0.800   3.759   8.168  1.7924 -0.7178  0.6606
   34CHL1   C23 2501   0.728   3.558   8.197 -0.3549  0.9618  0.1459
   34CHL1  H23A 2502   0.625   3.593   8.218  0.1875  1.3980  2.2504
   34CHL1  H23B 2503   0.714   3.466   8.137 -1.5944  0.0905  1.7068
   34CHL1   C24 2504   0.801   3.518   8.327 -0.1719 -0.0014 -0.2854
   34CHL1  H24A 2505   0.897   3.474   8.291 -0.1142 -0.2934  0.2160
   34CHL1  H24B 2506   0.835   3.610   8.379  1.0977  0.9767 -2.6827
   34CHL1   C25 2507   0.725   3.426   8.430  0.4518  0.2527  0.7185
   34CHL1   H25 2508   0.637   3.482   8.469 -0.2305  0.2528 -0.7491
   34CHL1   C26 2509   0.677   3.297   8.360  0.2700  0.5108  0.4111
   34CHL1  H26A 2510   0.645   3.216   8.429  0.9226 -1.7374 -1.7925
   34CHL1  H26B 2511   0.602   3.304   8.279  0.0700 -0.7056  0.4703
   34CHL1  H26C 2512   0.770   3.267   8.307  0.6612  0.8553  0.8908
   34CHL1   C27 2513   0.812   3.386   8.540 -0.7731  0.8370 -0.8577
   34CHL1  H27A 2514   0.896   3.320   8.511  0.0315  0.7495  1.4632
   34CHL1  H27B 2515   0.855   3.476   8.589 -2.8910  0.7307  1.4151
   34CHL1  H27C 2516   0.749   3.323   8.608  1.5669 -0.6366  0.0822
   35CHL1    C3 2517   4.626   5.605   7.339  0.4648  1.3442 -0.5903
   35CHL1    H3 2518   4.626   5.500   7.304  0.4174  1.2143 -0.2117
   35CHL1    O3 2519   4.642   5.676   7.224  0.5499 -0.6272  0.1400
   35CHL1   H3' 2520   4.725   5.648   7.184  1.3079  0.2016  1.0641
   35CHL1    C4 2521   4.495   5.636   7.411 -0.0763  0.2885  0.5896
   35CHL1   H4A 2522   4.512   5.745   7.423  1.4858  0.0613  0.6378
   35CHL1   H4B 2523   4.413   5.615   7.339 -1.3217 -1.5588  2.4156
   35CHL1    C5 2524   4.465   5.555   7.537  0.7567  0.4612 -0.7591
   35CHL1    C6 2525   4.350   5.482   7.550 -0.2655 -0.0847  0.1803
   35CHL1    H6 2526   4.265   5.504   7.483 -1.4618  2.9813  2.5183
   35CHL1    C7 2527   4.334   5.406   7.678  0.3592  1.0249  0.2604
   35CHL1   H7A 2528   4.234   5.424   7.721  0.3498 -2.2580  1.9443
   35CHL1   H7B 2529   4.351   5.297   7.662 -0.4827  1.0237 -0.7131
   35CHL1    C8 2530   4.437   5.427   7.794  0.0281  0.4713 -0.1731
   35CHL1    H8 2531   4.405   5.519   7.846  0.7219  0.2107  0.7455
   35CHL1   C14 2532   4.433   5.312   7.898 -0.3379  0.1088  0.7125
   35CHL1   H14 2533   4.474   5.229   7.838 -2.4303 -0.4780  0.0159
   35CHL1   C15 2534   4.297   5.256   7.947  0.8884  0.3377 -0.6002
   35CHL1  H15A 2535   4.226   5.339   7.967  1.2367 -0.0233  2.7005
   35CHL1  H15B 2536   4.265   5.170   7.885 -0.2056  0.3286 -0.0450
   35CHL1   C16 2537   4.336   5.181   8.075  0.3489 -0.7055  0.1636
   35CHL1  H16A 2538   4.280   5.225   8.160 -0.3291  1.8890 -1.5142
   35CHL1  H16B 2539   4.304   5.075   8.068  0.3498 -0.6527 -0.8799
   35CHL1   C17 2540   4.490   5.200   8.089  0.3478  0.5644 -0.7431
   35CHL1   H17 2541   4.535   5.111   8.040 -0.4275 -1.6258  2.2290
   35CHL1   C13 2542   4.532   5.330   8.015 -0.3227 -0.2397  0.4292
   35CHL1   C18 2543   4.490   5.453   8.105 -0.6513 -0.5004  1.1727
   35CHL1  H18A 2544   4.518   5.553   8.065  1.7614 -0.9355  1.6514
   35CHL1  H18B 2545   4.379   5.454   8.114 -0.7159 -2.0856  0.9455
   35CHL1  H18C 2546   4.538   5.460   8.204  0.5987  0.0875  0.5513
   35CHL1   C12 2547   4.673   5.335   7.959  0.0278 -0.1594 -0.3190
   35CHL1  H12A 2548   4.754   5.358   8.031  0.0565  0.8880 -0.6633
   35CHL1  H12B 2549   4.695   5.234   7.920  1.2893  0.0623 -0.2282
   35CHL1   C11 2550   4.685   5.444   7.852 -0.0488 -0.1772  0.0076
   35CHL1  H11A 2551   4.672   5.535   7.915 -0.3867  0.1068 -0.4666
   35CHL1  H11B 2552   4.786   5.453   7.807 -0.7275 -0.3689 -1.6306
   35CHL1    C9 2553   4.579   5.440   7.745  0.7801  0.2344  0.5435
   35CHL1    H9 2554   4.598   5.351   7.682 -1.7882  0.6593 -0.9881
   35CHL1   C10 2555   4.589   5.553   7.640  0.1705  0.3406  0.7771
   35CHL1   C19 2556   4.584   5.690   7.711 -0.3213  0.4229  0.1815
   35CHL1  H19A 2557   4.673   5.702   7.776  0.3040 -0.3697 -0.4950
   35CHL1  H19B 2558   4.582   5.770   7.634  1.4355 -0.1540 -0.5268
   35CHL1  H19C 2559   4.496   5.702   7.777  1.1044  0.3011  2.1883
   35CHL1    C1 2560   4.721   5.533   7.561  0.2652 -0.1695  0.0403
   35CHL1   H1A 2561   4.815   5.542   7.620  0.2763  0.1289 -0.0197
   35CHL1   H1B 2562   4.722   5.429   7.523  1.6264 -0.7824  1.6141
   35CHL1    C2 2563   4.742   5.626   7.429  0.8786 -0.0582 -0.1051
   35CHL1   H2A 2564   4.836   5.594   7.380 -0.0791 -1.1794 -1.2550
   35CHL1   H2B 2565   4.745   5.734   7.458 -1.4122  0.7768 -2.5500
   35CHL1   C20 2566   4.531   5.191   8.240 -1.0401 -0.1884  0.5866
   35CHL1   H20 2567   4.482   5.274   8.296  0.1164 -0.4450  2.0384
   35CHL1   C21 2568   4.687   5.204   8.251 -0.0415 -0.2966  0.5900
   35CHL1  H21A 2569   4.722   5.308   8.232  1.5194 -1.1626 -1.8227
   35CHL1  H21B 2570   4.734   5.124   8.190 -0.0284 -0.5505  0.9246
   35CHL1  H21C 2571   4.719   5.185   8.356  0.1933  0.6543  0.6997
   35CHL1   C22 2572   4.479   5.059   8.298 -0.5015  0.0236 -0.3943
   35CHL1  H22A 2573   4.389   5.011   8.254 -0.5615  0.3422 -0.6249
   35CHL1  H22B 2574   4.567   4.994   8.281  1.2612  1.7125  1.6096
   35CHL1   C23 2575   4.472   5.073   8.451  0.0762  0.2366 -0.0066
   35CHL1  H23A 2576   4.444   4.974   8.494  0.0688 -0.4528 -1.5369
   35CHL1  H23B 2577   4.577   5.087   8.483  0.2052 -1.3634  0.3301
   35CHL1   C24 2578   4.379   5.181   8.517 -0.5281  0.3762 -0.2573
   35CHL1  H24A 2579   4.422   5.282   8.499 -0.4362  0.5382  0.8000
   35CHL1  H24B 2580   4.272   5.166   8.492 -0.8014  0.9033  0.5471
   35CHL1   C25 2581   4.381   5.177   8.670 -0.1330  0.6264 -0.1987
   35CHL1   H25 2582   4.389   5.072   8.706 -2.0485  0.1484 -1.0372
   35CHL1   C26 2583   4.512   5.251   8.719  0.4673 -0.5281  0.8747
   35CHL1  H26A 2584   4.510   5.359   8.694 -1.1781 -0.7751 -0.2694
   35CHL1  H26B 2585   4.535   5.231   8.826 -0.4754 -3.4758  0.6192
   35CHL1  H26C 2586   4.594   5.210   8.655 -0.4607 -0.6280 -0.2862
   35CHL1   C27 2587   4.260   5.251   8.737  0.0983  0.7243  0.7581
   35CHL1  H27A 2588   4.280   5.265   8.846  0.0987 -0.6543  0.9449
   35CHL1  H27B 2589   4.163   5.198   8.724  0.6174 -0.2105  0.6704
   35CHL1  H27C 2590   4.260   5.355   8.697  0.8309  1.2885  2.1523
   36CHL1    C3 2591   5.464   5.217   7.049  0.3914 -0.6549 -1.1694
   36CHL1    H3 2592   5.394   5.133   7.029 -0.8339  0.5932 -2.3568
   36CHL1    O3 2593   5.519   5.261   6.929 -0.3465 -0.0933 -0.2562
   36CHL1   H3' 2594   5.448   5.256   6.864 -1.9688 -0.4334  1.4828
   36CHL1    C4 2595   5.373   5.330   7.101 -0.2529  0.6218  0.3907
   36CHL1   H4A 2596   5.426   5.427   7.086 -1.8584  1.2437 -2.0860
   36CHL1   H4B 2597   5.295   5.338   7.022 -0.4492  1.6838  0.6705
   36CHL1    C5 2598   5.325   5.308   7.237  0.0278 -0.0785 -0.5063
   36CHL1    C6 2599   5.202   5.303   7.272 -0.0689  0.1792  0.4401
   36CHL1    H6 2600   5.130   5.318   7.190  1.1776 -2.1115 -1.1903
   36CHL1    C7 2601   5.150   5.294   7.417  0.0794  0.6373 -0.0726
   36CHL1   H7A 2602   5.062   5.359   7.433  0.9655  1.0522  4.6890
   36CHL1   H7B 2603   5.104   5.194   7.434 -0.0858  0.3894 -1.8275
   36CHL1    C8 2604   5.252   5.326   7.531  0.8971  0.0916 -0.2046
   36CHL1    H8 2605   5.271   5.436   7.541  2.2349 -0.0418 -0.9425
   36CHL1   C14 2606   5.201   5.268   7.662 -0.1484  0.3937  0.0202
   36CHL1   H14 2607   5.183   5.160   7.641 -0.5307 -0.0491  2.3238
   36CHL1   C15 2608   5.068   5.314   7.710 -0.7844  0.7018  0.2728
   36CHL1  H15A 2609   5.054   5.423   7.700  0.9780  0.7769 -2.1736
   36CHL1  H15B 2610   4.980   5.264   7.665  0.0958 -1.1731  0.4873
   36CHL1   C16 2611   5.068   5.272   7.863  0.0035 -0.0982 -0.7631
   36CHL1  H16A 2612   5.060   5.365   7.924 -1.0436 -1.5153  1.3859
   36CHL1  H16B 2613   4.991   5.198   7.892  1.3171 -1.1294  0.2475
   36CHL1   C17 2614   5.211   5.212   7.892  0.6329  0.4255 -1.4606
   36CHL1   H17 2615   5.205   5.102   7.876  0.6124 -0.4312  3.0437
   36CHL1   C13 2616   5.299   5.271   7.778  0.3704 -0.5397 -1.6722
   36CHL1   C18 2617   5.328   5.420   7.815  0.3813  0.1196  0.1481
   36CHL1  H18A 2618   5.236   5.474   7.848  0.9974  0.1537  1.8841
   36CHL1  H18B 2619   5.402   5.420   7.898  0.6048 -1.2062 -0.0371
   36CHL1  H18C 2620   5.366   5.467   7.722  0.1093  1.7329  0.8235
   36CHL1   C12 2621   5.429   5.191   7.742 -0.9089  0.2184 -0.3635
   36CHL1  H12A 2622   5.517   5.203   7.810 -0.6611  2.4919 -1.0139
   36CHL1  H12B 2623   5.411   5.083   7.725 -2.5378  0.8334 -3.1346
   36CHL1   C11 2624   5.488   5.236   7.602 -0.0632 -0.0228 -0.3486
   36CHL1  H11A 2625   5.547   5.329   7.604  0.9208 -0.6482  0.9781
   36CHL1  H11B 2626   5.569   5.165   7.576  1.8968  1.8063  0.5379
   36CHL1    C9 2627   5.381   5.251   7.493 -0.1074 -0.4575 -0.3666
   36CHL1    H9 2628   5.354   5.143   7.489  0.8799 -0.9241  2.7391
   36CHL1   C10 2629   5.439   5.290   7.346  0.0113 -0.0240 -0.1228
   36CHL1   C19 2630   5.520   5.428   7.350 -0.2457 -0.0350 -1.0345
   36CHL1  H19A 2631   5.467   5.522   7.379  2.8380  1.8850 -1.1586
   36CHL1  H19B 2632   5.611   5.416   7.412  0.6314 -1.2219 -2.4994
   36CHL1  H19C 2633   5.569   5.441   7.251 -2.3012 -1.7167 -2.3671
   36CHL1    C1 2634   5.529   5.175   7.297 -0.0105  0.1633 -0.9475
   36CHL1   H1A 2635   5.622   5.178   7.357  0.6538 -0.0071 -1.9445
   36CHL1   H1B 2636   5.485   5.077   7.323  0.7697  0.1338  0.3314
   36CHL1    C2 2637   5.575   5.181   7.146 -0.5061  0.0112  0.2998
   36CHL1   H2A 2638   5.627   5.091   7.108 -0.6795 -0.0287  0.1561
   36CHL1   H2B 2639   5.647   5.265   7.144 -0.7521  0.2077 -1.3038
   36CHL1   C20 2640   5.258   5.219   8.038  0.3970 -0.7891  0.7582
   36CHL1   H20 2641   5.269   5.328   8.061 -2.3953 -0.6119  1.6534
   36CHL1   C21 2642   5.377   5.134   8.054  0.1572 -0.2635  0.0444
   36CHL1  H21A 2643   5.467   5.174   8.004  0.9634 -0.0966  1.5833
   36CHL1  H21B 2644   5.356   5.035   8.009  1.5193  0.3359 -2.0346
   36CHL1  H21C 2645   5.404   5.120   8.161  2.6595  0.5384 -0.4360
   36CHL1   C22 2646   5.141   5.166   8.132 -0.6532  0.0619  0.9970
   36CHL1  H22A 2647   5.048   5.224   8.110  0.1646  0.6966 -1.1101
   36CHL1  H22B 2648   5.115   5.062   8.104 -1.0793  0.2645  0.6106
   36CHL1   C23 2649   5.172   5.162   8.279  0.3155  0.0166 -0.1437
   36CHL1  H23A 2650   5.265   5.105   8.294  1.3722  1.3733 -1.2671
   36CHL1  H23B 2651   5.191   5.263   8.321  0.1896 -0.0929  0.1853
   36CHL1   C24 2652   5.057   5.095   8.356 -0.0981  0.1995  0.1178
   36CHL1  H24A 2653   4.975   5.169   8.345 -0.8095 -0.7617 -1.5206
   36CHL1  H24B 2654   5.033   4.996   8.311  0.1733  0.3652 -0.3912
   36CHL1   C25 2655   5.073   5.078   8.503  0.4906  0.6148 -0.3702
   36CHL1   H25 2656   5.137   5.162   8.537  2.4467 -0.1062 -2.0121
   36CHL1   C26 2657   4.940   5.056   8.573  0.3839 -0.4191  0.9393
   36CHL1  H26A 2658   4.873   5.139   8.542 -2.0461 -2.4424  0.5364
   36CHL1  H26B 2659   4.883   4.965   8.546 -0.0152  0.0666  0.1088
   36CHL1  H26C 2660   4.952   5.058   8.683  2.2393 -1.5538  0.8048
   36CHL1   C27 2661   5.158   4.951   8.533 -0.8188 -0.2615  0.1441
   36CHL1  H27A 2662   5.260   4.966   8.490 -0.3095 -1.7705  0.7405
   36CHL1  H27B 2663   5.165   4.932   8.642 -0.3600 -0.5770  0.0657
   36CHL1  H27C 2664   5.106   4.864   8.488 -1.5187  0.6022 -0.7789
   37CHL1    C3 2665   2.641   0.287   6.955  0.0237  0.4322  0.8463
   37CHL1    H3 2666   2.733   0.227   6.970  0.8385  1.5619  0.4799
   37CHL1    O3 2667   2.636   0.294   6.816  0.0037  0.1778  0.3886
   37CHL1   H3' 2668   2.550   0.330   6.794 -0.3123 -0.7797  0.0086
   37CHL1    C4 2669   2.506   0.215   7.007  0.0173  0.6962 -0.2519
   37CHL1   H4A 2670   2.418   0.269   6.968  0.2726 -0.0484 -1.9609
   37CHL1   H4B 2671   2.504   0.118   6.953  1.0625  0.3122  0.3749
   37CHL1    C5 2672   2.521   0.213   7.156  0.2572 -0.3943 -0.2339
   37CHL1    C6 2673   2.527   0.100   7.221  0.2270  0.4666  0.5003
   37CHL1    H6 2674   2.529   0.007   7.162 -1.1127  0.7605 -0.0252
   37CHL1    C7 2675   2.534   0.086   7.369 -0.3252 -0.2030 -0.2038
   37CHL1   H7A 2676   2.474  -0.001   7.401  1.2478 -0.7610  1.4123
   37CHL1   H7B 2677   2.638   0.078   7.408  0.1225 -1.0997 -1.5141
   37CHL1    C8 2678   2.486   0.209   7.440  0.6859 -1.0215  0.3682
   37CHL1    H8 2679   2.379   0.228   7.416  1.0586 -1.2833 -1.7424
   37CHL1   C14 2680   2.504   0.194   7.596  0.8872 -0.4112  0.1126
   37CHL1   H14 2681   2.613   0.187   7.620  0.3462 -2.0300  2.3697
   37CHL1   C15 2682   2.435   0.079   7.669 -0.7554 -0.3320  0.6087
   37CHL1  H15A 2683   2.330   0.074   7.632 -0.3028 -1.4190 -0.5900
   37CHL1  H15B 2684   2.478  -0.022   7.649  0.8355  0.6303 -1.1271
   37CHL1   C16 2685   2.445   0.121   7.816  0.6507 -0.3139 -0.4279
   37CHL1  H16A 2686   2.344   0.123   7.862 -0.8106  0.6108 -3.4331
   37CHL1  H16B 2687   2.502   0.040   7.867  0.0168 -2.6010 -3.1381
   37CHL1   C17 2688   2.492   0.266   7.812 -0.2218 -0.1564 -0.8177
   37CHL1   H17 2689   2.603   0.266   7.815 -0.2216  1.3280 -0.1454
   37CHL1   C13 2690   2.458   0.319   7.675 -0.3852 -0.8693 -0.7962
   37CHL1   C18 2691   2.310   0.353   7.667  0.5129  0.2631  0.0012
   37CHL1  H18A 2692   2.296   0.448   7.724  1.6042 -0.3248  1.3229
   37CHL1  H18B 2693   2.294   0.362   7.558  2.5858  0.7518 -0.2964
   37CHL1  H18C 2694   2.242   0.273   7.704 -3.2121  2.6976 -0.9577
   37CHL1   C12 2695   2.542   0.440   7.629 -0.2495  0.6630  0.0175
   37CHL1  H12A 2696   2.500   0.532   7.675 -0.0139 -0.0261  1.6633
   37CHL1  H12B 2697   2.644   0.430   7.673  0.0113 -1.8950 -0.9876
   37CHL1   C11 2698   2.532   0.456   7.479 -0.3103  0.4117  0.0111
   37CHL1  H11A 2699   2.425   0.479   7.456 -0.5897 -1.9911 -1.5728
   37CHL1  H11B 2700   2.598   0.539   7.448  2.7890 -1.5658  0.8143
   37CHL1    C9 2701   2.557   0.331   7.388  0.1785 -0.0807 -0.0971
   37CHL1    H9 2702   2.666   0.309   7.392  0.0811 -0.6652 -0.5431
   37CHL1   C10 2703   2.529   0.355   7.227 -0.7578 -0.1424  0.4020
   37CHL1   C19 2704   2.398   0.429   7.204 -0.1677  0.1667 -0.4782
   37CHL1  H19A 2705   2.421   0.531   7.240 -0.0991  0.3134 -0.9388
   37CHL1  H19B 2706   2.364   0.441   7.099 -2.3206  2.2674  0.3963
   37CHL1  H19C 2707   2.319   0.378   7.262  0.5675 -2.5200 -1.6751
   37CHL1    C1 2708   2.650   0.429   7.169  0.0669  0.2075 -0.1221
   37CHL1   H1A 2709   2.649   0.532   7.211 -1.6424 -0.2225  0.9718
   37CHL1   H1B 2710   2.749   0.390   7.202  1.0135  2.3539 -0.2613
   37CHL1    C2 2711   2.654   0.426   7.011 -0.1154  0.1620 -0.9115
   37CHL1   H2A 2712   2.754   0.465   6.984  0.8287 -2.0148 -0.7510
   37CHL1   H2B 2713   2.576   0.493   6.968 -0.1166  0.5110 -0.3820
   37CHL1   C20 2714   2.452   0.332   7.943  0.2541  0.5936 -0.2857
   37CHL1   H20 2715   2.342   0.346   7.950  0.0921  1.3524 -3.0222
   37CHL1   C21 2716   2.512   0.475   7.958 -0.0468 -0.1394 -0.5773
   37CHL1  H21A 2717   2.475   0.544   7.879 -0.1184  2.1651  1.3727
   37CHL1  H21B 2718   2.623   0.467   7.966 -0.2194 -1.4619  0.9326
   37CHL1  H21C 2719   2.474   0.521   8.051 -1.3484 -2.3741  0.0747
   37CHL1   C22 2720   2.508   0.252   8.058 -0.3601 -0.1319  0.2419
   37CHL1  H22A 2721   2.461   0.151   8.064  1.5980 -1.0686  0.7370
   37CHL1  H22B 2722   2.613   0.221   8.038  0.2404  0.7512  1.8512
   37CHL1   C23 2723   2.503   0.312   8.196  1.0138  0.1996 -0.2764
   37CHL1  H23A 2724   2.561   0.406   8.207 -0.3871  0.9986  0.6228
   37CHL1  H23B 2725   2.399   0.338   8.228  0.2635 -0.7187 -1.8385
   37CHL1   C24 2726   2.561   0.206   8.291 -0.2500  0.5278 -0.3533
   37CHL1  H24A 2727   2.511   0.109   8.272  0.1900  0.0793  0.7383
   37CHL1  H24B 2728   2.669   0.201   8.265 -0.4348  0.4616 -1.1377
   37CHL1   C25 2729   2.545   0.242   8.440  0.6230 -0.0406  0.3343
   37CHL1   H25 2730   2.442   0.285   8.435  0.5204 -0.3212  0.0144
   37CHL1   C26 2731   2.563   0.128   8.539  0.6771 -0.3386  0.1662
   37CHL1  H26A 2732   2.549   0.168   8.641 -1.2084 -0.2681 -0.0790
   37CHL1  H26B 2733   2.483   0.053   8.520  1.3504 -0.8357 -0.8180
   37CHL1  H26C 2734   2.661   0.086   8.509  0.5796  0.4535 -1.3724
   37CHL1   C27 2735   2.656   0.346   8.482 -0.0501 -0.1509  0.0528
   37CHL1  H27A 2736   2.640   0.379   8.587  0.6528  3.4817 -0.8423
   37CHL1  H27B 2737   2.755   0.299   8.470  0.7045  1.4585 -0.2792
   37CHL1  H27C 2738   2.663   0.443   8.429  1.4666  1.3776  2.8273
   38CHL1    C3 2739   6.021   0.502   6.802 -0.0146 -0.3918  0.6129
   38CHL1    H3 2740   5.916   0.477   6.828 -0.1793 -1.6234 -1.0642
   38CHL1    O3 2741   6.030   0.493   6.661 -0.2277 -0.1387 -0.1561
   38CHL1   H3' 2742   5.953   0.542   6.632  1.1542  2.1213 -0.2773
   38CHL1    C4 2743   6.052   0.646   6.845  0.3574 -0.9299 -0.6230
   38CHL1   H4A 2744   6.138   0.699   6.800 -1.7111  2.8108 -0.6412
   38CHL1   H4B 2745   5.959   0.702   6.817  1.2154  1.1865  0.4908
   38CHL1    C5 2746   6.070   0.663   6.995  0.5142  0.1092 -0.3734
   38CHL1    C6 2747   6.001   0.753   7.075 -0.0657  0.0807 -0.3347
   38CHL1    H6 2748   5.933   0.821   7.022  0.9793  0.5212 -1.1600
   38CHL1    C7 2749   6.022   0.758   7.218  0.1744 -0.8484 -0.4060
   38CHL1   H7A 2750   6.024   0.862   7.257 -2.9304 -1.4030  1.5710
   38CHL1   H7B 2751   5.929   0.709   7.254 -0.6549 -0.3833 -1.8350
   38CHL1    C8 2752   6.142   0.679   7.275 -0.3576 -0.4721 -0.9280
   38CHL1    H8 2753   6.240   0.730   7.261 -0.9781  1.1620  0.2573
   38CHL1   C14 2754   6.123   0.660   7.423 -0.5120  0.4012  0.1755
   38CHL1   H14 2755   6.032   0.597   7.423 -1.9420  2.3764  0.1998
   38CHL1   C15 2756   6.091   0.777   7.506 -0.4317  0.4415 -0.8596
   38CHL1  H15A 2757   6.148   0.864   7.469  0.0348  0.2252 -0.6512
   38CHL1  H15B 2758   5.983   0.795   7.485 -0.6389 -2.6928 -3.3136
   38CHL1   C16 2759   6.110   0.730   7.647 -0.4090  0.2633  0.1298
   38CHL1  H16A 2760   6.184   0.800   7.692  0.0067  1.3714 -2.1410
   38CHL1  H16B 2761   6.023   0.725   7.716 -1.2127  0.7477 -0.8305
   38CHL1   C17 2762   6.164   0.582   7.634 -0.6972  0.2132  0.5438
   38CHL1   H17 2763   6.068   0.525   7.634 -0.6448  0.1118 -0.1232
   38CHL1   C13 2764   6.231   0.582   7.493  0.0322 -0.1798  1.3099
   38CHL1   C18 2765   6.360   0.658   7.481 -0.9752 -0.0792 -0.7628
   38CHL1  H18A 2766   6.404   0.647   7.380  0.6671  0.5706 -0.1459
   38CHL1  H18B 2767   6.356   0.768   7.496 -3.9124 -0.0287 -1.2361
   38CHL1  H18C 2768   6.440   0.623   7.550 -1.0840  1.9591  0.4790
   38CHL1   C12 2769   6.245   0.442   7.429  0.0842  0.3523 -0.1191
   38CHL1  H12A 2770   6.334   0.390   7.469  0.0712  0.4099 -0.0143
   38CHL1  H12B 2771   6.157   0.380   7.455  0.1167  1.2212  2.2280
   38CHL1   C11 2772   6.262   0.455   7.275  0.5789 -0.8914 -0.6962
   38CHL1  H11A 2773   6.356   0.513   7.260 -0.9254  2.4604  1.5377
   38CHL1  H11B 2774   6.269   0.357   7.224 -0.1064 -0.8520 -0.8775
   38CHL1    C9 2775   6.151   0.545   7.208 -0.1585  0.1870 -0.8219
   38CHL1    H9 2776   6.062   0.485   7.235  0.5249 -0.7120 -0.5036
   38CHL1   C10 2777   6.163   0.556   7.058  0.7811 -0.3216  0.1870
   38CHL1   C19 2778   6.312   0.592   7.011  0.6573  0.4877  0.2185
   38CHL1  H19A 2779   6.320   0.602   6.900  0.5633 -1.2511  0.0292
   38CHL1  H19B 2780   6.342   0.691   7.052  0.2393  0.4315  0.6543
   38CHL1  H19C 2781   6.390   0.515   7.029  1.7010  1.9270  2.2583
   38CHL1    C1 2782   6.136   0.413   7.002 -0.7479  0.0363 -0.9232
   38CHL1   H1A 2783   6.212   0.336   7.030 -0.9999  0.8034  2.1692
   38CHL1   H1B 2784   6.042   0.369   7.043  0.8692 -2.1517  0.6937
   38CHL1    C2 2785   6.114   0.400   6.853 -0.3150 -0.3578 -0.5789
   38CHL1   H2A 2786   6.072   0.299   6.830 -0.3761  0.0992 -2.6334
   38CHL1   H2B 2787   6.215   0.409   6.807  0.2073 -1.9738  0.1455
   38CHL1   C20 2788   6.264   0.544   7.746  0.2619 -0.2049  0.3801
   38CHL1   H20 2789   6.358   0.604   7.741  0.2097  0.0977  2.3081
   38CHL1   C21 2790   6.300   0.392   7.748  0.3262 -0.3733  0.1964
   38CHL1  H21A 2791   6.357   0.361   7.659 -0.1564  1.6920 -0.9056
   38CHL1  H21B 2792   6.200   0.344   7.750 -0.2243  0.7458  1.5808
   38CHL1  H21C 2793   6.361   0.364   7.837 -0.3469 -0.6110  0.5926
   38CHL1   C22 2794   6.212   0.578   7.883 -0.7801  0.4500 -0.0957
   38CHL1  H22A 2795   6.155   0.673   7.892  0.8636  1.8399 -2.8392
   38CHL1  H22B 2796   6.141   0.498   7.912 -1.0457  0.6047 -0.3134
   38CHL1   C23 2797   6.321   0.590   7.995  0.4744  0.1052  0.2509
   38CHL1  H23A 2798   6.391   0.504   7.995 -0.0021 -0.3160  1.5929
   38CHL1  H23B 2799   6.386   0.678   7.975 -1.1909  1.6205  1.2080
   38CHL1   C24 2800   6.256   0.593   8.140  0.5700  0.1456 -0.4055
   38CHL1  H24A 2801   6.177   0.672   8.135 -0.3834 -0.6614  1.1423
   38CHL1  H24B 2802   6.205   0.498   8.168  3.1722 -0.4580  2.8385
   38CHL1   C25 2803   6.350   0.611   8.257  0.0599 -0.1689 -0.1128
   38CHL1   H25 2804   6.419   0.695   8.233  1.6157 -0.8656  1.6852
   38CHL1   C26 2805   6.271   0.642   8.384  0.1457  0.0296  0.3425
   38CHL1  H26A 2806   6.206   0.726   8.351 -0.7367 -0.1384  1.5947
   38CHL1  H26B 2807   6.207   0.554   8.405  1.4241 -1.1724 -0.6053
   38CHL1  H26C 2808   6.334   0.677   8.469 -0.1032 -0.1003  0.5803
   38CHL1   C27 2809   6.439   0.489   8.277 -0.3097 -0.5186 -0.2758
   38CHL1  H27A 2810   6.503   0.514   8.364  0.2118  1.8457 -1.2788
   38CHL1  H27B 2811   6.384   0.399   8.313  1.3944 -1.3014  0.4926
   38CHL1  H27C 2812   6.504   0.465   8.190 -0.0144 -1.3570  0.1620
   39CHL1    C3 2813   4.882   6.645   6.830 -0.1540 -0.1171 -0.2148
   39CHL1    H3 2814   4.793   6.711   6.836  0.5960  0.9602 -0.7851
   39CHL1    O3 2815   4.900   6.630   6.692  0.3417 -0.2072  0.0779
   39CHL1   H3' 2816   4.871   6.714   6.655  1.4163  1.1152  2.0748
   39CHL1    C4 2817   5.004   6.714   6.901  0.2792  0.1592  0.2762
   39CHL1   H4A 2818   5.096   6.656   6.878  0.4678 -0.0632  1.5149
   39CHL1   H4B 2819   5.010   6.812   6.848  1.5820 -0.0507 -0.0153
   39CHL1    C5 2820   4.990   6.734   7.049  0.3508 -0.2355 -0.2754
   39CHL1    C6 2821   5.004   6.861   7.104 -0.2258 -0.0118  0.3743
   39CHL1    H6 2822   5.014   6.949   7.040 -2.6443 -0.6361 -0.9928
   39CHL1    C7 2823   4.988   6.886   7.253 -0.3600  0.1276  0.4643
   39CHL1   H7A 2824   5.063   6.956   7.295 -0.0874  0.3974 -0.4461
   39CHL1   H7B 2825   4.887   6.928   7.275 -1.8099 -2.8800  0.0970
   39CHL1    C8 2826   4.985   6.755   7.330  0.7052 -0.3463 -0.8025
   39CHL1    H8 2827   5.087   6.711   7.327  0.4083 -1.0122 -1.9490
   39CHL1   C14 2828   4.931   6.777   7.476 -0.1691 -0.8694  0.5275
   39CHL1   H14 2829   4.825   6.810   7.474  0.1015  0.0435 -1.7413
   39CHL1   C15 2830   4.999   6.885   7.563  0.1262  0.6834  0.1894
   39CHL1  H15A 2831   5.103   6.908   7.529  0.1971 -0.9596 -0.8212
   39CHL1  H15B 2832   4.939   6.977   7.545  0.0451  0.7048  0.5744
   39CHL1   C16 2833   4.982   6.842   7.711  0.5118 -0.2945  0.3584
   39CHL1  H16A 2834   5.081   6.834   7.762  0.5446  0.9237  0.5042
   39CHL1  H16B 2835   4.930   6.918   7.772  2.4583  0.8582  0.6708
   39CHL1   C17 2836   4.911   6.702   7.710 -0.2848 -0.3207  0.0432
   39CHL1   H17 2837   4.802   6.723   7.712 -0.3587 -0.7011  0.2250
   39CHL1   C13 2838   4.943   6.651   7.567 -0.8406  0.1805 -0.7597
   39CHL1   C18 2839   5.090   6.594   7.565  0.4587  0.3202 -0.2748
   39CHL1  H18A 2840   5.099   6.503   7.627  2.2796 -0.1040 -1.0895
   39CHL1  H18B 2841   5.117   6.554   7.465 -1.5323 -1.4800 -0.1487
   39CHL1  H18C 2842   5.176   6.657   7.597  1.4568 -0.4506 -1.3331
   39CHL1   C12 2843   4.841   6.558   7.505  0.2957  0.6349  0.1493
   39CHL1  H12A 2844   4.831   6.456   7.550 -2.7043  0.2031 -1.2600
   39CHL1  H12B 2845   4.745   6.613   7.502 -2.5005 -3.7147  0.0158
   39CHL1   C11 2846   4.874   6.526   7.359  0.6029 -0.8156  0.3081
   39CHL1  H11A 2847   4.966   6.463   7.356 -1.2402 -3.7285  0.5136
   39CHL1  H11B 2848   4.796   6.466   7.309  0.3936  0.7099 -1.3031
   39CHL1    C9 2849   4.899   6.649   7.265  0.3170 -0.1054 -0.1685
   39CHL1    H9 2850   4.801   6.701   7.257 -0.7406 -2.1098 -1.2298
   39CHL1   C10 2851   4.947   6.608   7.122 -0.1340  0.7191  0.1065
   39CHL1   C19 2852   5.067   6.505   7.131  0.2741 -0.7286 -0.2658
   39CHL1  H19A 2853   5.101   6.492   7.026 -2.8134 -1.7846 -1.2423
   39CHL1  H19B 2854   5.146   6.543   7.199 -0.5010  2.4832 -1.0027
   39CHL1  H19C 2855   5.041   6.402   7.164  0.5023 -1.0241 -0.9935
   39CHL1    C1 2856   4.817   6.552   7.047 -0.7205  0.3028 -0.1303
   39CHL1   H1A 2857   4.800   6.461   7.109 -0.4598  0.0648 -0.4078
   39CHL1   H1B 2858   4.735   6.625   7.034  0.0076  0.6313 -3.7733
   39CHL1    C2 2859   4.843   6.510   6.899 -0.1232  0.5585 -0.9706
   39CHL1   H2A 2860   4.758   6.469   6.839 -0.2844 -1.6531  0.6258
   39CHL1   H2B 2861   4.933   6.445   6.897 -1.5846 -1.5979 -0.2155
   39CHL1   C20 2862   4.943   6.617   7.840 -0.0246 -0.6290  0.8349
   39CHL1   H20 2863   5.052   6.597   7.843 -0.2054 -1.7830  0.1858
   39CHL1   C21 2864   4.860   6.487   7.828  0.0417 -0.0562 -0.1661
   39CHL1  H21A 2865   4.870   6.431   7.923  0.3101 -1.8005 -1.1668
   39CHL1  H21B 2866   4.900   6.419   7.750  2.0072  0.2091  0.5611
   39CHL1  H21C 2867   4.756   6.515   7.802 -0.3562 -0.6411  0.7548
   39CHL1   C22 2868   4.894   6.696   7.957  1.0290 -0.2626 -0.2830
   39CHL1  H22A 2869   4.929   6.801   7.959  0.6463 -0.1317 -0.4050
   39CHL1  H22B 2870   4.784   6.687   7.969  1.0398  0.9343  0.9386
   39CHL1   C23 2871   4.947   6.633   8.092  1.0588 -0.0486  0.4116
   39CHL1  H23A 2872   4.890   6.540   8.116  1.1727 -0.5249 -1.1014
   39CHL1  H23B 2873   5.054   6.606   8.086  0.7874 -1.0190 -0.2975
   39CHL1   C24 2874   4.928   6.726   8.222 -0.4711 -0.0806  0.7766
   39CHL1  H24A 2875   5.010   6.800   8.218 -1.1781  0.7266  0.8195
   39CHL1  H24B 2876   4.828   6.771   8.201  0.3591  1.5957  0.2389
   39CHL1   C25 2877   4.957   6.664   8.361  0.3882  0.2078 -0.1715
   39CHL1   H25 2878   4.910   6.726   8.440  1.7360 -0.0901  0.9136
   39CHL1   C26 2879   4.902   6.528   8.398 -0.3073  0.5528 -0.2040
   39CHL1  H26A 2880   4.903   6.498   8.505 -2.9578 -2.2563 -0.8067
   39CHL1  H26B 2881   4.801   6.518   8.353 -1.1711 -0.7920  1.9127
   39CHL1  H26C 2882   4.966   6.451   8.349 -0.7006 -1.0660  1.7118
   39CHL1   C27 2883   5.108   6.664   8.393 -0.6419  0.1830 -0.2015
   39CHL1  H27A 2884   5.128   6.616   8.492  0.1631 -1.7740 -1.2492
   39CHL1  H27B 2885   5.166   6.607   8.317 -0.7836 -0.0696 -0.1226
   39CHL1  H27C 2886   5.142   6.769   8.406  1.5463 -0.6858  1.9351
   40CHL1    C3 2887   0.628   5.933   6.931 -0.1430 -0.3270 -0.5025
   40CHL1    H3 2888   0.553   5.997   6.982  0.3865  1.7654 -2.1850
   40CHL1    O3 2889   0.599   5.933   6.793  0.0720 -0.5228 -0.6857
   40CHL1   H3' 2890   0.667   5.884   6.746 -0.0107  0.7553 -2.2389
   40CHL1    C4 2891   0.760   6.009   6.973 -0.6018  0.7359  0.2179
   40CHL1   H4A 2892   0.846   5.952   6.931 -0.1448 -0.0406  2.1058
   40CHL1   H4B 2893   0.767   6.103   6.914 -0.0414  0.9972  0.6986
   40CHL1    C5 2894   0.777   6.009   7.128  0.2448 -0.0251 -0.2803
   40CHL1    C6 2895   0.795   6.117   7.203 -0.6590 -0.5961  0.1818
   40CHL1    H6 2896   0.798   6.212   7.147  0.1181 -0.2101  0.8533
   40CHL1    C7 2897   0.810   6.128   7.349  0.3519 -0.1802 -0.5534
   40CHL1   H7A 2898   0.875   6.214   7.378  1.1200 -1.4776  1.7819
   40CHL1   H7B 2899   0.708   6.154   7.382  1.2326  0.9454  1.4580
   40CHL1    C8 2900   0.850   5.995   7.408 -0.0984  0.0138  0.2072
   40CHL1    H8 2901   0.957   5.980   7.382 -0.1414  1.2670 -0.8156
   40CHL1   C14 2902   0.838   5.991   7.559 -0.3240 -0.4716 -0.3193
   40CHL1   H14 2903   0.729   6.003   7.575  0.1331  1.9512  1.7268
   40CHL1   C15 2904   0.901   6.103   7.639 -0.2546  0.1356 -0.2515
   40CHL1  H15A 2905   0.998   6.129   7.591 -1.4052  1.5613 -1.8904
   40CHL1  H15B 2906   0.846   6.199   7.640  1.8302  1.4584 -2.2850
   40CHL1   C16 2907   0.918   6.054   7.779  0.0605  1.0174 -0.5228
   40CHL1  H16A 2908   1.023   6.056   7.817 -0.1867 -1.0085  0.4423
   40CHL1  H16B 2909   0.860   6.110   7.855 -0.9959  0.8358 -1.1837
   40CHL1   C17 2910   0.866   5.906   7.777  0.0184 -0.3385  1.0240
   40CHL1   H17 2911   0.756   5.908   7.786  0.0252  1.6112  0.9957
   40CHL1   C13 2912   0.876   5.866   7.625 -0.5734  0.7802 -1.0213
   40CHL1   C18 2913   1.022   5.830   7.606 -0.7920 -0.6134  0.2359
   40CHL1  H18A 2914   1.100   5.900   7.642 -0.0349 -1.3099 -0.0165
   40CHL1  H18B 2915   1.031   5.728   7.648  2.0309 -1.1913 -1.5484
   40CHL1  H18C 2916   1.046   5.819   7.498 -0.5179 -1.1732  0.3537
   40CHL1   C12 2917   0.779   5.756   7.570 -0.1477 -0.2166  0.1150
   40CHL1  H12A 2918   0.817   5.658   7.607 -1.0445 -0.2062  1.1409
   40CHL1  H12B 2919   0.674   5.764   7.607 -0.0858  1.2780  0.0268
   40CHL1   C11 2920   0.794   5.754   7.414  0.5800  0.5395 -0.5296
   40CHL1  H11A 2921   0.894   5.715   7.388  0.1267 -0.7201 -0.4539
   40CHL1  H11B 2922   0.726   5.673   7.379  0.6110 -0.5003  1.6688
   40CHL1    C9 2923   0.765   5.885   7.346 -0.3847 -0.2202  0.1066
   40CHL1    H9 2924   0.660   5.918   7.365 -1.6190 -3.0719 -1.2027
   40CHL1   C10 2925   0.768   5.871   7.191  0.3949 -1.5345 -0.0513
   40CHL1   C19 2926   0.884   5.782   7.156  0.1903  0.5515  0.1229
   40CHL1  H19A 2927   0.899   5.785   7.046  0.9737 -1.6486  0.1206
   40CHL1  H19B 2928   0.980   5.808   7.204  0.9961  0.3436 -1.3160
   40CHL1  H19C 2929   0.861   5.676   7.181 -0.9177  0.1342 -2.3158
   40CHL1    C1 2930   0.637   5.809   7.140 -0.3413 -0.4916 -0.4882
   40CHL1   H1A 2931   0.633   5.710   7.190  0.9067  1.2477  3.5081
   40CHL1   H1B 2932   0.548   5.859   7.186  1.2120  1.5162  0.5127
   40CHL1    C2 2933   0.626   5.794   6.982  0.1509 -0.2404  0.3410
   40CHL1   H2A 2934   0.531   5.743   6.954 -0.2628  0.4260  0.5176
   40CHL1   H2B 2935   0.710   5.733   6.943  1.1820  1.2458  0.1671
   40CHL1   C20 2936   0.923   5.823   7.886  0.6036 -0.4226  0.1008
   40CHL1   H20 2937   1.034   5.826   7.885  0.6420 -1.5432 -0.2529
   40CHL1   C21 2938   0.860   5.674   7.889  0.4229 -0.0023 -0.1962
   40CHL1  H21A 2939   0.894   5.627   7.793 -0.6805  1.6895 -1.4723
   40CHL1  H21B 2940   0.750   5.678   7.882  0.2830 -1.0380  1.0849
   40CHL1  H21C 2941   0.891   5.605   7.970 -0.5751  0.9079  0.9862
   40CHL1   C22 2942   0.892   5.905   8.018  0.4572  0.3330  0.7822
   40CHL1  H22A 2943   0.942   6.004   8.019 -1.1919  1.4641 -3.5619
   40CHL1  H22B 2944   0.784   5.931   8.024  0.5531  1.1419 -0.6000
   40CHL1   C23 2945   0.928   5.834   8.157  0.0873 -0.0495  0.1347
   40CHL1  H23A 2946   0.833   5.777   8.169 -0.0893  0.2061 -0.0298
   40CHL1  H23B 2947   1.008   5.758   8.145  0.6955  0.9027 -2.6295
   40CHL1   C24 2948   0.965   5.922   8.282  0.2729  0.4064  0.2557
   40CHL1  H24A 2949   1.067   5.962   8.265  0.6079 -0.1499  0.9386
   40CHL1  H24B 2950   0.896   6.009   8.288  2.2359  1.9574  1.8558
   40CHL1   C25 2951   0.946   5.842   8.414 -0.0995 -1.0621 -0.0042
   40CHL1   H25 2952   0.996   5.746   8.390 -0.8753 -1.1834 -1.1917
   40CHL1   C26 2953   1.015   5.917   8.530 -1.1470  0.0033  0.5803
   40CHL1  H26A 2954   1.121   5.930   8.498 -1.4723 -0.1578 -0.6194
   40CHL1  H26B 2955   0.971   6.016   8.554 -1.7907 -0.5787  1.8749
   40CHL1  H26C 2956   1.008   5.836   8.605 -3.3905 -0.9093 -0.5293
   40CHL1   C27 2957   0.800   5.812   8.455 -0.3102  0.0804  0.1343
   40CHL1  H27A 2958   0.758   5.905   8.500 -0.0324  0.9162 -1.2794
   40CHL1  H27B 2959   0.741   5.781   8.366 -1.0749  1.2105  0.2306
   40CHL1  H27C 2960   0.780   5.726   8.523 -2.3048 -1.0671 -1.7691
   41CHL1    C3 2961   1.976   6.010   7.059 -0.3192  0.0322  0.0052
   41CHL1    H3 2962   2.034   5.916   7.048 -0.0291 -0.1977  2.8822
   41CHL1    O3 2963   1.924   6.031   6.933  0.4326 -0.2968  0.4390
   41CHL1   H3' 2964   1.995   6.042   6.870  0.0593 -1.0608 -0.1400
   41CHL1    C4 2965   1.868   5.971   7.154  0.5168  0.1459  0.0091
   41CHL1   H4A 2966   1.788   6.047   7.141 -0.5466 -1.0225 -0.4935
   41CHL1   H4B 2967   1.813   5.880   7.122 -0.8387  0.0258  2.3892
   41CHL1    C5 2968   1.914   5.952   7.300 -0.1506  0.1358 -0.2074
   41CHL1    C6 2969   1.876   5.839   7.368 -0.8114 -0.0515 -0.1069
   41CHL1    H6 2970   1.808   5.764   7.326 -0.0235 -1.2745  0.7333
   41CHL1    C7 2971   1.920   5.816   7.510  0.3691  0.3303  0.8771
   41CHL1   H7A 2972   1.825   5.801   7.564 -0.5744 -2.5730 -1.2953
   41CHL1   H7B 2973   1.990   5.729   7.514  0.9893  0.5432 -2.5277
   41CHL1    C8 2974   1.987   5.942   7.578 -0.0590  0.0361 -0.0005
   41CHL1    H8 2975   1.909   6.016   7.609 -1.0353 -1.3024  0.8536
   41CHL1   C14 2976   2.059   5.899   7.704 -0.1217  0.1323 -0.1488
   41CHL1   H14 2977   2.148   5.838   7.676 -0.7314 -0.3696 -1.0264
   41CHL1   C15 2978   1.979   5.829   7.812  0.6672  0.2192  1.2424
   41CHL1  H15A 2979   1.877   5.873   7.826  0.7911  0.6931  0.6945
   41CHL1  H15B 2980   1.965   5.724   7.780  3.1520 -0.6216  2.6514
   41CHL1   C16 2981   2.063   5.859   7.936  0.0745 -0.3690  0.7451
   41CHL1  H16A 2982   2.009   5.899   8.024 -2.0954 -0.2457 -0.5561
   41CHL1  H16B 2983   2.113   5.763   7.962  2.6725  1.1183  1.5399
   41CHL1   C17 2984   2.182   5.946   7.898 -0.0592 -0.0314 -0.5199
   41CHL1   H17 2985   2.259   5.876   7.860 -1.3292 -1.0607 -1.2908
   41CHL1   C13 2986   2.127   6.015   7.781 -0.0481  0.2177  0.3940
   41CHL1   C18 2987   2.020   6.118   7.824 -0.2979 -0.5171  0.1879
   41CHL1  H18A 2988   1.949   6.085   7.903 -1.3123 -0.1763 -0.5546
   41CHL1  H18B 2989   2.071   6.206   7.867  3.3179 -2.8273  1.0863
   41CHL1  H18C 2990   1.964   6.166   7.741  0.8795  1.7910  0.6371
   41CHL1   C12 2991   2.229   6.077   7.680  0.0840 -0.0086  0.0882
   41CHL1  H12A 2992   2.281   6.165   7.724 -1.8426  1.3660 -0.2878
   41CHL1  H12B 2993   2.315   6.006   7.669  0.4572  0.2582  1.1028
   41CHL1   C11 2994   2.169   6.119   7.551 -0.4215 -0.1113 -0.3304
   41CHL1  H11A 2995   2.108   6.210   7.567  2.6297  2.0736 -0.1807
   41CHL1  H11B 2996   2.254   6.149   7.486  0.1833 -0.9239  0.0621
   41CHL1    C9 2997   2.084   6.011   7.485  0.2773 -0.3297  0.7787
   41CHL1    H9 2998   2.158   5.933   7.455 -0.8628 -1.3353  0.5046
   41CHL1   C10 2999   2.010   6.056   7.358  0.0432  0.5797 -0.6415
   41CHL1   C19 3000   1.918   6.179   7.395  0.2089  0.3128 -0.4424
   41CHL1  H19A 3001   1.855   6.197   7.306 -1.0422 -0.4139  0.2756
   41CHL1  H19B 3002   1.861   6.180   7.490 -1.6482  0.5151 -1.5214
   41CHL1  H19C 3003   1.988   6.265   7.409  0.1333  0.0811  1.7445
   41CHL1    C1 3004   2.116   6.108   7.251 -0.7867 -0.8958 -0.1208
   41CHL1   H1A 3005   2.159   6.201   7.293 -1.8172 -0.7128  0.5604
   41CHL1   H1B 3006   2.195   6.031   7.237 -0.9090 -0.9381 -0.5963
   41CHL1    C2 3007   2.061   6.129   7.113  0.3301  0.2155  0.8444
   41CHL1   H2A 3008   2.145   6.150   7.044  0.3411  2.2938  1.4406
   41CHL1   H2B 3009   1.992   6.214   7.099 -1.8506 -1.2728  1.9296
   41CHL1   C20 3010   2.234   6.023   8.018 -0.3401  0.6773  0.0779
   41CHL1   H20 3011   2.161   6.107   8.023  1.4574  2.2728  0.6798
   41CHL1   C21 3012   2.373   6.076   7.977 -0.1969 -0.1003  0.0507
   41CHL1  H21A 3013   2.452   6.000   7.957  3.1014  2.7892  1.1668
   41CHL1  H21B 3014   2.421   6.138   8.055  1.3538  0.9404 -1.6519
   41CHL1  H21C 3015   2.360   6.150   7.895 -2.4379 -1.0536 -0.5419
   41CHL1   C22 3016   2.232   5.955   8.162  0.0998  0.4645  0.3302
   41CHL1  H22A 3017   2.128   5.958   8.200 -0.1788 -2.0881 -0.0516
   41CHL1  H22B 3018   2.273   5.852   8.168  2.5784  1.3749  0.1702
   41CHL1   C23 3019   2.290   6.043   8.279 -0.9414  0.6366  0.4972
   41CHL1  H23A 3020   2.401   6.040   8.269 -0.7909  2.9779  0.7911
   41CHL1  H23B 3021   2.290   6.153   8.260  1.4857  0.4288 -1.2100
   41CHL1   C24 3022   2.249   5.982   8.412 -0.2312  0.0868  0.9600
   41CHL1  H24A 3023   2.138   5.987   8.423 -0.4112  0.3307 -0.7287
   41CHL1  H24B 3024   2.293   5.880   8.412 -2.5581 -1.0166 -0.8931
   41CHL1   C25 3025   2.310   6.041   8.541  0.0024 -0.5626  0.0866
   41CHL1   H25 3026   2.420   6.050   8.524 -0.1216  0.2325 -0.3928
   41CHL1   C26 3027   2.258   6.179   8.567  0.4619  0.3456 -0.3270
   41CHL1  H26A 3028   2.286   6.212   8.669 -3.5025  1.3710  0.5883
   41CHL1  H26B 3029   2.284   6.250   8.486 -0.5236 -1.5400 -2.4300
   41CHL1  H26C 3030   2.148   6.174   8.582  0.4354 -2.7347 -0.8681
   41CHL1   C27 3031   2.276   5.945   8.658  0.2988 -0.2180 -0.1453
   41CHL1  H27A 3032   2.170   5.919   8.639 -0.4623  2.3938  0.0272
   41CHL1  H27B 3033   2.342   5.856   8.661  1.2240  0.4452 -0.0896
   41CHL1  H27C 3034   2.282   6.002   8.754  1.5297  0.2214 -0.4603
   42CHL1    C3 3035   3.069   4.153   7.148  1.0963 -1.1623 -0.3666
   42CHL1    H3 3036   3.169   4.198   7.131  0.7004  0.5314  1.3804
   42CHL1    O3 3037   2.972   4.213   7.061  0.1788  0.2105  0.4303
   42CHL1   H3' 3038   2.970   4.166   6.978 -2.4390 -1.1948  1.1850
   42CHL1    C4 3039   3.069   4.007   7.126 -0.3500  0.6068  0.3244
   42CHL1   H4A 3040   2.966   3.965   7.125 -0.1644  0.1399  0.4369
   42CHL1   H4B 3041   3.095   3.989   7.019  1.2958 -1.4546  1.0069
   42CHL1    C5 3042   3.167   3.931   7.213  0.1483  0.1014 -0.1658
   42CHL1    C6 3043   3.275   3.862   7.178  0.2853 -0.0174 -0.8470
   42CHL1    H6 3044   3.303   3.856   7.072  1.4709  1.2480 -0.6280
   42CHL1    C7 3045   3.361   3.787   7.273 -0.6019 -0.3847 -0.4743
   42CHL1   H7A 3046   3.388   3.689   7.228  2.0494 -1.0064  2.1666
   42CHL1   H7B 3047   3.451   3.851   7.285 -1.0609  0.2502 -0.3586
   42CHL1    C8 3048   3.297   3.763   7.409  0.1801 -0.5687 -1.1272
   42CHL1    H8 3049   3.221   3.685   7.386 -0.8263  0.0005  0.1402
   42CHL1   C14 3050   3.395   3.702   7.501  0.0269  0.5121 -0.0739
   42CHL1   H14 3051   3.471   3.780   7.522  1.2094 -0.8944  1.0899
   42CHL1   C15 3052   3.485   3.582   7.462  0.7570 -0.4722 -0.0904
   42CHL1  H15A 3053   3.418   3.514   7.405 -1.4242  1.5422 -0.1251
   42CHL1  H15B 3054   3.566   3.609   7.392  0.6156  1.8950  0.5537
   42CHL1   C16 3055   3.537   3.533   7.594 -0.0798  0.0373  0.1435
   42CHL1  H16A 3056   3.530   3.422   7.601  1.7848 -0.2605 -1.7278
   42CHL1  H16B 3057   3.646   3.554   7.602 -0.3869  1.4777  1.0421
   42CHL1   C17 3058   3.466   3.606   7.709 -0.1494  0.3086 -0.2805
   42CHL1   H17 3059   3.538   3.684   7.740  2.8091 -2.2457 -0.2072
   42CHL1   C13 3060   3.344   3.676   7.639 -0.0843  0.5636 -0.3986
   42CHL1   C18 3061   3.223   3.573   7.642  0.6093 -0.5788 -0.0369
   42CHL1  H18A 3062   3.190   3.573   7.748 -3.0545  1.7579 -1.0291
   42CHL1  H18B 3063   3.139   3.617   7.584  1.3095  0.6118 -0.1733
   42CHL1  H18C 3064   3.253   3.471   7.609  0.1150 -0.5817 -0.4916
   42CHL1   C12 3065   3.303   3.812   7.691  0.6565  0.5945 -0.0047
   42CHL1  H12A 3066   3.260   3.792   7.792 -0.9735 -1.2616 -0.9869
   42CHL1  H12B 3067   3.389   3.882   7.689 -0.9356  2.6258 -1.5691
   42CHL1   C11 3068   3.187   3.868   7.603 -0.1826  0.5423 -0.0442
   42CHL1  H11A 3069   3.095   3.807   7.612 -0.0124 -0.1464 -2.4129
   42CHL1  H11B 3070   3.159   3.969   7.640  0.3355 -0.1279  2.3679
   42CHL1    C9 3071   3.231   3.884   7.461  0.1400  0.1758  0.3575
   42CHL1    H9 3072   3.307   3.964   7.469 -0.1703  0.7352 -1.6762
   42CHL1   C10 3073   3.124   3.946   7.360 -0.6937  0.6208 -0.3216
   42CHL1   C19 3074   2.990   3.870   7.391  1.1329 -0.2625  0.6560
   42CHL1  H19A 3075   2.911   3.889   7.314  1.6003 -2.9290 -0.5845
   42CHL1  H19B 3076   3.006   3.763   7.365  0.0224 -0.8469  2.2453
   42CHL1  H19C 3077   2.942   3.897   7.488  1.0700  0.2960  0.4781
   42CHL1    C1 3078   3.107   4.094   7.395 -0.5769 -0.0425 -1.0640
   42CHL1   H1A 3079   3.053   4.117   7.490  0.5026 -2.2106  0.1386
   42CHL1   H1B 3080   3.212   4.128   7.408 -0.6143 -0.5790  1.0967
   42CHL1    C2 3081   3.035   4.177   7.292  0.3420 -0.7846 -0.1205
   42CHL1   H2A 3082   3.047   4.286   7.308 -3.4671  0.1878 -2.5242
   42CHL1   H2B 3083   2.928   4.147   7.299  1.0870 -3.5785  0.5400
   42CHL1   C20 3084   3.446   3.515   7.838 -0.0952  0.2435  0.1118
   42CHL1   H20 3085   3.394   3.422   7.805  1.1243  0.1915 -1.8576
   42CHL1   C21 3086   3.382   3.592   7.948 -0.4647 -0.1270  0.2777
   42CHL1  H21A 3087   3.378   3.522   8.034 -1.6059 -0.1171  0.2493
   42CHL1  H21B 3088   3.281   3.633   7.926 -0.2538 -0.6929 -1.9510
   42CHL1  H21C 3089   3.453   3.673   7.977 -1.6644  0.6583  1.1054
   42CHL1   C22 3090   3.585   3.465   7.888 -0.1216 -0.0283 -0.3810
   42CHL1  H22A 3091   3.639   3.414   7.804  1.5135 -0.8611  1.1132
   42CHL1  H22B 3092   3.644   3.546   7.935  0.3047 -0.5153 -0.0684
   42CHL1   C23 3093   3.569   3.359   8.007 -0.1771 -0.2656 -0.5156
   42CHL1  H23A 3094   3.675   3.336   8.026 -0.5369 -0.8117  0.9490
   42CHL1  H23B 3095   3.535   3.413   8.098 -0.6409  0.8187 -1.3002
   42CHL1   C24 3096   3.482   3.240   7.982  0.3544  0.3487 -0.1309
   42CHL1  H24A 3097   3.374   3.268   7.975  0.0708 -0.6425  0.1211
   42CHL1  H24B 3098   3.514   3.181   7.894 -1.2969  2.1087 -2.0104
   42CHL1   C25 3099   3.481   3.142   8.100 -0.7659  0.6905 -0.6679
   42CHL1   H25 3100   3.466   3.203   8.192 -3.6415  1.0945 -1.2937
   42CHL1   C26 3101   3.360   3.047   8.097  0.2005  0.1389  0.9221
   42CHL1  H26A 3102   3.364   2.966   8.020 -1.2488  0.2329  0.7170
   42CHL1  H26B 3103   3.350   3.001   8.197 -0.6763 -3.4585 -0.6402
   42CHL1  H26C 3104   3.273   3.112   8.071  2.1512  2.1040 -1.1517
   42CHL1   C27 3105   3.613   3.064   8.117  0.5202  0.5313  0.0999
   42CHL1  H27A 3106   3.617   2.976   8.184  0.6217  0.7850  0.4323
   42CHL1  H27B 3107   3.681   3.144   8.154 -1.6594  2.0044  1.1700
   42CHL1  H27C 3108   3.650   3.037   8.016  2.4597  0.7794  0.7089
   43CHL1    C3 3109   3.758   6.150   6.968  0.0374  0.7645  0.6439
   43CHL1    H3 3110   3.806   6.249   6.956  1.7383  0.3867  3.4629
   43CHL1    O3 3111   3.741   6.091   6.837  0.4613  0.2215 -0.1090
   43CHL1   H3' 3112   3.831   6.083   6.804  1.2023 -0.8960  1.9610
   43CHL1    C4 3113   3.832   6.055   7.061 -0.1228  0.5993 -0.5024
   43CHL1   H4A 3114   3.776   5.958   7.062 -0.5063  0.7710  2.2334
   43CHL1   H4B 3115   3.932   6.026   7.024 -1.5764 -0.6473 -3.8750
   43CHL1    C5 3116   3.840   6.113   7.197  0.0568 -0.3148  1.0573
   43CHL1    C6 3117   3.958   6.147   7.258  0.7626  0.3003 -0.6240
   43CHL1    H6 3118   4.056   6.124   7.213  0.9000  0.4875 -0.4195
   43CHL1    C7 3119   3.969   6.203   7.400 -0.3253 -0.1385  0.1858
   43CHL1   H7A 3120   4.049   6.151   7.457 -0.1499  0.3877  0.4299
   43CHL1   H7B 3121   3.994   6.311   7.402 -0.5182 -0.0903  0.0369
   43CHL1    C8 3122   3.844   6.174   7.482 -0.0248 -0.1802 -0.0850
   43CHL1    H8 3123   3.841   6.066   7.509  1.6528 -0.1808  0.2291
   43CHL1   C14 3124   3.859   6.255   7.619  0.2039 -0.2587  0.0605
   43CHL1   H14 3125   3.875   6.357   7.577  1.5728 -1.0975 -1.5872
   43CHL1   C15 3126   3.981   6.225   7.707  0.0284  0.3583  0.9246
   43CHL1  H15A 3127   3.996   6.117   7.729  0.0153  0.4875  1.6056
   43CHL1  H15B 3128   4.078   6.266   7.671  0.1196  0.0609  0.8249
   43CHL1   C16 3129   3.940   6.297   7.834  0.1085  0.5519 -0.2964
   43CHL1  H16A 3130   3.949   6.234   7.925 -1.0767  0.6772 -0.0829
   43CHL1  H16B 3131   4.001   6.390   7.840  2.6618 -1.0818  1.5328
   43CHL1   C17 3132   3.781   6.334   7.829 -0.1003  0.1631  0.3305
   43CHL1   H17 3133   3.784   6.442   7.802 -0.0627 -0.0060 -0.3596
   43CHL1   C13 3134   3.731   6.257   7.705  0.2836  0.0686 -0.1336
   43CHL1   C18 3135   3.704   6.104   7.745  0.3990 -0.1086 -0.2265
   43CHL1  H18A 3136   3.684   6.037   7.658  0.0282 -0.1779 -0.0879
   43CHL1  H18B 3137   3.785   6.072   7.814 -1.5276 -0.5082  1.9533
   43CHL1  H18C 3138   3.606   6.097   7.797  0.9427 -0.2515  0.8066
   43CHL1   C12 3139   3.613   6.323   7.627 -0.5660 -0.0534  0.2634
   43CHL1  H12A 3140   3.516   6.313   7.681  0.1368 -1.8878  1.2759
   43CHL1  H12B 3141   3.633   6.430   7.606  0.0281  0.6479  3.7656
   43CHL1   C11 3142   3.591   6.239   7.491  0.0208  0.3516  0.5665
   43CHL1  H11A 3143   3.556   6.137   7.516  1.0611 -0.3944 -0.8345
   43CHL1  H11B 3144   3.513   6.299   7.439 -0.8114 -0.7925  0.4636
   43CHL1    C9 3145   3.720   6.221   7.400  0.2346 -0.1728 -0.2211
   43CHL1    H9 3146   3.738   6.327   7.373  1.9368  0.3591  2.6243
   43CHL1   C10 3147   3.703   6.143   7.267 -0.6394  0.0962  0.1897
   43CHL1   C19 3148   3.630   6.010   7.292 -0.2653 -0.7423 -0.0606
   43CHL1  H19A 3149   3.667   5.945   7.375 -1.6167 -1.5249 -0.0301
   43CHL1  H19B 3150   3.522   6.029   7.313 -0.4183 -0.1592 -1.3132
   43CHL1  H19C 3151   3.628   5.951   7.198 -0.4674  1.3176 -1.3893
   43CHL1    C1 3152   3.621   6.234   7.170 -0.5343 -0.2161 -0.6465
   43CHL1   H1A 3153   3.520   6.253   7.213  0.5438 -0.9267  2.4723
   43CHL1   H1B 3154   3.670   6.334   7.164 -0.6207 -0.0434  1.0134
   43CHL1    C2 3155   3.615   6.173   7.025  0.1644 -0.3403 -0.3004
   43CHL1   H2A 3156   3.550   6.237   6.963 -1.6705 -0.7043  1.1730
   43CHL1   H2B 3157   3.562   6.076   7.039  2.7852 -1.7809  0.4179
   43CHL1   C20 3158   3.713   6.329   7.957  0.4616  0.1307 -0.5336
   43CHL1   H20 3159   3.709   6.227   8.000  0.2481  1.0749  1.8425
   43CHL1   C21 3160   3.558   6.368   7.942 -0.3204 -0.6590  0.1285
   43CHL1  H21A 3161   3.535   6.454   7.875 -2.8819 -0.9986  0.4641
   43CHL1  H21B 3162   3.520   6.401   8.042 -3.5776  0.5375 -1.3565
   43CHL1  H21C 3163   3.514   6.270   7.914 -0.4846 -0.2504 -1.1094
   43CHL1   C22 3164   3.780   6.416   8.075  0.6844  0.4983  0.0585
   43CHL1  H22A 3165   3.882   6.451   8.048  1.4939 -2.5556 -1.2141
   43CHL1  H22B 3166   3.720   6.508   8.092  0.0041 -0.0145  0.4725
   43CHL1   C23 3167   3.778   6.329   8.208  0.2173 -0.2165 -0.2706
   43CHL1  H23A 3168   3.669   6.316   8.222 -0.2794  2.8055 -0.6572
   43CHL1  H23B 3169   3.821   6.226   8.206  1.2342  0.2018 -1.1320
   43CHL1   C24 3170   3.834   6.411   8.331 -0.3054 -0.0701 -0.0752
   43CHL1  H24A 3171   3.945   6.418   8.333 -0.3288  0.8316 -1.0328
   43CHL1  H24B 3172   3.793   6.514   8.335  0.3899  0.2861 -1.2857
   43CHL1   C25 3173   3.791   6.351   8.471  0.0151 -0.4761  0.0549
   43CHL1   H25 3174   3.825   6.245   8.468 -3.7009 -1.8638  0.6940
   43CHL1   C26 3175   3.865   6.408   8.596 -0.2266 -0.0761 -0.2908
   43CHL1  H26A 3176   3.975   6.392   8.595 -0.2938 -0.5649 -0.7662
   43CHL1  H26B 3177   3.846   6.513   8.626 -0.9414  0.1179 -1.3632
   43CHL1  H26C 3178   3.827   6.338   8.673  1.4607 -1.7011 -0.8668
   43CHL1   C27 3179   3.636   6.351   8.494 -0.1436 -0.3371 -0.4019
   43CHL1  H27A 3180   3.591   6.453   8.505  1.9250  0.7115 -1.2227
   43CHL1  H27B 3181   3.586   6.293   8.414  2.3368 -3.1919 -0.0278
   43CHL1  H27C 3182   3.602   6.291   8.581  1.4247 -1.9512 -0.8641
   44CHL1    C3 3183   2.784   5.079   6.655  0.1871  0.0746  0.6046
   44CHL1    H3 3184   2.778   4.968   6.645  3.0863 -0.1165 -0.0185
   44CHL1    O3 3185   2.769   5.150   6.531  0.4447 -0.7045  0.2063
   44CHL1   H3' 3186   2.817   5.233   6.538  0.5807 -0.4369 -2.8133
   44CHL1    C4 3187   2.670   5.139   6.741 -0.0673  0.2994  0.0544
   44CHL1   H4A 3188   2.687   5.248   6.756  2.4353 -0.1507  1.0321
   44CHL1   H4B 3189   2.584   5.125   6.672 -0.0755  0.3324  0.0575
   44CHL1    C5 3190   2.648   5.076   6.875 -0.8563  0.0182  0.4731
   44CHL1    C6 3191   2.534   5.019   6.923  0.4740 -0.1326 -0.0950
   44CHL1    H6 3192   2.445   5.005   6.861  2.4827 -0.1265 -3.2410
   44CHL1    C7 3193   2.531   4.979   7.071  0.1644  0.0122  0.3069
   44CHL1   H7A 3194   2.444   5.037   7.110 -0.1363 -0.6091  0.5935
   44CHL1   H7B 3195   2.487   4.876   7.071 -0.9521  0.4163 -2.1347
   44CHL1    C8 3196   2.652   5.010   7.162 -0.2556  0.1474  0.5718
   44CHL1    H8 3197   2.631   5.112   7.198  0.9920  0.1097  1.4697
   44CHL1   C14 3198   2.651   4.913   7.281  0.0365  0.1275  0.4729
   44CHL1   H14 3199   2.664   4.811   7.238  1.3700 -0.6024  2.4491
   44CHL1   C15 3200   2.518   4.889   7.356 -0.5194 -0.2421 -0.5877
   44CHL1  H15A 3201   2.459   4.983   7.365 -0.6819 -0.5538  2.4201
   44CHL1  H15B 3202   2.452   4.819   7.300 -0.4118 -0.7533 -0.0833
   44CHL1   C16 3203   2.565   4.844   7.501  0.5706 -0.0089  0.6654
   44CHL1  H16A 3204   2.534   4.929   7.565 -0.8787 -2.0749  2.8738
   44CHL1  H16B 3205   2.513   4.756   7.544 -1.3832  1.6568  1.8708
   44CHL1   C17 3206   2.721   4.826   7.489  0.1313 -0.9002  0.3720
   44CHL1   H17 3207   2.733   4.722   7.450  0.9399 -0.5795 -0.2552
   44CHL1   C13 3208   2.762   4.930   7.375  0.5655  0.1168 -0.8857
   44CHL1   C18 3209   2.762   5.075   7.438  0.0352  0.8172  0.8344
   44CHL1  H18A 3210   2.770   5.146   7.353 -1.2273 -0.8183 -0.7435
   44CHL1  H18B 3211   2.664   5.094   7.485 -1.7013 -1.9556 -1.2970
   44CHL1  H18C 3212   2.849   5.090   7.505 -0.6868 -0.2855  2.0610
   44CHL1   C12 3213   2.892   4.904   7.299 -0.1423  0.1321  0.1496
   44CHL1  H12A 3214   2.976   4.925   7.369 -1.0432 -0.0890  1.3291
   44CHL1  H12B 3215   2.892   4.797   7.271  2.0906 -0.4362  2.0056
   44CHL1   C11 3216   2.909   5.000   7.178 -0.4006  0.1169  0.1281
   44CHL1  H11A 3217   2.906   5.103   7.220  0.6622 -0.7131  2.4132
   44CHL1  H11B 3218   3.002   4.983   7.120  0.8360  0.0217  2.0575
   44CHL1    C9 3219   2.781   4.996   7.083 -0.0945 -0.1234  0.4830
   44CHL1    H9 3220   2.786   4.897   7.034 -2.4924  0.9386 -2.2007
   44CHL1   C10 3221   2.784   5.088   6.957 -1.0183  0.2461  0.8549
   44CHL1   C19 3222   2.799   5.232   7.005 -0.1915  0.3739 -0.6962
   44CHL1  H19A 3223   2.882   5.247   7.078 -1.0964  1.2744  0.1916
   44CHL1  H19B 3224   2.820   5.310   6.928 -2.2309 -0.4947 -2.2101
   44CHL1  H19C 3225   2.707   5.267   7.056 -1.1538  0.8563 -2.6756
   44CHL1    C1 3226   2.912   5.059   6.869 -0.2854 -0.5219 -0.3617
   44CHL1   H1A 3227   3.005   5.080   6.924 -0.3033 -0.1776 -0.4634
   44CHL1   H1B 3228   2.914   4.948   6.856  0.4498 -0.3976 -1.4063
   44CHL1    C2 3229   2.915   5.120   6.731 -0.1889  0.0375 -0.0794
   44CHL1   H2A 3230   3.002   5.088   6.670  1.2271 -0.7069  2.1758
   44CHL1   H2B 3231   2.922   5.230   6.747 -1.9784  0.3484 -1.2104
   44CHL1   C20 3232   2.789   4.834   7.622 -0.4048 -1.3015 -0.3378
   44CHL1   H20 3233   2.800   4.939   7.657 -0.1573 -2.0057  1.7913
   44CHL1   C21 3234   2.933   4.783   7.610 -1.1160  0.8018 -0.3341
   44CHL1  H21A 3235   3.000   4.860   7.566 -1.0033  0.6717 -0.3931
   44CHL1  H21B 3236   2.934   4.685   7.557  1.1785  0.6001 -0.0415
   44CHL1  H21C 3237   2.969   4.763   7.714 -0.5229  0.9291 -0.5111
   44CHL1   C22 3238   2.715   4.760   7.737  0.0653 -0.0268  0.3898
   44CHL1  H22A 3239   2.639   4.690   7.698  0.4915 -1.0352  1.3081
   44CHL1  H22B 3240   2.786   4.703   7.801 -0.1989  1.5170  2.1542
   44CHL1   C23 3241   2.657   4.854   7.841 -0.2072  0.1591 -0.1435
   44CHL1  H23A 3242   2.737   4.898   7.904 -1.8774 -1.4835  3.3818
   44CHL1  H23B 3243   2.616   4.936   7.777  1.5163  2.0366  1.0266
   44CHL1   C24 3244   2.549   4.799   7.928 -0.4731 -0.8698  0.1951
   44CHL1  H24A 3245   2.459   4.755   7.880  1.2627 -3.6768 -0.6897
   44CHL1  H24B 3246   2.578   4.710   7.987 -0.3529 -1.4422 -0.7113
   44CHL1   C25 3247   2.494   4.913   8.024 -0.6314  0.5926 -0.0234
   44CHL1   H25 3248   2.463   4.999   7.961 -0.8345 -0.9136 -2.0954
   44CHL1   C26 3249   2.376   4.853   8.104  0.0824  0.4366 -0.3373
   44CHL1  H26A 3250   2.421   4.763   8.151 -0.3746  0.5387  0.3004
   44CHL1  H26B 3251   2.349   4.930   8.179  0.0668 -1.1335  1.3487
   44CHL1  H26C 3252   2.301   4.814   8.032  3.8962  0.1779 -4.6389
   44CHL1   C27 3253   2.606   4.962   8.117  0.3513  0.4381 -0.5430
   44CHL1  H27A 3254   2.560   5.030   8.192  2.8620  1.1174  0.4613
   44CHL1  H27B 3255   2.642   4.871   8.169 -0.7064  1.7120  2.6595
   44CHL1  H27C 3256   2.680   5.026   8.064 -0.3631  1.5668 -0.2211
   45CHL1    C3 3257   4.638   4.109   6.701 -0.2585 -0.3303 -0.5247
   45CHL1    H3 3258   4.664   4.002   6.689 -1.3541 -1.1097  2.9283
   45CHL1    O3 3259   4.644   4.183   6.580  0.2581  0.0669  0.3675
   45CHL1   H3' 3260   4.629   4.275   6.601  1.1219  0.2474  0.2212
   45CHL1    C4 3261   4.500   4.119   6.758 -0.3243 -0.2075 -1.1471
   45CHL1   H4A 3262   4.479   4.227   6.776  2.9847  0.2460  0.8693
   45CHL1   H4B 3263   4.436   4.079   6.676  0.7139 -0.9189 -1.6283
   45CHL1    C5 3264   4.504   4.049   6.896  0.5559  0.1827 -0.4291
   45CHL1    C6 3265   4.416   3.947   6.931 -0.0544  0.7935 -0.1545
   45CHL1    H6 3266   4.340   3.919   6.856  0.0094 -0.5426  0.2530
   45CHL1    C7 3267   4.404   3.889   7.072  0.5301 -0.2565  0.1391
   45CHL1   H7A 3268   4.302   3.857   7.103  0.6464 -0.0258  0.7601
   45CHL1   H7B 3269   4.467   3.798   7.077 -0.4556 -1.0200 -0.8819
   45CHL1    C8 3270   4.464   3.979   7.181 -0.2082 -0.3195  0.6462
   45CHL1    H8 3271   4.402   4.071   7.189  1.7734  1.2232 -0.7200
   45CHL1   C14 3272   4.476   3.912   7.311 -0.3692  0.0763  0.1152
   45CHL1   H14 3273   4.534   3.820   7.287 -0.4586 -1.3362  4.5268
   45CHL1   C15 3274   4.350   3.862   7.371 -0.2848  0.2660  0.3871
   45CHL1  H15A 3275   4.258   3.925   7.370  1.4349  2.9640  0.5129
   45CHL1  H15B 3276   4.333   3.766   7.318 -0.9220  1.2458 -1.2487
   45CHL1   C16 3277   4.371   3.837   7.516 -0.6154  0.3948  1.0787
   45CHL1  H16A 3278   4.306   3.903   7.578  1.5581  2.0759  1.6948
   45CHL1  H16B 3279   4.347   3.734   7.549 -2.1644  0.3924  0.0163
   45CHL1   C17 3280   4.528   3.871   7.539  0.5671 -0.3160  0.1758
   45CHL1   H17 3281   4.590   3.782   7.514  3.1390  1.9206 -2.0151
   45CHL1   C13 3282   4.555   3.976   7.423 -0.1182 -0.1533  0.7694
   45CHL1   C18 3283   4.481   4.115   7.456  0.1706 -0.3292  0.1091
   45CHL1  H18A 3284   4.469   4.180   7.367 -0.6469 -0.9906 -0.2811
   45CHL1  H18B 3285   4.381   4.091   7.500 -1.1336  0.5352 -2.1945
   45CHL1  H18C 3286   4.551   4.169   7.522 -1.0582  0.6423  0.6665
   45CHL1   C12 3287   4.694   4.000   7.377  0.2037  0.0778  0.2530
   45CHL1  H12A 3288   4.753   4.065   7.444 -1.9315  1.5684  0.7807
   45CHL1  H12B 3289   4.757   3.909   7.361  1.5815  1.0398  0.0519
   45CHL1   C11 3290   4.693   4.083   7.246 -0.0396 -0.3430 -0.2240
   45CHL1  H11A 3291   4.670   4.188   7.275 -0.1968 -0.7231  1.0650
   45CHL1  H11B 3292   4.791   4.098   7.196 -0.1765 -2.2987 -1.1765
   45CHL1    C9 3293   4.606   4.020   7.135 -1.1272 -0.6608 -0.0003
   45CHL1    H9 3294   4.658   3.925   7.110  1.3643 -0.0116  2.2397
   45CHL1   C10 3295   4.605   4.097   6.998  0.5054  0.1494  1.0447
   45CHL1   C19 3296   4.570   4.246   7.034  0.3995 -0.0906 -0.4818
   45CHL1  H19A 3297   4.466   4.238   7.071 -0.1581  0.0356 -1.9632
   45CHL1  H19B 3298   4.642   4.293   7.104 -0.0575 -0.1273  0.0153
   45CHL1  H19C 3299   4.578   4.316   6.948 -2.2434 -1.7305 -2.2162
   45CHL1    C1 3300   4.746   4.096   6.930  0.2622 -0.0055 -0.1932
   45CHL1   H1A 3301   4.829   4.143   6.987  2.3450 -0.8935 -2.3607
   45CHL1   H1B 3302   4.772   3.989   6.916 -2.0640 -0.6405 -0.1462
   45CHL1    C2 3303   4.749   4.163   6.792  0.3264  1.1388  0.2525
   45CHL1   H2A 3304   4.849   4.134   6.753  0.9028  1.4313  1.5001
   45CHL1   H2B 3305   4.747   4.274   6.788  1.5512  1.1553 -0.1408
   45CHL1   C20 3306   4.560   3.902   7.683 -0.8417 -0.6774 -0.1301
   45CHL1   H20 3307   4.503   3.991   7.717  0.8071  0.8588 -1.1484
   45CHL1   C21 3308   4.709   3.936   7.681 -0.1665 -0.2895 -0.1265
   45CHL1  H21A 3309   4.717   4.046   7.664 -0.7319 -0.3059 -0.5410
   45CHL1  H21B 3310   4.756   3.874   7.602  0.8409  0.3322 -0.0331
   45CHL1  H21C 3311   4.761   3.919   7.777 -0.1318 -0.6339 -0.2055
   45CHL1   C22 3312   4.518   3.790   7.783 -0.3143 -0.3478  0.0556
   45CHL1  H22A 3313   4.415   3.748   7.774 -0.9024  0.5045  2.1711
   45CHL1  H22B 3314   4.597   3.712   7.784  0.0847  0.0340  1.5635
   45CHL1   C23 3315   4.528   3.841   7.931  0.7520 -0.3586  0.1410
   45CHL1  H23A 3316   4.630   3.879   7.952  0.8321 -0.8470  0.6411
   45CHL1  H23B 3317   4.461   3.929   7.941  0.5256 -0.5593  0.4019
   45CHL1   C24 3318   4.470   3.742   8.031  0.0231 -0.0930 -0.1218
   45CHL1  H24A 3319   4.370   3.706   7.998 -1.5806  2.9730  0.9509
   45CHL1  H24B 3320   4.530   3.650   8.018 -1.9882 -1.5784  0.5902
   45CHL1   C25 3321   4.474   3.781   8.179  0.5550  0.0387 -0.3084
   45CHL1   H25 3322   4.457   3.890   8.194  0.0661 -0.0570 -0.1402
   45CHL1   C26 3323   4.359   3.711   8.263  0.0117 -0.3389  0.1398
   45CHL1  H26A 3324   4.264   3.757   8.227  0.9152  1.9947  0.5955
   45CHL1  H26B 3325   4.369   3.602   8.246 -0.2575 -0.6877  2.0165
   45CHL1  H26C 3326   4.372   3.732   8.371  0.9652 -2.0344  0.3900
   45CHL1   C27 3327   4.616   3.749   8.239  0.7649 -0.2329 -0.4446
   45CHL1  H27A 3328   4.620   3.807   8.334 -2.2589  1.8317 -1.4152
   45CHL1  H27B 3329   4.624   3.639   8.253 -0.6929 -0.1447  1.5535
   45CHL1  H27C 3330   4.699   3.783   8.174  1.2969  2.8511  1.5952
   46CHL1    C3 3331   2.932   5.694   7.068 -1.0870  0.0251 -0.2601
   46CHL1    H3 3332   3.030   5.744   7.085 -0.4991 -1.4440  0.9162
   46CHL1    O3 3333   2.892   5.713   6.934 -0.0610 -0.1696 -0.3576
   46CHL1   H3' 3334   2.947   5.649   6.890  2.4929  0.7086  1.3227
   46CHL1    C4 3335   2.955   5.540   7.088 -0.3479  0.2318 -0.1659
   46CHL1   H4A 3336   2.867   5.488   7.045 -0.0584 -0.7207  0.3662
   46CHL1   H4B 3337   3.044   5.512   7.027 -0.6065  1.5841 -1.2167
   46CHL1    C5 3338   2.966   5.488   7.227  0.6737 -0.0716  0.2082
   46CHL1    C6 3339   3.069   5.401   7.255  0.3771 -0.0773  0.8856
   46CHL1    H6 3340   3.125   5.363   7.168 -1.5696 -3.2048  0.8759
   46CHL1    C7 3341   3.100   5.348   7.391  0.0700 -0.2031 -0.0604
   46CHL1   H7A 3342   3.124   5.240   7.381  0.4611  0.0005 -1.5477
   46CHL1   H7B 3343   3.193   5.385   7.439 -0.5184  0.3098  0.7157
   46CHL1    C8 3344   2.992   5.382   7.489 -0.0172 -0.7028  0.5077
   46CHL1    H8 3345   2.909   5.309   7.476  0.3032 -1.3735  2.0593
   46CHL1   C14 3346   3.040   5.363   7.629 -0.5243 -0.2094 -0.4514
   46CHL1   H14 3347   3.123   5.437   7.629 -2.2948  2.1492 -4.7159
   46CHL1   C15 3348   3.108   5.231   7.666  0.1459  0.0424 -0.3592
   46CHL1  H15A 3349   3.036   5.152   7.635 -0.1150 -0.4937  1.4764
   46CHL1  H15B 3350   3.206   5.229   7.615  0.3341  0.8058 -0.0470
   46CHL1   C16 3351   3.127   5.252   7.815 -0.0228  0.1787 -0.0195
   46CHL1  H16A 3352   3.067   5.173   7.866  0.7748 -0.7812 -0.5391
   46CHL1  H16B 3353   3.231   5.252   7.853 -0.1815 -0.6845  0.4341
   46CHL1   C17 3354   3.045   5.377   7.863  0.5035  0.1984  0.4051
   46CHL1   H17 3355   3.118   5.459   7.849  3.5308 -1.9512  2.3111
   46CHL1   C13 3356   2.949   5.401   7.742 -0.8909 -0.2034 -0.2241
   46CHL1   C18 3357   2.827   5.293   7.751 -1.2201  0.0443 -0.1355
   46CHL1  H18A 3358   2.761   5.316   7.837 -0.7371  1.3892 -0.1073
   46CHL1  H18B 3359   2.764   5.301   7.660 -2.4555 -1.6434  0.5097
   46CHL1  H18C 3360   2.860   5.189   7.771 -3.3557 -0.5856  0.4127
   46CHL1   C12 3361   2.906   5.550   7.718  0.2605 -0.3931  0.1893
   46CHL1  H12A 3362   2.842   5.586   7.802  0.6208 -1.5772  0.9973
   46CHL1  H12B 3363   3.001   5.606   7.728  0.9405 -1.8755  3.6940
   46CHL1   C11 3364   2.840   5.571   7.582 -0.3207 -0.1488  0.4621
   46CHL1  H11A 3365   2.756   5.498   7.583  0.7619 -1.4472  1.7528
   46CHL1  H11B 3366   2.809   5.677   7.573 -1.2019 -0.4162  0.1811
   46CHL1    C9 3367   2.930   5.526   7.474 -0.8917  0.1276  0.0840
   46CHL1    H9 3368   3.019   5.592   7.486 -0.5882 -0.5477  1.7011
   46CHL1   C10 3369   2.876   5.558   7.334 -0.8412  0.1670  0.2303
   46CHL1   C19 3370   2.734   5.509   7.319 -0.0209 -0.0958 -0.0795
   46CHL1  H19A 3371   2.745   5.399   7.323  3.3948 -0.0848 -3.5036
   46CHL1  H19B 3372   2.661   5.556   7.388 -1.3478  0.3097 -1.6952
   46CHL1  H19C 3373   2.694   5.529   7.218 -2.6382 -0.4498  0.8179
   46CHL1    C1 3374   2.877   5.708   7.305  0.0480  0.0809  0.0215
   46CHL1   H1A 3375   2.801   5.754   7.371  0.8752 -0.0197  1.0711
   46CHL1   H1B 3376   2.975   5.755   7.327  0.0139  0.6280 -0.9554
   46CHL1    C2 3377   2.835   5.755   7.163  0.1629  0.0019  0.5536
   46CHL1   H2A 3378   2.828   5.866   7.157  1.1700  0.0674  0.3258
   46CHL1   H2B 3379   2.742   5.701   7.135  0.2453 -0.3218  0.8907
   46CHL1   C20 3380   3.011   5.377   8.009 -0.2787  0.0712 -0.2023
   46CHL1   H20 3381   2.930   5.302   8.024 -2.7428  2.4729 -0.8152
   46CHL1   C21 3382   2.946   5.512   8.040 -0.0721  0.4326  0.1871
   46CHL1  H21A 3383   2.939   5.522   8.151  3.0488 -2.3332  0.8135
   46CHL1  H21B 3384   2.851   5.525   7.986  0.3764  0.4608 -0.6055
   46CHL1  H21C 3385   3.015   5.594   8.011  0.3507  0.7883  2.0243
   46CHL1   C22 3386   3.134   5.348   8.095 -0.1649 -0.6321  0.4240
   46CHL1  H22A 3387   3.194   5.263   8.055  0.5932  1.1195 -2.4246
   46CHL1  H22B 3388   3.197   5.439   8.108 -0.3066 -0.6089  0.9790
   46CHL1   C23 3389   3.092   5.313   8.242  0.3070  0.2229  0.3134
   46CHL1  H23A 3390   3.176   5.326   8.313 -0.1580  0.3308  0.8474
   46CHL1  H23B 3391   3.005   5.376   8.270 -1.2122 -2.4725  2.1285
   46CHL1   C24 3392   3.031   5.174   8.247 -0.2974  0.2316 -0.5082
   46CHL1  H24A 3393   2.926   5.168   8.212  0.3667 -1.5432 -2.3634
   46CHL1  H24B 3394   3.096   5.114   8.180 -0.9730 -1.0653 -0.0616
   46CHL1   C25 3395   3.047   5.112   8.392  0.0553 -0.2077  0.0238
   46CHL1   H25 3396   3.151   5.124   8.427 -0.4701 -1.0270  2.0197
   46CHL1   C26 3397   2.944   5.173   8.489 -0.0601 -0.2817  0.4816
   46CHL1  H26A 3398   2.848   5.167   8.433  0.5458  1.3213 -0.8119
   46CHL1  H26B 3399   2.936   5.122   8.587  1.4966 -0.8961  0.3064
   46CHL1  H26C 3400   2.960   5.282   8.499  0.3666 -0.4023  1.1480
   46CHL1   C27 3401   3.023   4.958   8.396  0.5242  0.2097 -0.1954
   46CHL1  H27A 3402   3.075   4.914   8.483 -0.3226 -0.1438  0.1473
   46CHL1  H27B 3403   2.917   4.925   8.403  0.4983  0.2712 -0.2859
   46CHL1  H27C 3404   3.083   4.917   8.312 -0.6395 -1.0637 -0.4464
   47CHL1    C3 3405   1.734   4.188   6.771  0.0544 -0.0855  0.0433
   47CHL1    H3 3406   1.638   4.132   6.776 -1.2824  2.1862  1.2426
   47CHL1    O3 3407   1.760   4.224   6.637 -0.0001  0.4235 -0.0237
   47CHL1   H3' 3408   1.769   4.138   6.594 -2.9698 -0.0363  0.0676
   47CHL1    C4 3409   1.730   4.305   6.859  0.1086 -0.5066  0.6670
   47CHL1   H4A 3410   1.834   4.343   6.858  0.3252 -0.9967 -2.2204
   47CHL1   H4B 3411   1.665   4.385   6.817  0.9521 -0.2698 -0.2328
   47CHL1    C5 3412   1.688   4.258   6.998  0.1543 -0.2513 -0.3718
   47CHL1    C6 3413   1.577   4.308   7.051 -0.5711 -0.1394  0.4545
   47CHL1    H6 3414   1.524   4.384   6.992  1.4786 -0.1887 -1.5770
   47CHL1    C7 3415   1.520   4.266   7.182  0.3419 -0.2433 -0.5399
   47CHL1   H7A 3416   1.469   4.353   7.230  0.0416 -0.3755 -0.6160
   47CHL1   H7B 3417   1.448   4.184   7.162  0.3593 -0.7018  1.1424
   47CHL1    C8 3418   1.618   4.201   7.268  0.4485  0.0563  0.0036
   47CHL1    H8 3419   1.686   4.277   7.313  0.1477  0.3393 -0.0140
   47CHL1   C14 3420   1.552   4.132   7.386  0.6161  0.3554  0.9025
   47CHL1   H14 3421   1.490   4.057   7.332  0.8709  2.8642 -3.2551
   47CHL1   C15 3422   1.443   4.205   7.462 -0.2094 -0.4001 -0.5987
   47CHL1  H15A 3423   1.483   4.304   7.492 -0.9492 -0.0525 -0.7340
   47CHL1  H15B 3424   1.356   4.215   7.393 -0.6416 -0.6363 -0.0932
   47CHL1   C16 3425   1.421   4.116   7.579  0.0767 -0.8014  0.2623
   47CHL1  H16A 3426   1.432   4.189   7.662 -1.6280  2.1263 -1.8964
   47CHL1  H16B 3427   1.318   4.073   7.583 -0.5807  0.5148 -1.2809
   47CHL1   C17 3428   1.529   4.003   7.578 -0.5249  0.5056 -0.4888
   47CHL1   H17 3429   1.480   3.917   7.528 -1.2864  0.5044  0.2346
   47CHL1   C13 3430   1.642   4.055   7.480  0.3611  0.1556 -0.5699
   47CHL1   C18 3431   1.743   4.144   7.559  0.6294 -0.3561  0.1730
   47CHL1  H18A 3432   1.686   4.221   7.613 -1.0767 -1.3406 -0.1523
   47CHL1  H18B 3433   1.818   4.094   7.625  0.3272 -0.5532  0.3695
   47CHL1  H18C 3434   1.804   4.199   7.484  0.4255  2.6259  2.0471
   47CHL1   C12 3435   1.704   3.940   7.400  0.0871 -0.2165  0.1975
   47CHL1  H12A 3436   1.779   3.878   7.452  0.0735 -0.2752  0.1481
   47CHL1  H12B 3437   1.620   3.883   7.354  0.8942  0.4848 -2.3512
   47CHL1   C11 3438   1.778   3.994   7.277  0.1943  0.2151  0.4025
   47CHL1  H11A 3439   1.863   4.050   7.320  0.5283  0.4538 -0.5478
   47CHL1  H11B 3440   1.820   3.911   7.216 -0.4927 -0.0165  0.2328
   47CHL1    C9 3441   1.699   4.093   7.188  0.1357 -0.3167  0.1212
   47CHL1    H9 3442   1.619   4.028   7.146 -0.4720 -1.2207  2.5407
   47CHL1   C10 3443   1.779   4.143   7.063  0.0709 -0.4348  0.3703
   47CHL1   C19 3444   1.905   4.218   7.095 -0.1359  0.1605 -0.6625
   47CHL1  H19A 3445   1.880   4.282   7.183 -1.9824 -2.1722  0.6112
   47CHL1  H19B 3446   1.981   4.142   7.121 -1.7462 -1.5049 -0.5954
   47CHL1  H19C 3447   1.956   4.278   7.017 -0.3766  0.7029 -0.4124
   47CHL1    C1 3448   1.807   4.031   6.957  0.7899  0.6403  0.2468
   47CHL1   H1A 3449   1.889   3.962   6.989  1.6588  0.8809 -1.3442
   47CHL1   H1B 3450   1.729   3.954   6.940  0.9628  1.0313 -2.7559
   47CHL1    C2 3451   1.840   4.092   6.816  0.0508  1.3875 -0.7167
   47CHL1   H2A 3452   1.860   4.013   6.741  1.5792  1.0037  0.0506
   47CHL1   H2B 3453   1.940   4.137   6.839 -0.5537  1.4552  2.1522
   47CHL1   C20 3454   1.577   3.948   7.717  0.1795  0.4405  0.0281
   47CHL1   H20 3455   1.651   4.020   7.758  0.7970  0.7920 -1.6304
   47CHL1   C21 3456   1.651   3.810   7.710  0.1330 -0.4805 -0.3436
   47CHL1  H21A 3457   1.672   3.764   7.809  0.9663 -1.2633 -0.8676
   47CHL1  H21B 3458   1.744   3.840   7.657  0.0178  0.9747  0.2467
   47CHL1  H21C 3459   1.599   3.734   7.647  0.0083 -0.6365 -0.0540
   47CHL1   C22 3460   1.455   3.931   7.814 -0.1329  0.0196  0.4425
   47CHL1  H22A 3461   1.412   4.031   7.837 -0.6738  0.3569 -1.7984
   47CHL1  H22B 3462   1.377   3.873   7.760 -1.2105  0.7456  1.1915
   47CHL1   C23 3463   1.475   3.867   7.950 -0.2604 -0.0827  0.0226
   47CHL1  H23A 3464   1.493   3.759   7.931 -1.0646 -0.2280  0.0493
   47CHL1  H23B 3465   1.564   3.915   7.996 -1.8408  1.3610  1.6901
   47CHL1   C24 3466   1.370   3.881   8.055 -0.3621 -0.3104 -0.5117
   47CHL1  H24A 3467   1.369   3.978   8.109 -2.0222 -1.0494  0.9091
   47CHL1  H24B 3468   1.267   3.865   8.015 -0.4117  2.3071 -1.6242
   47CHL1   C25 3469   1.386   3.770   8.161 -0.0661  0.0562 -0.4922
   47CHL1   H25 3470   1.406   3.672   8.113 -1.9948 -1.0256  0.8127
   47CHL1   C26 3471   1.502   3.795   8.257 -0.0579 -0.1014 -0.0766
   47CHL1  H26A 3472   1.598   3.821   8.209  1.1207  1.5666  2.9120
   47CHL1  H26B 3473   1.477   3.890   8.308  1.7514 -0.3119  1.2872
   47CHL1  H26C 3474   1.526   3.718   8.333  0.7086 -0.5445 -0.7496
   47CHL1   C27 3475   1.247   3.754   8.238 -0.2333  0.1151 -0.1939
   47CHL1  H27A 3476   1.231   3.671   8.309 -1.4123  0.0404 -0.5321
   47CHL1  H27B 3477   1.225   3.852   8.287  1.2516 -0.6739  2.2111
   47CHL1  H27C 3478   1.180   3.739   8.151 -0.0202 -2.7961  0.0680
   48CHL1    C3 3479   0.763   0.261   6.242 -0.2553  0.4739 -0.5653
   48CHL1    H3 3480   0.720   0.363   6.248 -1.9140 -0.1877 -0.7473
   48CHL1    O3 3481   0.761   0.225   6.109  0.2946 -0.4813  0.3768
   48CHL1   H3' 3482   0.814   0.145   6.104  0.5579 -0.3172  0.5005
   48CHL1    C4 3483   0.915   0.269   6.288  0.5605 -0.3045  0.2095
   48CHL1   H4A 3484   0.961   0.174   6.255 -4.3532 -3.0452  0.2354
   48CHL1   H4B 3485   0.960   0.341   6.216 -0.1725 -1.4736 -1.4735
   48CHL1    C5 3486   0.939   0.315   6.432  0.0652 -0.4357 -0.0985
   48CHL1    C6 3487   1.008   0.423   6.479  0.0456 -0.8908  0.6651
   48CHL1    H6 3488   1.057   0.491   6.407  1.2904 -2.0390  0.3869
   48CHL1    C7 3489   1.036   0.455   6.619 -0.5918  0.1631 -0.4914
   48CHL1   H7A 3490   1.143   0.477   6.639 -0.8643  0.9882  0.1028
   48CHL1   H7B 3491   0.965   0.535   6.650  1.1380  1.1010  1.2226
   48CHL1    C8 3492   1.007   0.326   6.711  0.1609  0.3620  0.3904
   48CHL1    H8 3493   1.085   0.250   6.690  0.9702  1.2360  0.1404
   48CHL1   C14 3494   1.008   0.368   6.853  0.5380  0.3934 -0.9250
   48CHL1   H14 3495   0.940   0.454   6.866  2.2983  1.8263 -0.7511
   48CHL1   C15 3496   1.142   0.421   6.915 -0.0175  0.1881  0.0780
   48CHL1  H15A 3497   1.207   0.333   6.897  1.0623  0.5957  1.7355
   48CHL1  H15B 3498   1.166   0.523   6.878  0.1201  0.4759  0.9329
   48CHL1   C16 3499   1.109   0.427   7.063 -0.3831 -0.5306  0.0921
   48CHL1  H16A 3500   1.196   0.389   7.120  0.5899  1.4962  0.0254
   48CHL1  H16B 3501   1.097   0.531   7.101 -1.0496 -0.6107  0.1142
   48CHL1   C17 3502   0.989   0.326   7.086  0.2344 -0.1241 -0.2929
   48CHL1   H17 3503   0.903   0.392   7.108  0.2901 -1.0248  3.1737
   48CHL1   C13 3504   0.964   0.257   6.953  0.4145 -0.1011  0.8842
   48CHL1   C18 3505   1.053   0.125   6.950  0.3578 -0.4384  0.1318
   48CHL1  H18A 3506   1.152   0.133   7.000 -0.4295  1.5601  1.4916
   48CHL1  H18B 3507   0.997   0.034   6.983  0.9077 -1.7489 -2.3164
   48CHL1  H18C 3508   1.066   0.100   6.843  0.8272 -1.0073  0.3135
   48CHL1   C12 3509   0.807   0.227   6.923 -0.2201  0.1582 -0.1286
   48CHL1  H12A 3510   0.775   0.154   7.001  0.5389  0.6972  0.7112
   48CHL1  H12B 3511   0.755   0.325   6.931 -0.7978 -0.0207 -1.4426
   48CHL1   C11 3512   0.790   0.180   6.783  0.5293  0.5990 -0.4052
   48CHL1  H11A 3513   0.844   0.083   6.773 -0.0622  0.1450  0.5639
   48CHL1  H11B 3514   0.680   0.164   6.772  0.4875 -0.4982  1.2059
   48CHL1    C9 3515   0.865   0.270   6.677  0.6818 -0.1890  1.0204
   48CHL1    H9 3516   0.806   0.364   6.679  3.7192  1.8536  2.8092
   48CHL1   C10 3517   0.856   0.224   6.528 -0.0349  0.1879 -0.6199
   48CHL1   C19 3518   0.921   0.086   6.512 -0.7848  0.2261 -0.4150
   48CHL1  H19A 3519   0.999   0.066   6.589 -1.0084  0.3271 -0.1593
   48CHL1  H19B 3520   0.849   0.003   6.523  0.8500 -1.0910  1.1651
   48CHL1  H19C 3521   0.968   0.067   6.413 -1.7594  0.5878 -0.9587
   48CHL1    C1 3522   0.706   0.215   6.493  0.1273 -0.2246 -0.5641
   48CHL1   H1A 3523   0.647   0.136   6.544 -0.3546  0.0113 -0.7428
   48CHL1   H1B 3524   0.658   0.315   6.502 -0.2345 -0.3848 -0.6718
   48CHL1    C2 3525   0.684   0.178   6.342  0.0784  0.4353 -0.9498
   48CHL1   H2A 3526   0.577   0.178   6.312  0.6773 -0.0525 -3.2630
   48CHL1   H2B 3527   0.727   0.076   6.333 -0.4654  0.1075  0.0269
   48CHL1   C20 3528   1.021   0.242   7.211 -0.4376 -0.3560  0.2259
   48CHL1   H20 3529   1.094   0.159   7.199 -0.8153 -0.7363  0.5596
   48CHL1   C21 3530   0.890   0.174   7.244  0.1633 -0.0271  0.2371
   48CHL1  H21A 3531   0.804   0.243   7.231  0.7660  0.4639 -1.3598
   48CHL1  H21B 3532   0.888   0.145   7.351 -0.9319  2.4534  0.9641
   48CHL1  H21C 3533   0.875   0.089   7.174 -0.7291  1.2842 -1.2301
   48CHL1   C22 3534   1.077   0.318   7.344 -0.5682  0.4042  0.0853
   48CHL1  H22A 3535   1.098   0.242   7.423  1.6603  0.7452 -0.1196
   48CHL1  H22B 3536   1.174   0.369   7.326  0.0951 -0.5957  0.7258
   48CHL1   C23 3537   0.994   0.437   7.396 -0.2799  0.1362 -0.0733
   48CHL1  H23A 3538   0.973   0.519   7.324 -1.2142  1.3091  1.4860
   48CHL1  H23B 3539   0.898   0.391   7.427  0.0082  0.2942  1.0901
   48CHL1   C24 3540   1.063   0.496   7.530  0.1171 -0.2202 -0.1502
   48CHL1  H24A 3541   1.167   0.529   7.510  0.0056 -0.0610 -0.4671
   48CHL1  H24B 3542   1.005   0.583   7.567  1.0966 -0.7597  2.9402
   48CHL1   C25 3543   1.058   0.401   7.649  0.9487  0.4140 -0.0417
   48CHL1   H25 3544   1.093   0.303   7.609  3.4483  0.9195  0.7419
   48CHL1   C26 3545   1.136   0.451   7.771 -0.3501 -0.4375  0.4327
   48CHL1  H26A 3546   1.246   0.447   7.756 -0.0795  1.1200  1.7160
   48CHL1  H26B 3547   1.117   0.560   7.787  0.6165 -0.3212  0.8648
   48CHL1  H26C 3548   1.119   0.391   7.863  0.7779  1.4162  1.9368
   48CHL1   C27 3549   0.915   0.385   7.705  0.3985 -0.3206 -0.2457
   48CHL1  H27A 3550   0.910   0.327   7.799  0.4304  0.0680 -0.0053
   48CHL1  H27B 3551   0.880   0.489   7.719  3.1224  0.9207 -1.7900
   48CHL1  H27C 3552   0.842   0.333   7.640 -1.9779  0.7803  1.4148
   49CHL1    C3 3553   0.560   0.736   6.594  0.3420  0.2541  0.1886
   49CHL1    H3 3554   0.450   0.725   6.608  0.6469 -0.4674  2.5197
   49CHL1    O3 3555   0.593   0.755   6.453  0.5121  0.5724 -0.7474
   49CHL1   H3' 3556   0.674   0.704   6.447 -0.5548 -1.4627  0.9341
   49CHL1    C4 3557   0.614   0.858   6.675  0.5639 -0.1060  0.2990
   49CHL1   H4A 3558   0.718   0.889   6.653 -0.6151  5.4388  1.0399
   49CHL1   H4B 3559   0.546   0.941   6.645 -0.8072 -1.5111 -0.6099
   49CHL1    C5 3560   0.604   0.847   6.829 -0.3401  1.1564  0.0433
   49CHL1    C6 3561   0.559   0.952   6.901 -0.0941 -0.0022  0.4397
   49CHL1    H6 3562   0.541   1.045   6.844  0.2287  1.0499  1.9977
   49CHL1    C7 3563   0.540   0.950   7.051 -0.0132  0.1650 -0.1178
   49CHL1   H7A 3564   0.558   1.050   7.096 -2.7905  1.0227 -0.7541
   49CHL1   H7B 3565   0.432   0.942   7.075 -0.3658  2.2782 -0.8181
   49CHL1    C8 3566   0.614   0.826   7.115  1.2112  0.5574  0.4135
   49CHL1    H8 3567   0.713   0.866   7.145  0.4829 -0.6546  5.2897
   49CHL1   C14 3568   0.541   0.794   7.245 -0.1798  0.0490 -0.1664
   49CHL1   H14 3569   0.439   0.752   7.230 -1.7322  1.9101  3.7663
   49CHL1   C15 3570   0.516   0.914   7.342 -0.4098 -0.3713 -0.0968
   49CHL1  H15A 3571   0.598   0.988   7.331  1.3539 -2.2003  0.1345
   49CHL1  H15B 3572   0.423   0.964   7.307  0.4479 -0.5962 -2.9618
   49CHL1   C16 3573   0.500   0.851   7.486 -0.4893 -0.4576  0.1524
   49CHL1  H16A 3574   0.585   0.893   7.543 -0.6655 -0.0645  0.1299
   49CHL1  H16B 3575   0.399   0.874   7.526 -1.9137 -2.0319 -2.3027
   49CHL1   C17 3576   0.516   0.696   7.453  0.9660  0.5839 -0.3298
   49CHL1   H17 3577   0.414   0.659   7.429 -0.7039  4.7359 -0.5271
   49CHL1   C13 3578   0.602   0.685   7.334 -0.0995 -0.1122  0.4653
   49CHL1   C18 3579   0.751   0.715   7.376  1.0729  0.4489  0.0317
   49CHL1  H18A 3580   0.757   0.785   7.462 -1.4248 -1.0876  1.5919
   49CHL1  H18B 3581   0.793   0.624   7.423  1.1890 -0.7539 -2.2590
   49CHL1  H18C 3582   0.806   0.755   7.287 -0.6307 -0.5220 -1.5214
   49CHL1   C12 3583   0.610   0.557   7.245 -0.1938 -0.1816  0.4647
   49CHL1  H12A 3584   0.661   0.466   7.283 -1.8245 -1.6486 -0.6690
   49CHL1  H12B 3585   0.508   0.521   7.223 -0.9981  2.0024  0.3589
   49CHL1   C11 3586   0.678   0.585   7.106 -0.3391 -0.4753 -0.1688
   49CHL1  H11A 3587   0.787   0.601   7.125  0.1884 -4.4641  0.9335
   49CHL1  H11B 3588   0.670   0.489   7.051  2.1801 -1.0041  0.2341
   49CHL1    C9 3589   0.602   0.699   7.035 -0.0075  0.2956 -0.5149
   49CHL1    H9 3590   0.497   0.663   7.035 -0.6112  1.9458  0.3749
   49CHL1   C10 3591   0.645   0.714   6.891 -0.4796 -0.3987 -0.2442
   49CHL1   C19 3592   0.798   0.727   6.888  0.1649 -0.2372 -0.1994
   49CHL1  H19A 3593   0.836   0.627   6.917 -0.0559 -0.6084 -1.1613
   49CHL1  H19B 3594   0.828   0.740   6.782 -0.4365 -1.4509 -0.5320
   49CHL1  H19C 3595   0.845   0.800   6.958  1.0103 -0.9752  0.0141
   49CHL1    C1 3596   0.603   0.595   6.795  0.2383  0.3247  0.0906
   49CHL1   H1A 3597   0.652   0.499   6.823 -0.4012 -0.2706 -0.7493
   49CHL1   H1B 3598   0.494   0.572   6.799  0.5606 -1.5671 -0.6220
   49CHL1    C2 3599   0.625   0.608   6.645 -0.3690  0.2736  0.2336
   49CHL1   H2A 3600   0.572   0.523   6.598  0.6847  0.0995 -0.6568
   49CHL1   H2B 3601   0.733   0.598   6.622 -0.6715  1.2626 -1.8215
   49CHL1   C20 3602   0.558   0.634   7.586 -0.5998  0.8787  0.1041
   49CHL1   H20 3603   0.659   0.667   7.618 -0.1208 -0.6662  0.2743
   49CHL1   C21 3604   0.567   0.479   7.547 -0.4398 -0.5902 -0.6460
   49CHL1  H21A 3605   0.546   0.418   7.637 -1.6930  0.8669  0.1001
   49CHL1  H21B 3606   0.664   0.447   7.502 -1.6016 -0.2311 -3.6868
   49CHL1  H21C 3607   0.482   0.458   7.478  0.6816 -1.8181 -1.7190
   49CHL1   C22 3608   0.459   0.668   7.702  0.1049 -0.5320 -0.4447
   49CHL1  H22A 3609   0.444   0.775   7.728  0.1207 -0.3193 -1.2922
   49CHL1  H22B 3610   0.358   0.634   7.673 -0.5440 -0.2691  1.3757
   49CHL1   C23 3611   0.511   0.613   7.840 -0.9526  0.7089 -0.5054
   49CHL1  H23A 3612   0.604   0.554   7.833 -1.4284 -0.2929  1.0334
   49CHL1  H23B 3613   0.535   0.702   7.901  0.5428  0.1330 -0.2224
   49CHL1   C24 3614   0.408   0.520   7.906  0.3484 -0.0718 -0.2501
   49CHL1  H24A 3615   0.318   0.582   7.925 -0.8436 -1.3618 -1.4313
   49CHL1  H24B 3616   0.379   0.439   7.836 -0.2166  1.4328 -1.8296
   49CHL1   C25 3617   0.460   0.458   8.045  0.1748 -0.6322 -0.1201
   49CHL1   H25 3618   0.497   0.542   8.108 -1.2382 -0.4349  0.4856
   49CHL1   C26 3619   0.344   0.402   8.133  0.6231 -0.1721  0.2738
   49CHL1  H26A 3620   0.303   0.307   8.094  2.4058 -0.8068 -0.1595
   49CHL1  H26B 3621   0.378   0.382   8.237 -1.2091 -0.1063  0.9323
   49CHL1  H26C 3622   0.262   0.475   8.149  1.0421  0.0665  1.4179
   49CHL1   C27 3623   0.568   0.351   8.018  0.6071 -1.4981 -0.1099
   49CHL1  H27A 3624   0.659   0.402   7.980 -0.5996  2.0514  1.3485
   49CHL1  H27B 3625   0.591   0.295   8.112 -2.0942 -0.5064  1.2514
   49CHL1  H27C 3626   0.524   0.281   7.944 -1.8398  0.7076 -0.8920
   50CHL1    C3 3627   0.828   3.090   6.842 -0.3109  0.1651 -1.0577
   50CHL1    H3 3628   0.761   3.143   6.914  1.1023 -0.0163  0.4551
   50CHL1    O3 3629   0.855   3.169   6.727  0.9423 -0.1210 -0.4493
   50CHL1   H3' 3630   0.767   3.192   6.697  0.9858  0.2317 -0.3126
   50CHL1    C4 3631   0.959   3.063   6.914  1.4020 -0.5446 -0.0985
   50CHL1   H4A 3632   1.033   3.024   6.841  1.4835  2.4919 -1.8306
   50CHL1   H4B 3633   1.015   3.153   6.948 -0.4232  0.5134  0.2752
   50CHL1    C5 3634   0.940   2.976   7.038 -0.6965  0.3808 -0.4057
   50CHL1    C6 3635   0.999   3.017   7.154 -0.2993  0.2507 -0.3616
   50CHL1    H6 3636   1.061   3.107   7.159  1.5370 -0.9981  1.1401
   50CHL1    C7 3637   0.988   2.938   7.284  0.1317  0.0824  0.3363
   50CHL1   H7A 3638   1.081   2.923   7.344 -0.0384  1.0605  0.8590
   50CHL1   H7B 3639   0.919   3.001   7.343 -1.4702 -0.6581 -0.6809
   50CHL1    C8 3640   0.926   2.799   7.273 -0.3003  0.6138  0.3786
   50CHL1    H8 3641   1.011   2.743   7.228 -0.5234  0.4721  0.1305
   50CHL1   C14 3642   0.873   2.743   7.403  0.4051 -0.3905 -0.1309
   50CHL1   H14 3643   0.792   2.813   7.434 -0.3839 -0.2987 -2.2241
   50CHL1   C15 3644   0.978   2.737   7.521  1.2741 -0.1776  0.0831
   50CHL1  H15A 3645   1.084   2.720   7.495  1.1732 -1.2686  0.3230
   50CHL1  H15B 3646   0.965   2.832   7.578 -2.3581 -0.0217 -0.7344
   50CHL1   C16 3647   0.934   2.618   7.606 -0.3560  0.4566 -0.6304
   50CHL1  H16A 3648   0.996   2.527   7.592  0.4183  0.5190  1.9550
   50CHL1  H16B 3649   0.935   2.640   7.715 -1.3369 -0.5148 -0.4152
   50CHL1   C17 3650   0.803   2.578   7.541  0.1638  0.0933 -0.0369
   50CHL1   H17 3651   0.729   2.651   7.581  1.7570  2.3931 -1.0620
   50CHL1   C13 3652   0.809   2.608   7.391 -0.4638 -0.1916  0.2735
   50CHL1   C18 3653   0.903   2.497   7.323  0.5504 -0.2175 -0.0367
   50CHL1  H18A 3654   0.936   2.533   7.223  1.6098 -0.6631  0.1387
   50CHL1  H18B 3655   0.989   2.473   7.389  1.4264  1.2612 -0.6060
   50CHL1  H18C 3656   0.832   2.413   7.306  1.5406 -1.4814  1.6889
   50CHL1   C12 3657   0.682   2.625   7.306  1.1078 -0.4583  0.3546
   50CHL1  H12A 3658   0.636   2.523   7.301 -2.0807  0.7434  2.0933
   50CHL1  H12B 3659   0.605   2.696   7.343  2.0192  0.3439  0.7503
   50CHL1   C11 3660   0.718   2.665   7.159 -0.1230  0.7609 -0.5573
   50CHL1  H11A 3661   0.760   2.577   7.106  0.9105 -0.1604  1.6999
   50CHL1  H11B 3662   0.619   2.679   7.111 -0.5440 -3.2465 -1.2023
   50CHL1    C9 3663   0.812   2.793   7.164 -1.0518  0.1323  0.1055
   50CHL1    H9 3664   0.741   2.875   7.188  0.1226  0.9960  0.7582
   50CHL1   C10 3665   0.862   2.839   7.025 -0.0781  0.4579  0.1871
   50CHL1   C19 3666   0.954   2.732   6.955 -0.3919 -0.3376 -0.1180
   50CHL1  H19A 3667   1.029   2.690   7.025 -0.1379  1.1804  0.5336
   50CHL1  H19B 3668   0.899   2.639   6.928  0.8406 -2.1815  3.1573
   50CHL1  H19C 3669   0.992   2.774   6.859  0.2432  0.6445  0.5503
   50CHL1    C1 3670   0.730   2.867   6.931  0.2421 -0.2724 -0.2695
   50CHL1   H1A 3671   0.669   2.776   6.913 -0.4944  0.2312 -0.3887
   50CHL1   H1B 3672   0.675   2.933   7.001  1.4885  0.2202  0.2748
   50CHL1    C2 3673   0.763   2.956   6.805 -0.5743 -0.4855  0.4913
   50CHL1   H2A 3674   0.675   2.976   6.740 -0.2256 -2.1269 -0.5366
   50CHL1   H2B 3675   0.835   2.901   6.742 -0.8026  0.6786 -0.8367
   50CHL1   C20 3676   0.766   2.436   7.591 -0.3788 -0.2596 -0.0290
   50CHL1   H20 3677   0.847   2.365   7.563  0.4944  1.4006 -1.9255
   50CHL1   C21 3678   0.637   2.380   7.527  0.2317  0.0769 -0.5280
   50CHL1  H21A 3679   0.647   2.345   7.422  0.1621 -0.7195 -0.2737
   50CHL1  H21B 3680   0.556   2.452   7.550 -0.2925  0.4856 -3.3451
   50CHL1  H21C 3681   0.604   2.286   7.576 -0.1534 -0.7726 -2.3335
   50CHL1   C22 3682   0.756   2.421   7.743  0.2786  0.3294  0.0012
   50CHL1  H22A 3683   0.710   2.325   7.775  0.9449 -0.4056 -1.1835
   50CHL1  H22B 3684   0.858   2.435   7.784  0.5614  2.1877 -1.2057
   50CHL1   C23 3685   0.671   2.535   7.810 -1.0162 -0.0721 -0.5475
   50CHL1  H23A 3686   0.712   2.638   7.800 -0.9480  0.0860  1.0356
   50CHL1  H23B 3687   0.572   2.538   7.760 -1.2440 -2.1985 -0.3155
   50CHL1   C24 3688   0.662   2.516   7.961 -0.0206  0.7920 -0.2726
   50CHL1  H24A 3689   0.654   2.410   7.995 -2.8408  0.7846 -0.6751
   50CHL1  H24B 3690   0.767   2.537   7.991  0.1521 -1.9899  1.4501
   50CHL1   C25 3691   0.572   2.616   8.046 -0.4965  0.2174 -0.0493
   50CHL1   H25 3692   0.588   2.718   8.006  1.6591 -0.0326  0.0486
   50CHL1   C26 3693   0.424   2.584   8.028  0.1541 -0.2066 -0.3854
   50CHL1  H26A 3694   0.394   2.576   7.922  1.1137  0.9656 -0.7627
   50CHL1  H26B 3695   0.414   2.491   8.089  2.9135  0.0909  0.6402
   50CHL1  H26C 3696   0.365   2.663   8.080 -1.7055 -0.8402 -1.4220
   50CHL1   C27 3697   0.611   2.617   8.197 -0.3102  0.1456  0.2367
   50CHL1  H27A 3698   0.605   2.525   8.259 -0.7550 -0.0042 -0.0209
   50CHL1  H27B 3699   0.721   2.628   8.195 -0.1139 -1.6409 -1.2355
   50CHL1  H27C 3700   0.555   2.698   8.249  0.2410  0.9161 -0.3610
   51CHL1    C3 3701   6.533   1.827   6.927 -0.5106 -0.1003  0.7088
   51CHL1    H3 3702   6.557   1.933   6.951 -0.6927 -0.7788  4.3760
   51CHL1    O3 3703   6.494   1.822   6.788 -0.4413  0.3132 -0.5210
   51CHL1   H3' 3704   6.571   1.857   6.742  2.9853 -1.9428  2.8908
   51CHL1    C4 3705   6.665   1.742   6.928  0.4847  0.1855  0.6385
   51CHL1   H4A 3706   6.636   1.643   6.887  2.9750  0.2613 -1.5493
   51CHL1   H4B 3707   6.742   1.797   6.870  0.1249  0.5226  0.4752
   51CHL1    C5 3708   6.703   1.714   7.072 -0.3097 -0.5977  0.2815
   51CHL1    C6 3709   6.827   1.743   7.112  0.0776  0.6119  0.4276
   51CHL1    H6 3710   6.901   1.777   7.038 -0.6589  1.0889 -0.1007
   51CHL1    C7 3711   6.880   1.719   7.250 -0.1285 -0.0066  0.9538
   51CHL1   H7A 3712   6.980   1.674   7.234 -0.0341  0.0818  1.2851
   51CHL1   H7B 3713   6.901   1.818   7.296  0.2653 -0.7817  2.4837
   51CHL1    C8 3714   6.782   1.632   7.339 -0.1961 -0.0396  0.3823
   51CHL1    H8 3715   6.791   1.528   7.303  0.3613 -0.2095  0.9819
   51CHL1   C14 3716   6.815   1.637   7.484 -0.9852 -0.4822  0.1422
   51CHL1   H14 3717   6.794   1.742   7.515 -0.5488 -0.4405  0.3051
   51CHL1   C15 3718   6.961   1.611   7.523 -0.1883 -0.0339  0.3659
   51CHL1  H15A 3719   6.984   1.517   7.469 -1.9658 -1.5259  2.0776
   51CHL1  H15B 3720   7.023   1.700   7.499  0.0622 -0.4188 -0.4688
   51CHL1   C16 3721   6.958   1.579   7.669  0.4971 -0.4607 -0.4333
   51CHL1  H16A 3722   6.997   1.477   7.689 -0.6781 -1.5136 -3.1046
   51CHL1  H16B 3723   7.017   1.648   7.734 -0.3908 -2.0484  2.2189
   51CHL1   C17 3724   6.810   1.590   7.711  0.0646  0.8536 -0.0195
   51CHL1   H17 3725   6.793   1.696   7.738 -0.3350  0.8802 -0.3721
   51CHL1   C13 3726   6.729   1.554   7.581 -0.2586 -0.0523  0.0736
   51CHL1   C18 3727   6.735   1.401   7.548  0.0072 -0.2964  0.0141
   51CHL1  H18A 3728   6.838   1.365   7.571 -0.4451 -1.0008  0.9949
   51CHL1  H18B 3729   6.672   1.347   7.621  1.2093 -1.9006 -0.0839
   51CHL1  H18C 3730   6.701   1.374   7.446 -1.9431  0.4066  0.4418
   51CHL1   C12 3731   6.591   1.615   7.576  0.0430 -0.5843  0.9484
   51CHL1  H12A 3732   6.516   1.566   7.641  1.0861  0.5190  3.1122
   51CHL1  H12B 3733   6.601   1.722   7.607 -0.7364 -0.7105  1.6564
   51CHL1   C11 3734   6.541   1.608   7.427  0.0999 -0.0568  0.2954
   51CHL1  H11A 3735   6.517   1.502   7.406 -1.4791  0.4290 -0.4673
   51CHL1  H11B 3736   6.454   1.677   7.432  1.4776  1.7382  0.7492
   51CHL1    C9 3737   6.636   1.679   7.318 -0.8694  0.0061 -0.5501
   51CHL1    H9 3738   6.643   1.786   7.349  0.6819  0.0244 -0.9195
   51CHL1   C10 3739   6.593   1.670   7.170  0.5044 -0.1661  0.4163
   51CHL1   C19 3740   6.546   1.523   7.141 -0.5119  0.3234 -0.3006
   51CHL1  H19A 3741   6.623   1.455   7.183 -0.5912  1.5587  2.0114
   51CHL1  H19B 3742   6.453   1.506   7.201 -0.0252  1.5970  0.8975
   51CHL1  H19C 3743   6.521   1.507   7.034  0.7013 -0.8769 -0.4196
   51CHL1    C1 3744   6.470   1.753   7.163 -0.4121  0.3756  0.3993
   51CHL1   H1A 3745   6.387   1.716   7.227 -1.4019 -2.7932 -2.4441
   51CHL1   H1B 3746   6.483   1.852   7.212  0.9080  1.0649 -1.2464
   51CHL1    C2 3747   6.425   1.770   7.020  0.2360  0.2365 -0.1495
   51CHL1   H2A 3748   6.340   1.842   7.020 -0.0704 -0.0967 -1.2994
   51CHL1   H2B 3749   6.385   1.675   6.977  0.5669 -0.7386  1.6120
   51CHL1   C20 3750   6.774   1.500   7.832  0.0929  0.2404  0.0784
   51CHL1   H20 3751   6.810   1.396   7.820 -0.0573  0.1459  0.4174
   51CHL1   C21 3752   6.624   1.492   7.865 -0.6257  0.4739 -0.2665
   51CHL1  H21A 3753   6.580   1.594   7.869  0.6447  1.0645 -0.5861
   51CHL1  H21B 3754   6.602   1.442   7.961 -0.6561  1.0765  0.0435
   51CHL1  H21C 3755   6.578   1.427   7.788 -1.3323  1.5020 -0.7321
   51CHL1   C22 3756   6.852   1.551   7.955 -0.4938 -0.7465 -0.4818
   51CHL1  H22A 3757   6.963   1.551   7.945 -0.3845  1.8064 -0.0140
   51CHL1  H22B 3758   6.822   1.657   7.967 -0.1586 -0.7752  0.6845
   51CHL1   C23 3759   6.828   1.477   8.088  0.5542  0.3222  0.3835
   51CHL1  H23A 3760   6.723   1.500   8.115  0.1131 -0.8701 -0.2146
   51CHL1  H23B 3761   6.834   1.368   8.067  0.7701  0.3266  0.4211
   51CHL1   C24 3762   6.925   1.519   8.199 -0.1495  0.2268  0.3729
   51CHL1  H24A 3763   7.026   1.485   8.164 -0.3136  0.2192 -0.0983
   51CHL1  H24B 3764   6.936   1.629   8.208 -1.6285  0.4026  0.1464
   51CHL1   C25 3765   6.908   1.455   8.337  0.7732 -0.4747  0.6361
   51CHL1   H25 3766   6.924   1.345   8.324  2.1224 -0.1873 -0.2991
   51CHL1   C26 3767   7.021   1.518   8.425  0.1192 -0.0289  0.0410
   51CHL1  H26A 3768   7.013   1.629   8.426  5.0077  0.5405  0.0880
   51CHL1  H26B 3769   7.011   1.462   8.521 -0.1925 -2.0947 -1.1390
   51CHL1  H26C 3770   7.119   1.492   8.379  0.4409  1.5018 -0.1871
   51CHL1   C27 3771   6.771   1.476   8.401  0.6243 -0.0870  0.4090
   51CHL1  H27A 3772   6.732   1.577   8.423 -0.5729 -0.2101 -1.0020
   51CHL1  H27B 3773   6.688   1.437   8.339 -0.1365  0.5099  1.0397
   51CHL1  H27C 3774   6.778   1.420   8.497  0.0818  0.3286  0.6897
   52CHL1    C3 3775   1.381   3.869   6.910  0.1249  0.0357  0.7468
   52CHL1    H3 3776   1.441   3.946   6.964 -0.9738  3.5473 -2.5832
   52CHL1    O3 3777   1.372   3.914   6.780 -0.1228  0.3976  0.1985
   52CHL1   H3' 3778   1.461   3.897   6.747 -0.1568  1.8590 -0.7274
   52CHL1    C4 3779   1.454   3.734   6.917 -0.1217 -0.3380  0.8385
   52CHL1   H4A 3780   1.400   3.658   6.855  2.2894 -0.7830 -0.8494
   52CHL1   H4B 3781   1.548   3.755   6.862 -0.7763  1.8013  0.4687
   52CHL1    C5 3782   1.460   3.672   7.059  0.1956 -0.0064  0.0885
   52CHL1    C6 3783   1.574   3.639   7.120 -0.1117 -0.0833  0.0824
   52CHL1    H6 3784   1.669   3.660   7.069  0.5376 -0.7534  0.9782
   52CHL1    C7 3785   1.590   3.585   7.258  0.4048  0.1155  0.1334
   52CHL1   H7A 3786   1.646   3.489   7.258  2.4678  1.2821  0.1511
   52CHL1   H7B 3787   1.643   3.659   7.321 -0.5255  0.2733  0.7594
   52CHL1    C8 3788   1.457   3.555   7.328  0.8331  0.5790  0.5800
   52CHL1    H8 3789   1.416   3.466   7.276 -0.3474  2.5111 -1.9836
   52CHL1   C14 3790   1.482   3.545   7.471  0.1848 -0.4768  0.4358
   52CHL1   H14 3791   1.522   3.644   7.504  1.0015 -1.6406  3.1671
   52CHL1   C15 3792   1.583   3.438   7.513 -0.7546  0.3765 -0.4302
   52CHL1  H15A 3793   1.548   3.341   7.471 -0.8291  0.4861 -0.6215
   52CHL1  H15B 3794   1.686   3.468   7.485 -1.5096  1.4740 -2.1974
   52CHL1   C16 3795   1.564   3.425   7.662  0.0169 -0.5231 -0.4693
   52CHL1  H16A 3796   1.558   3.317   7.688  0.1302 -0.2278  0.8593
   52CHL1  H16B 3797   1.651   3.475   7.709 -1.6053 -0.6542  2.9929
   52CHL1   C17 3798   1.431   3.491   7.694 -0.1229  0.2334  0.2818
   52CHL1   H17 3799   1.453   3.592   7.736 -1.4103  0.4977  0.3546
   52CHL1   C13 3800   1.361   3.517   7.556 -0.0411  0.6149 -0.3985
   52CHL1   C18 3801   1.303   3.380   7.514 -0.1672  0.3002  0.4059
   52CHL1  H18A 3802   1.355   3.296   7.564 -1.9956  0.9274  3.6287
   52CHL1  H18B 3803   1.201   3.376   7.556 -1.1654 -0.3250 -1.9020
   52CHL1  H18C 3804   1.288   3.368   7.404 -0.0751 -0.5135  0.4834
   52CHL1   C12 3805   1.258   3.629   7.536 -0.1616  0.5394 -0.0699
   52CHL1  H12A 3806   1.166   3.618   7.596 -0.2950  0.9642 -0.1906
   52CHL1  H12B 3807   1.304   3.723   7.574  1.2870 -0.4185  0.6305
   52CHL1   C11 3808   1.235   3.650   7.385  0.4506 -0.5876  0.3085
   52CHL1  H11A 3809   1.189   3.559   7.342  0.8299 -1.4174  1.6053
   52CHL1  H11B 3810   1.169   3.736   7.364  0.6443 -0.4867  0.1057
   52CHL1    C9 3811   1.355   3.666   7.294 -0.6495  0.3103  0.2007
   52CHL1    H9 3812   1.407   3.755   7.334  1.8101 -1.4930  1.2714
   52CHL1   C10 3813   1.328   3.681   7.139  0.0531 -0.0309 -0.1236
   52CHL1   C19 3814   1.242   3.566   7.086 -1.0896 -0.0731 -0.1932
   52CHL1  H19A 3815   1.168   3.521   7.156 -0.1296  0.3662  1.1487
   52CHL1  H19B 3816   1.197   3.597   6.989 -0.1520  1.7564 -0.0823
   52CHL1  H19C 3817   1.308   3.480   7.061  0.1800  0.9062 -0.2939
   52CHL1    C1 3818   1.253   3.814   7.122  0.1156  0.4534 -0.3982
   52CHL1   H1A 3819   1.156   3.807   7.175  0.7074  2.9645  1.1905
   52CHL1   H1B 3820   1.301   3.900   7.174  1.4952 -1.6434  1.9981
   52CHL1    C2 3821   1.243   3.870   6.983 -0.2403 -0.1004 -0.6272
   52CHL1   H2A 3822   1.203   3.973   6.997  3.7721  1.2793  2.6491
   52CHL1   H2B 3823   1.169   3.808   6.928  2.7960 -2.7972 -1.9632
   52CHL1   C20 3824   1.356   3.421   7.816 -0.9266 -0.5149 -0.0389
   52CHL1   H20 3825   1.337   3.317   7.781  1.8179 -0.6488 -1.3518
   52CHL1   C21 3826   1.230   3.489   7.832  0.9152 -0.0986  0.2292
   52CHL1  H21A 3827   1.165   3.492   7.742  1.2111  1.2927  0.0333
   52CHL1  H21B 3828   1.227   3.594   7.869 -0.2441 -0.0202 -0.0474
   52CHL1  H21C 3829   1.181   3.429   7.912  0.2603  1.4857  1.0774
   52CHL1   C22 3830   1.445   3.424   7.938 -0.4517  0.1348  1.1134
   52CHL1  H22A 3831   1.540   3.369   7.921  0.0723  0.7376  1.9792
   52CHL1  H22B 3832   1.477   3.531   7.946  1.4668 -0.2163 -0.9492
   52CHL1   C23 3833   1.382   3.359   8.062 -0.2412  0.2823 -0.3110
   52CHL1  H23A 3834   1.292   3.419   8.091 -0.4509 -0.2626  0.1966
   52CHL1  H23B 3835   1.348   3.258   8.031  1.3290 -0.3599  0.0179
   52CHL1   C24 3836   1.479   3.356   8.179 -0.0201 -0.9717  1.0083
   52CHL1  H24A 3837   1.567   3.290   8.161  1.2938  0.9760 -0.0585
   52CHL1  H24B 3838   1.520   3.457   8.199  2.0107 -1.2886 -1.1574
   52CHL1   C25 3839   1.417   3.314   8.307  0.2178  0.1583 -0.5200
   52CHL1   H25 3840   1.351   3.226   8.294 -1.0548  0.9433  0.3819
   52CHL1   C26 3841   1.527   3.260   8.411  0.2605  0.6759  0.6383
   52CHL1  H26A 3842   1.479   3.235   8.508 -1.3780 -2.3103 -0.8200
   52CHL1  H26B 3843   1.582   3.178   8.360  0.7675  2.0392 -1.0913
   52CHL1  H26C 3844   1.607   3.336   8.424  1.0888 -0.1166  0.2679
   52CHL1   C27 3845   1.356   3.422   8.382  0.3781 -0.3029 -0.1210
   52CHL1  H27A 3846   1.272   3.476   8.334  1.0826  1.7214  0.7839
   52CHL1  H27B 3847   1.313   3.394   8.480  3.5726  1.6179  2.0251
   52CHL1  H27C 3848   1.432   3.501   8.402  0.2183  1.3007 -4.7180
   53CHL1    C3 3849   3.775   6.754   7.241  0.4283 -0.3266 -0.3362
   53CHL1    H3 3850   3.671   6.765   7.278  0.5531  0.9215 -0.3188
   53CHL1    O3 3851   3.779   6.735   7.102  0.2441  0.4722  0.4603
   53CHL1   H3' 3852   3.867   6.699   7.088  0.3530 -0.3303  2.8602
   53CHL1    C4 3853   3.868   6.876   7.276  0.6748 -0.1008  0.0909
   53CHL1   H4A 3854   3.963   6.854   7.223  0.8657  1.2280 -0.1604
   53CHL1   H4B 3855   3.821   6.964   7.226 -0.9122 -0.4070  1.0116
   53CHL1    C5 3856   3.892   6.896   7.424  1.2043 -0.4275 -0.4593
   53CHL1    C6 3857   3.848   7.016   7.474 -0.7689  0.6725 -0.1949
   53CHL1    H6 3858   3.817   7.099   7.409  1.0466  1.3896 -0.1994
   53CHL1    C7 3859   3.860   7.040   7.621 -0.1438  0.0116  0.0624
   53CHL1   H7A 3860   3.908   7.137   7.644  0.0147  0.0211 -0.3119
   53CHL1   H7B 3861   3.758   7.036   7.665 -0.2985 -2.3317 -0.3499
   53CHL1    C8 3862   3.947   6.932   7.700  0.5749 -0.3141  0.1846
   53CHL1    H8 3863   4.054   6.952   7.676  0.3312 -0.8720 -1.4938
   53CHL1   C14 3864   3.910   6.950   7.853  0.2091  0.5562 -0.4677
   53CHL1   H14 3865   3.807   6.908   7.857  0.4208 -0.1880 -2.2098
   53CHL1   C15 3866   3.904   7.088   7.919 -0.0393 -0.4187  0.3120
   53CHL1  H15A 3867   3.992   7.151   7.895 -0.8007  0.0029 -1.6273
   53CHL1  H15B 3868   3.816   7.144   7.879 -1.3296 -1.8974  0.9663
   53CHL1   C16 3869   3.884   7.057   8.068  0.5693 -0.1001  0.1943
   53CHL1  H16A 3870   3.948   7.133   8.117 -0.4674  2.6811 -2.4611
   53CHL1  H16B 3871   3.777   7.059   8.097  0.5606 -0.5421  0.2067
   53CHL1   C17 3872   3.929   6.904   8.083 -0.5148 -0.1733 -0.8819
   53CHL1   H17 3873   3.836   6.845   8.098  0.5107 -1.1356  2.6375
   53CHL1   C13 3874   3.988   6.865   7.949 -0.2460  0.2644 -0.7604
   53CHL1   C18 3875   4.142   6.917   7.933  0.6290 -0.0526  0.2728
   53CHL1  H18A 3876   4.202   6.847   7.995 -1.7923 -1.7505  0.8444
   53CHL1  H18B 3877   4.184   6.904   7.831 -0.9877  0.3090 -0.4581
   53CHL1  H18C 3878   4.154   7.023   7.964 -2.3628  0.4951 -0.2211
   53CHL1   C12 3879   3.965   6.721   7.905  0.3446  0.3037  0.5387
   53CHL1  H12A 3880   4.016   6.640   7.960  0.1102  0.7175  1.3754
   53CHL1  H12B 3881   3.859   6.696   7.925  0.6780 -2.2810 -0.5148
   53CHL1   C11 3882   3.998   6.698   7.754  0.8993  0.3778  0.4315
   53CHL1  H11A 3883   4.109   6.697   7.758  0.9233  1.1708  0.1712
   53CHL1  H11B 3884   3.964   6.593   7.738  0.9514 -0.2139  3.5290
   53CHL1    C9 3885   3.917   6.787   7.660 -0.2417 -0.4033  0.3579
   53CHL1    H9 3886   3.810   6.770   7.684  0.2411 -0.6499  2.5648
   53CHL1   C10 3887   3.934   6.773   7.504 -0.4998  0.1383 -0.2614
   53CHL1   C19 3888   4.088   6.764   7.469  0.1220 -0.0263 -0.4429
   53CHL1  H19A 3889   4.104   6.745   7.361  0.3305  1.2248 -0.6447
   53CHL1  H19B 3890   4.153   6.851   7.494  0.1794  0.0368 -0.8138
   53CHL1  H19C 3891   4.143   6.679   7.515  4.4118  1.4242 -2.3861
   53CHL1    C1 3892   3.851   6.651   7.457 -0.3919  0.6527 -0.3441
   53CHL1   H1A 3893   3.907   6.563   7.495  0.7288  1.4873 -0.0024
   53CHL1   H1B 3894   3.749   6.646   7.501 -0.7697 -2.9516 -1.3271
   53CHL1    C2 3895   3.838   6.632   7.308  0.5190 -0.5856  0.7274
   53CHL1   H2A 3896   3.779   6.547   7.266 -0.3719  0.8319 -1.0301
   53CHL1   H2B 3897   3.933   6.620   7.252  0.7297  0.3375  0.8694
   53CHL1   C20 3898   4.012   6.870   8.210  0.2506 -0.5667  0.4548
   53CHL1   H20 3899   4.099   6.939   8.208 -0.7596  0.7620 -1.6573
   53CHL1   C21 3900   4.051   6.725   8.204  0.1306  0.1906  0.1726
   53CHL1  H21A 3901   3.970   6.651   8.187  0.5018 -0.3054  0.5026
   53CHL1  H21B 3902   4.113   6.687   8.288  1.1626 -0.7175 -0.9646
   53CHL1  H21C 3903   4.124   6.707   8.122  3.0735  2.1207  2.1718
   53CHL1   C22 3904   3.928   6.899   8.338  0.5867  0.0112  0.2682
   53CHL1  H22A 3905   3.905   7.008   8.341 -1.7915 -0.4257  0.6077
   53CHL1  H22B 3906   3.831   6.844   8.338  0.7788 -0.3296  0.7724
   53CHL1   C23 3907   3.999   6.863   8.466  0.0832  0.6110 -0.2372
   53CHL1  H23A 3908   4.008   6.753   8.478  0.1663  0.6061 -0.3479
   53CHL1  H23B 3909   4.099   6.910   8.449  0.5239 -0.3370 -0.3168
   53CHL1   C24 3910   3.933   6.905   8.602  0.0786 -0.7912 -0.0906
   53CHL1  H24A 3911   3.922   7.015   8.595 -1.3006 -0.9493 -0.6456
   53CHL1  H24B 3912   3.833   6.864   8.628  0.0725  0.0485  1.2485
   53CHL1   C25 3913   4.017   6.880   8.731  0.3139  0.0228  0.1873
   53CHL1   H25 3914   4.123   6.901   8.707  0.5227 -1.3458 -0.1654
   53CHL1   C26 3915   3.980   6.979   8.836  0.3616 -0.7553 -0.1112
   53CHL1  H26A 3916   4.037   6.970   8.931  0.4263 -3.4697 -0.3324
   53CHL1  H26B 3917   4.001   7.079   8.790 -1.6929 -0.0419  0.4152
   53CHL1  H26C 3918   3.874   6.963   8.864  1.3282 -1.8302  3.3269
   53CHL1   C27 3919   3.991   6.734   8.786 -0.1814 -0.3216  0.2738
   53CHL1  H27A 3920   4.067   6.706   8.863  0.3615 -0.3431 -0.2612
   53CHL1  H27B 3921   3.893   6.724   8.836  0.8925 -0.8024  2.4100
   53CHL1  H27C 3922   4.002   6.650   8.714  0.6612  0.2686 -0.3089
   54CHL1    C3 3923   4.661   1.359   6.964  0.6116  0.0563 -0.4452
   54CHL1    H3 3924   4.765   1.393   6.980  0.2716  0.1946  1.7775
   54CHL1    O3 3925   4.608   1.395   6.832 -0.4492  0.7806  0.0471
   54CHL1   H3' 3926   4.546   1.326   6.808  0.1742  0.2049  0.0665
   54CHL1    C4 3927   4.679   1.207   6.979 -0.1523 -0.6648 -0.4817
   54CHL1   H4A 3928   4.577   1.167   6.960  0.3177 -2.5097  0.6379
   54CHL1   H4B 3929   4.735   1.170   6.891 -1.5060 -0.0429 -1.6594
   54CHL1    C5 3930   4.738   1.160   7.111 -0.1535 -0.3100 -0.1423
   54CHL1    C6 3931   4.851   1.081   7.123  0.4515 -0.2066  0.5963
   54CHL1    H6 3932   4.889   1.049   7.025 -0.4292 -0.4116  0.3081
   54CHL1    C7 3933   4.912   1.031   7.251 -0.1203 -0.9351  0.0887
   54CHL1   H7A 3934   4.903   0.922   7.231  0.8416 -0.8491 -0.8775
   54CHL1   H7B 3935   5.014   1.072   7.265  0.3350 -1.1126 -2.4014
   54CHL1    C8 3936   4.820   1.056   7.373  0.9213  0.1554  0.4955
   54CHL1    H8 3937   4.744   0.975   7.372 -0.7685  1.6040  1.9508
   54CHL1   C14 3938   4.901   1.048   7.498  0.0039 -0.7159 -0.3944
   54CHL1   H14 3939   4.962   1.141   7.494  0.7166 -1.0691  1.2584
   54CHL1   C15 3940   4.996   0.930   7.519 -0.6382  0.1122 -0.1731
   54CHL1  H15A 3941   4.953   0.833   7.489 -1.3573  0.4353 -0.2137
   54CHL1  H15B 3942   5.098   0.939   7.475 -0.5584  0.2283  0.0289
   54CHL1   C16 3943   5.003   0.918   7.670 -0.0872 -0.3997  0.0473
   54CHL1  H16A 3944   4.955   0.829   7.716  0.2281  0.0096  1.1987
   54CHL1  H16B 3945   5.106   0.907   7.709 -1.5532  0.4044  4.7813
   54CHL1   C17 3946   4.921   1.031   7.734  0.4012  0.4801 -0.2052
   54CHL1   H17 3947   4.980   1.124   7.730  0.8830  0.3418  2.1877
   54CHL1   C13 3948   4.810   1.059   7.628 -0.8109 -0.2189 -0.4611
   54CHL1   C18 3949   4.700   0.948   7.636  0.1824 -0.7019  0.3118
   54CHL1  H18A 3950   4.621   0.956   7.558  0.9496  2.3873 -0.2836
   54CHL1  H18B 3951   4.743   0.846   7.639 -0.7700 -1.1888 -1.0688
   54CHL1  H18C 3952   4.651   0.954   7.735 -1.1598  1.3307 -0.3951
   54CHL1   C12 3953   4.746   1.198   7.629 -0.1866 -0.8964 -0.0418
   54CHL1  H12A 3954   4.672   1.220   7.709 -1.8560  0.3237 -1.8187
   54CHL1  H12B 3955   4.818   1.282   7.645  0.2057 -0.4914 -3.1449
   54CHL1   C11 3956   4.674   1.231   7.495 -0.3788 -0.3730 -0.5163
   54CHL1  H11A 3957   4.580   1.173   7.505 -0.0702 -0.7702  0.1667
   54CHL1  H11B 3958   4.652   1.340   7.492  0.6895 -0.1621 -1.1876
   54CHL1    C9 3959   4.750   1.200   7.365 -0.0621  0.3964  0.8940
   54CHL1    H9 3960   4.835   1.271   7.353  0.3873 -0.4709 -2.0152
   54CHL1   C10 3961   4.670   1.216   7.231 -0.2438 -0.7376  0.0320
   54CHL1   C19 3962   4.536   1.139   7.249 -0.4722 -0.1255 -0.3548
   54CHL1  H19A 3963   4.553   1.031   7.268 -1.7471  0.3135  4.3676
   54CHL1  H19B 3964   4.476   1.182   7.331 -2.5629 -1.8243 -0.9063
   54CHL1  H19C 3965   4.475   1.135   7.156  0.0025 -2.5940 -0.6163
   54CHL1    C1 3966   4.657   1.369   7.209 -0.0490  0.2105  0.7559
   54CHL1   H1A 3967   4.593   1.403   7.293  0.8405 -0.2234  1.6254
   54CHL1   H1B 3968   4.756   1.418   7.216  0.3224 -0.3908 -0.0805
   54CHL1    C2 3969   4.583   1.424   7.078 -0.5728  0.1081 -0.8368
   54CHL1   H2A 3970   4.592   1.535   7.075 -2.0050  0.3354  1.1414
   54CHL1   H2B 3971   4.478   1.390   7.073 -1.1598  1.6763 -0.0788
   54CHL1   C20 3972   4.879   0.998   7.885  0.2632  0.1634  0.3129
   54CHL1   H20 3973   4.822   0.903   7.880 -1.4536  1.2027 -1.5244
   54CHL1   C21 3974   4.766   1.097   7.929 -0.9176 -0.2671 -1.0111
   54CHL1  H21A 3975   4.823   1.190   7.953  1.4176 -1.8996  0.1244
   54CHL1  H21B 3976   4.719   1.065   8.024 -0.8689  0.1448 -0.8475
   54CHL1  H21C 3977   4.678   1.136   7.873 -0.2366  2.9009 -0.0934
   54CHL1   C22 3978   4.996   0.988   7.976 -0.3032  0.4135 -0.5558
   54CHL1  H22A 3979   5.070   0.918   7.931  1.3746  1.1266  0.9389
   54CHL1  H22B 3980   5.047   1.086   7.986 -0.4874  0.3329  1.6273
   54CHL1   C23 3981   4.961   0.953   8.124 -0.0623  0.4019 -0.5566
   54CHL1  H23A 3982   4.888   1.018   8.177 -0.2594 -0.2095 -0.0646
   54CHL1  H23B 3983   4.903   0.859   8.127  0.8751 -0.1830 -0.4659
   54CHL1   C24 3984   5.088   0.930   8.212 -0.3803 -0.4420 -0.5440
   54CHL1  H24A 3985   5.159   0.851   8.178  0.4139 -0.1529  0.4000
   54CHL1  H24B 3986   5.143   1.026   8.209 -1.6928  0.3081 -1.2455
   54CHL1   C25 3987   5.055   0.907   8.362  0.3039 -0.0214 -0.4454
   54CHL1   H25 3988   4.996   0.992   8.402 -0.3765 -0.8202  0.2761
   54CHL1   C26 3989   4.978   0.780   8.385  0.6376  0.0491  0.0035
   54CHL1  H26A 3990   4.959   0.770   8.494 -2.4891  3.4928 -0.0284
   54CHL1  H26B 3991   4.878   0.788   8.338 -0.6471  1.3036  2.7172
   54CHL1  H26C 3992   5.042   0.701   8.341  2.0970  1.4567 -0.4852
   54CHL1   C27 3993   5.187   0.913   8.442 -0.7441  0.1601 -0.3317
   54CHL1  H27A 3994   5.182   0.853   8.535  0.2565  2.8689  1.6178
   54CHL1  H27B 3995   5.265   0.878   8.371 -2.0147 -2.4540 -0.5715
   54CHL1  H27C 3996   5.209   1.021   8.458  1.1927 -0.3864  1.1008
   55CHL1    C3 3997   5.315   4.842   7.124 -0.1487  0.5555 -0.0075
   55CHL1    H3 3998   5.421   4.849   7.157 -0.5424  1.0897  1.2015
   55CHL1    O3 3999   5.303   4.863   6.987 -0.1119 -0.3121  0.1427
   55CHL1   H3' 4000   5.210   4.853   6.966 -0.1727 -0.7316  0.5911
   55CHL1    C4 4001   5.257   4.697   7.147 -0.6671 -0.1670 -0.7179
   55CHL1   H4A 4002   5.152   4.687   7.115 -0.7735 -1.9136  0.0973
   55CHL1   H4B 4003   5.313   4.620   7.090  0.8999 -0.2910  0.8902
   55CHL1    C5 4004   5.261   4.661   7.295 -0.4131  0.3307 -0.3756
   55CHL1    C6 4005   5.345   4.563   7.343 -0.1902  0.1881 -0.7023
   55CHL1    H6 4006   5.398   4.494   7.275 -0.0018 -0.5008  0.1305
   55CHL1    C7 4007   5.358   4.527   7.490 -0.2405  0.4704  0.2184
   55CHL1   H7A 4008   5.324   4.422   7.500  2.1459 -0.3661  0.2637
   55CHL1   H7B 4009   5.464   4.521   7.522  0.0995  1.7611 -0.5987
   55CHL1    C8 4010   5.264   4.601   7.594  0.3179  0.9919  0.6995
   55CHL1    H8 4011   5.163   4.560   7.573  1.0224  1.2655 -4.4150
   55CHL1   C14 4012   5.325   4.585   7.734  0.6373  0.0061 -0.9815
   55CHL1   H14 4013   5.425   4.633   7.735  0.9720 -0.6806 -0.4313
   55CHL1   C15 4014   5.345   4.445   7.775 -1.2606  0.0950  0.4040
   55CHL1  H15A 4015   5.266   4.380   7.731 -1.3004  0.9106 -0.7786
   55CHL1  H15B 4016   5.441   4.394   7.749 -1.8422 -1.0979  0.5405
   55CHL1   C16 4017   5.336   4.457   7.929 -0.8496 -0.2124 -0.2521
   55CHL1  H16A 4018   5.249   4.399   7.966 -0.2563 -0.5161  0.6930
   55CHL1  H16B 4019   5.436   4.437   7.971  0.2851 -2.5171 -3.5914
   55CHL1   C17 4020   5.298   4.603   7.963  0.5455 -0.1255  1.1222
   55CHL1   H17 4021   5.396   4.654   7.960  1.0828 -1.1347 -2.6399
   55CHL1   C13 4022   5.231   4.649   7.835 -0.6861 -1.0490  0.0097
   55CHL1   C18 4023   5.085   4.596   7.832 -0.2658  0.5891  1.1046
   55CHL1  H18A 4024   5.011   4.649   7.897 -1.7249  0.7879 -0.6442
   55CHL1  H18B 4025   5.045   4.613   7.730 -0.6293 -1.6456  0.8266
   55CHL1  H18C 4026   5.078   4.488   7.855 -2.2130  0.7136  1.2935
   55CHL1   C12 4027   5.230   4.805   7.802 -0.3237 -0.2188  0.2461
   55CHL1  H12A 4028   5.160   4.852   7.873 -1.6587 -3.4515  1.2878
   55CHL1  H12B 4029   5.333   4.846   7.806 -0.7532  0.8057  1.1152
   55CHL1   C11 4030   5.192   4.832   7.658  0.0785  0.1462  0.1029
   55CHL1  H11A 4031   5.081   4.826   7.649 -0.3421  2.0325  2.8330
   55CHL1  H11B 4032   5.217   4.936   7.629  0.4172  0.2904  0.8775
   55CHL1    C9 4033   5.264   4.746   7.549  0.5979  0.0138 -0.4539
   55CHL1    H9 4034   5.365   4.791   7.542  0.8936 -0.7875 -1.9744
   55CHL1   C10 4035   5.209   4.764   7.404 -0.0197  0.7116  0.4036
   55CHL1   C19 4036   5.059   4.736   7.408 -0.0404  0.1656 -0.1865
   55CHL1  H19A 4037   5.045   4.626   7.409  0.8903  0.0407 -0.4034
   55CHL1  H19B 4038   4.992   4.786   7.481 -1.3567 -1.8463  0.0846
   55CHL1  H19C 4039   5.014   4.774   7.313 -1.0275 -0.0509  0.1814
   55CHL1    C1 4040   5.246   4.912   7.359  0.4164  0.1490 -0.2342
   55CHL1   H1A 4041   5.186   4.987   7.416  0.9725 -0.3828  1.0990
   55CHL1   H1B 4042   5.351   4.938   7.384  0.4624 -0.2704  0.0300
   55CHL1    C2 4043   5.234   4.938   7.206 -0.2744 -0.6899  0.0971
   55CHL1   H2A 4044   5.264   5.042   7.179 -1.8288 -0.0899  0.5912
   55CHL1   H2B 4045   5.128   4.932   7.175 -0.1018  0.2278 -0.7266
   55CHL1   C20 4046   5.229   4.626   8.099 -0.5195  0.3334  0.5704
   55CHL1   H20 4047   5.133   4.569   8.099  0.0737 -0.6869 -0.1442
   55CHL1   C21 4048   5.217   4.775   8.126  0.0550  0.0585  0.0844
   55CHL1  H21A 4049   5.314   4.821   8.097 -0.8964  1.0134 -1.7892
   55CHL1  H21B 4050   5.186   4.798   8.230 -0.3873 -2.3203  0.5334
   55CHL1  H21C 4051   5.135   4.807   8.058 -0.1495 -1.2851 -0.3388
   55CHL1   C22 4052   5.300   4.564   8.224  0.5813 -0.1422  0.2844
   55CHL1  H22A 4053   5.239   4.579   8.316 -1.8776 -1.5367 -1.0153
   55CHL1  H22B 4054   5.299   4.454   8.214 -0.7435 -0.2919  1.6813
   55CHL1   C23 4055   5.441   4.616   8.247  0.3021  0.5266  0.4490
   55CHL1  H23A 4056   5.505   4.568   8.169 -0.0877 -1.3182  1.2038
   55CHL1  H23B 4057   5.457   4.726   8.248  1.0086  0.5102 -2.1409
   55CHL1   C24 4058   5.499   4.568   8.380  0.3256  0.2105 -0.4946
   55CHL1  H24A 4059   5.437   4.625   8.452 -1.5093 -1.6167 -0.5462
   55CHL1  H24B 4060   5.474   4.460   8.388  1.7181 -0.3904 -3.1251
   55CHL1   C25 4061   5.657   4.593   8.392  0.6206 -0.4598 -0.0488
   55CHL1   H25 4062   5.690   4.680   8.332 -0.3205 -0.8232 -1.1255
   55CHL1   C26 4063   5.709   4.609   8.532 -0.1369  0.2410  1.0657
   55CHL1  H26A 4064   5.816   4.638   8.543  0.2619 -1.3130  1.4620
   55CHL1  H26B 4065   5.660   4.700   8.574 -2.2062  0.3512 -1.3111
   55CHL1  H26C 4066   5.687   4.515   8.587  0.8477  0.2816  1.5512
   55CHL1   C27 4067   5.722   4.465   8.334 -0.3043 -0.0189  0.1993
   55CHL1  H27A 4068   5.688   4.375   8.389  1.9904 -1.7616 -1.0800
   55CHL1  H27B 4069   5.696   4.453   8.227 -0.3482 -1.1091  0.3302
   55CHL1  H27C 4070   5.833   4.475   8.332 -0.0772 -2.2197 -1.6405
   56CHL1    C3 4071   2.267   1.762   6.864 -0.4376  0.9493  0.9683
   56CHL1    H3 4072   2.165   1.723   6.884 -1.1926  1.1689 -1.9879
   56CHL1    O3 4073   2.277   1.789   6.727  0.2897 -0.6492  1.0707
   56CHL1   H3' 4074   2.362   1.830   6.712 -0.4416  0.5873  0.0898
   56CHL1    C4 4075   2.272   1.894   6.952 -0.8835 -0.0443 -0.0868
   56CHL1   H4A 4076   2.360   1.952   6.918  1.7228 -3.4613  0.2676
   56CHL1   H4B 4077   2.182   1.957   6.934 -1.6527 -1.1771 -0.3019
   56CHL1    C5 4078   2.286   1.867   7.102 -0.1353 -0.8895 -0.0381
   56CHL1    C6 4079   2.195   1.917   7.185 -0.1215  0.4699 -0.4274
   56CHL1    H6 4080   2.117   1.992   7.163 -0.6852  0.2620  0.7747
   56CHL1    C7 4081   2.178   1.879   7.329  0.4357 -0.5418 -0.2279
   56CHL1   H7A 4082   2.134   1.962   7.389  1.1398  1.7691 -2.7326
   56CHL1   H7B 4083   2.109   1.793   7.335  0.7429 -0.7649  0.2178
   56CHL1    C8 4084   2.320   1.838   7.385 -0.5575  0.2992 -0.1555
   56CHL1    H8 4085   2.391   1.923   7.388  1.1536 -1.0888  2.1107
   56CHL1   C14 4086   2.306   1.777   7.524 -0.1346  0.0020 -0.6921
   56CHL1   H14 4087   2.248   1.684   7.507  1.0845 -1.0278  0.4914
   56CHL1   C15 4088   2.224   1.847   7.628 -0.3545 -0.1918 -0.4960
   56CHL1  H15A 4089   2.263   1.950   7.646  0.5121 -0.7942  1.3066
   56CHL1  H15B 4090   2.122   1.872   7.593 -0.4465 -0.5843 -0.5090
   56CHL1   C16 4091   2.248   1.769   7.758 -0.5461  0.3708  0.1097
   56CHL1  H16A 4092   2.276   1.842   7.838  1.4233  2.5882 -2.4250
   56CHL1  H16B 4093   2.158   1.710   7.784 -0.0575  0.1285  1.3529
   56CHL1   C17 4094   2.368   1.671   7.725  0.5850 -0.1311  0.1670
   56CHL1   H17 4095   2.330   1.572   7.691  0.2312 -0.8041  2.3157
   56CHL1   C13 4096   2.433   1.727   7.595  0.1607  0.4081 -0.5502
   56CHL1   C18 4097   2.539   1.837   7.632  0.0204 -0.3536 -0.2507
   56CHL1  H18A 4098   2.628   1.773   7.653 -0.1833 -1.2190 -1.8769
   56CHL1  H18B 4099   2.551   1.892   7.536  0.0988 -0.2367 -0.1748
   56CHL1  H18C 4100   2.501   1.900   7.715 -1.7650 -1.5407 -0.1160
   56CHL1   C12 4101   2.499   1.621   7.506  0.0774  0.0554  0.5589
   56CHL1  H12A 4102   2.590   1.571   7.546  0.6732  0.4885 -0.2258
   56CHL1  H12B 4103   2.429   1.535   7.506 -0.8535  0.7799 -0.7282
   56CHL1   C11 4104   2.522   1.669   7.359 -0.4194  0.3401  0.0437
   56CHL1  H11A 4105   2.606   1.741   7.370 -1.9481  1.9902  1.5479
   56CHL1  H11B 4106   2.566   1.585   7.300 -1.0722 -0.0917  0.1592
   56CHL1    C9 4107   2.387   1.731   7.290  0.3430  0.0409 -0.0014
   56CHL1    H9 4108   2.316   1.646   7.288  0.7444 -0.3019  0.1668
   56CHL1   C10 4109   2.396   1.769   7.141  0.6427  0.2026 -0.5032
   56CHL1   C19 4110   2.534   1.826   7.115 -0.6207 -0.1453 -0.0740
   56CHL1  H19A 4111   2.613   1.749   7.128 -1.5280 -1.2519 -0.8899
   56CHL1  H19B 4112   2.538   1.868   7.012 -0.7653 -0.2422 -0.1201
   56CHL1  H19C 4113   2.554   1.905   7.190  0.6395 -1.7429  1.3826
   56CHL1    C1 4114   2.376   1.641   7.052 -0.3011  0.4805  0.7784
   56CHL1   H1A 4115   2.456   1.571   7.083  1.1060  1.6145 -0.1718
   56CHL1   H1B 4116   2.281   1.587   7.074  0.1135 -1.1077 -1.1069
   56CHL1    C2 4117   2.381   1.662   6.896 -0.2013 -0.1307 -0.4551
   56CHL1   H2A 4118   2.358   1.568   6.841 -1.3111 -1.0735  1.5173
   56CHL1   H2B 4119   2.478   1.706   6.864 -0.3117  0.4384 -0.0171
   56CHL1   C20 4120   2.458   1.644   7.843  0.6463  0.3439 -0.4507
   56CHL1   H20 4121   2.490   1.740   7.887 -0.9659 -0.3540  2.5579
   56CHL1   C21 4122   2.579   1.551   7.817 -0.2363 -0.9366 -0.6179
   56CHL1  H21A 4123   2.650   1.593   7.743 -0.9302  0.5970 -0.4499
   56CHL1  H21B 4124   2.538   1.458   7.773 -1.2717 -0.7933 -0.0016
   56CHL1  H21C 4125   2.640   1.535   7.909  1.2028  2.5134 -0.8375
   56CHL1   C22 4126   2.394   1.576   7.967  0.1812  0.2797  0.0540
   56CHL1  H22A 4127   2.287   1.604   7.972 -0.1268 -1.0217  2.2290
   56CHL1  H22B 4128   2.398   1.467   7.948  0.8092  0.1088  1.0704
   56CHL1   C23 4129   2.465   1.612   8.103 -1.0411  0.2783  0.1460
   56CHL1  H23A 4130   2.569   1.573   8.103 -1.2498 -0.2852  0.4063
   56CHL1  H23B 4131   2.469   1.724   8.103  0.7130  0.2451 -0.3586
   56CHL1   C24 4132   2.390   1.556   8.226 -0.0642  0.0487 -0.2692
   56CHL1  H24A 4133   2.288   1.596   8.243  0.0168 -0.3229  1.2622
   56CHL1  H24B 4134   2.383   1.447   8.202 -2.2200 -0.1592  1.0508
   56CHL1   C25 4135   2.467   1.578   8.359 -0.5835  0.3429 -0.5533
   56CHL1   H25 4136   2.572   1.543   8.352 -0.9320 -1.9664  3.2238
   56CHL1   C26 4137   2.481   1.726   8.399 -0.2515 -0.7820  0.3315
   56CHL1  H26A 4138   2.546   1.718   8.489 -0.0478 -0.1798  0.2400
   56CHL1  H26B 4139   2.387   1.765   8.443 -0.3356 -1.9961  1.2920
   56CHL1  H26C 4140   2.529   1.795   8.327 -0.3854  1.1077  1.9647
   56CHL1   C27 4141   2.397   1.503   8.477 -0.0063 -0.2674  0.5444
   56CHL1  H27A 4142   2.376   1.403   8.435 -0.6718 -0.2068  0.7341
   56CHL1  H27B 4143   2.471   1.497   8.560  0.3055  2.9971  0.6636
   56CHL1  H27C 4144   2.305   1.557   8.505 -0.1872  1.0610 -2.2200
   57SAPC     N 4145   0.947   6.562  11.171 -0.2760 -0.0749 -0.0577
   57SAPC   C12 4146   1.036   6.458  11.100 -0.4613 -0.1374 -0.2999
   57SAPC  H12A 4147   1.038   6.368  11.160  2.0555 -0.4398 -0.7135
   57SAPC  H12B 4148   1.137   6.493  11.116 -1.0367  1.5523 -0.2074
   57SAPC   C13 4149   0.995   6.604  11.301 -0.6162 -0.2371 -0.0264
   57SAPC  H13A 4150   0.918   6.662  11.349  0.5885  1.8468 -0.4816
   57SAPC  H13B 4151   1.024   6.523  11.366 -0.2916  0.5815  0.8798
   57SAPC  H13C 4152   1.080   6.668  11.283 -0.6155 -0.2716 -0.1515
   57SAPC   C14 4153   0.939   6.685  11.088  0.1168 -0.0901 -0.0983
   57SAPC  H14A 4154   0.906   6.678  10.986  0.2576  2.9362 -0.4354
   57SAPC  H14B 4155   0.877   6.767  11.122 -1.3863 -1.6541  1.1016
   57SAPC  H14C 4156   1.039   6.726  11.080  0.1049 -0.3707 -2.3304
   57SAPC   C15 4157   0.804   6.510  11.174 -0.4362  0.8040  0.1938
   57SAPC  H15A 4158   0.790   6.427  11.241 -0.3269  1.2441  0.7622
   57SAPC  H15B 4159   0.737   6.586  11.210 -2.2478 -1.1978  1.2723
   57SAPC  H15C 4160   0.772   6.480  11.075  0.8977 -0.1204  0.0146
   57SAPC   C11 4161   1.022   6.421  10.952 -0.4510  0.5150 -0.3960
   57SAPC  H11A 4162   1.099   6.345  10.927 -0.4943  0.3651 -0.0742
   57SAPC  H11B 4163   1.040   6.504  10.880 -1.1470  1.4867  0.5221
   57SAPC     P 4164   0.833   6.347  10.792 -0.0607  0.0575 -0.1231
   57SAPC   O13 4165   0.777   6.210  10.790  0.3055 -0.3024 -0.2710
   57SAPC   O14 4166   0.737   6.453  10.762 -0.1216 -0.5073 -0.4209
   57SAPC   O12 4167   0.891   6.369  10.934 -0.3176  0.3033 -0.2178
   57SAPC   O11 4168   0.951   6.356  10.686 -0.3893 -0.2922 -0.0225
   57SAPC    C1 4169   0.952   6.474  10.598  0.1382  0.5180 -0.6434
   57SAPC    HA 4170   0.889   6.559  10.634 -1.0663 -0.4239 -0.4549
   57SAPC    HB 4171   1.059   6.503  10.601  0.8719 -2.0595  0.3375
   57SAPC    C2 4172   0.900   6.441  10.454  0.2158 -0.5092 -0.9887
   57SAPC    HS 4173   0.800   6.394  10.457 -0.2557  0.4640 -1.1552
   57SAPC   O21 4174   1.006   6.365  10.398 -0.2715  0.1013  0.3458
   57SAPC   C21 4175   0.980   6.241  10.379 -0.4408 -0.5204 -1.0259
   57SAPC   O22 4176   0.879   6.181  10.415 -0.2251  0.6088 -0.1231
   57SAPC   C22 4177   1.089   6.177  10.293  0.9379  0.0144  0.5068
   57SAPC   H2R 4178   1.147   6.266  10.260  1.6932  0.1342  2.0823
   57SAPC   H2S 4179   1.159   6.112  10.350  0.6037 -2.4249 -1.6700
   57SAPC    C3 4180   0.879   6.567  10.364 -0.3896  0.8253  0.1890
   57SAPC    HX 4181   0.977   6.620  10.371  0.2078 -0.3341  0.8270
   57SAPC    HY 4182   0.803   6.634  10.410 -1.7335  0.2806 -1.1699
   57SAPC   O31 4183   0.847   6.528  10.230 -0.1210 -0.1374  0.1139
   57SAPC   C31 4184   0.927   6.577  10.134  0.3466 -0.0793  0.5339
   57SAPC   O32 4185   1.035   6.627  10.144 -0.1880 -0.7519  0.3628
   57SAPC   C32 4186   0.861   6.548   9.998 -0.3796  0.3727 -0.1945
   57SAPC   H2X 4187   0.750   6.551  10.008 -0.2677 -1.7848  4.0046
   57SAPC   H2Y 4188   0.882   6.440   9.979  0.7576  0.5926 -0.2173
   57SAPC   C23 4189   1.030   6.088  10.179 -0.2011 -0.2459  0.1302
   57SAPC   H3R 4190   0.951   6.025  10.223  0.7624 -0.6274  1.3886
   57SAPC   H3S 4191   1.112   6.022  10.142  0.2514 -0.8454  2.0693
   57SAPC   C24 4192   0.971   6.188  10.079  0.2198  0.5241 -0.3942
   57SAPC   H4R 4193   1.042   6.266  10.043  0.1785  1.0019  0.5236
   57SAPC   H4S 4194   0.889   6.243  10.130 -0.9188 -1.4372 -0.0110
   57SAPC   C25 4195   0.903   6.120   9.967 -0.6236 -0.3683  0.6448
   57SAPC   H5R 4196   0.836   6.039   9.999 -1.5934 -0.0176 -0.4148
   57SAPC   C26 4197   0.922   6.140   9.830  0.2550  0.4389  0.3561
   57SAPC   H6R 4198   0.856   6.076   9.769 -1.3682  1.3425  1.0713
   57SAPC   C27 4199   1.023   6.234   9.766 -0.1166 -0.6016  0.2409
   57SAPC   H7R 4200   1.077   6.294   9.843  0.8900 -1.3713  0.1635
   57SAPC   H7S 4201   0.972   6.308   9.701  2.4277  0.2086 -0.9964
   57SAPC   C28 4202   1.126   6.155   9.691  0.1002 -0.3553  0.0094
   57SAPC   H8R 4203   1.194   6.087   9.746 -1.7686 -1.9831  0.4203
   57SAPC   C29 4204   1.158   6.166   9.563  0.6477  0.5680  0.3118
   57SAPC   H9R 4205   1.243   6.117   9.514 -0.3874 -0.8327 -0.1367
   57SAPC  C210 4206   1.078   6.260   9.472 -0.0413  0.5420  0.7073
   57SAPC  H10R 4207   1.074   6.357   9.526 -0.9542 -0.0713  1.7833
   57SAPC  H10S 4208   0.976   6.216   9.473  1.1928 -2.7073  3.0211
   57SAPC  C211 4209   1.140   6.287   9.335 -0.4009 -0.2079 -0.5582
   57SAPC  H11R 4210   1.250   6.281   9.337 -0.4123 -0.8796 -1.4240
   57SAPC  C212 4211   1.081   6.313   9.218  0.7656  0.1558 -0.9537
   57SAPC  H12R 4212   1.153   6.332   9.137  1.5720  0.6814 -0.1423
   57SAPC  C213 4213   0.932   6.310   9.190  0.1597 -0.8843 -0.1381
   57SAPC  H13R 4214   0.868   6.316   9.281 -0.4020 -2.6314 -0.3911
   57SAPC  H13S 4215   0.921   6.211   9.141  0.6139 -0.3514 -1.3538
   57SAPC  C214 4216   0.883   6.414   9.092  0.5104 -0.0219  0.1138
   57SAPC  H14R 4217   0.865   6.513   9.138  0.8275  0.4723 -0.7960
   57SAPC  C215 4218   0.892   6.411   8.960  0.4642  0.2234  0.7054
   57SAPC  H15R 4219   0.852   6.482   8.887 -0.1577 -2.3416 -1.6068
   57SAPC  C216 4220   0.951   6.292   8.882  0.4445 -0.7044 -0.1073
   57SAPC  H16R 4221   1.007   6.215   8.940  0.1091 -1.9189 -1.3440
   57SAPC  H16S 4222   1.030   6.324   8.811 -1.5985  0.0027 -2.1899
   57SAPC  C217 4223   0.836   6.222   8.795  0.0142  0.6944  0.8796
   57SAPC  H17R 4224   0.752   6.189   8.859  1.3901 -1.6438  1.6342
   57SAPC  H17S 4225   0.877   6.128   8.751 -1.0807  0.6097  0.0025
   57SAPC  C218 4226   0.791   6.314   8.679 -0.5641 -0.0941 -0.6687
   57SAPC  H18R 4227   0.878   6.348   8.618 -2.7185  3.0236 -2.2948
   57SAPC  H18S 4228   0.729   6.399   8.712  1.7276  0.7822  1.7809
   57SAPC  C219 4229   0.715   6.240   8.571  0.6024  0.9561 -0.3116
   57SAPC  H19R 4230   0.779   6.163   8.524  3.1089  1.7700  1.5250
   57SAPC  H19S 4231   0.680   6.317   8.499  0.6007  0.1087 -1.2328
   57SAPC  C220 4232   0.591   6.175   8.617 -0.5874  0.4348  0.2218
   57SAPC  H20R 4233   0.512   6.250   8.637  0.8615  1.9917  0.3018
   57SAPC  H20S 4234   0.596   6.111   8.708 -0.1879  0.5905  0.3112
   57SAPC  H20T 4235   0.557   6.107   8.536 -0.4940 -2.4553  2.4240
   57SAPC   C33 4236   0.921   6.643   9.896  0.2351  0.2222 -0.2722
   57SAPC   H3X 4237   1.031   6.631   9.892  0.1939  0.1751 -2.7398
   57SAPC   H3Y 4238   0.903   6.746   9.933  0.2656  0.3510 -0.6143
   57SAPC   C34 4239   0.859   6.634   9.758 -0.7712 -0.1857 -0.1928
   57SAPC   H4X 4240   0.748   6.634   9.765 -0.7369 -1.9553  0.8102
   57SAPC   H4Y 4241   0.898   6.536   9.725 -0.8561  0.8096 -3.7259
   57SAPC   C35 4242   0.909   6.745   9.661  0.0986  0.4982  0.1168
   57SAPC   H5X 4243   1.019   6.757   9.673  0.2955 -0.5789 -0.5060
   57SAPC   H5Y 4244   0.856   6.837   9.693 -2.6163  0.1233 -2.8624
   57SAPC   C36 4245   0.864   6.708   9.520  0.2397 -0.0466  0.3291
   57SAPC   H6X 4246   0.756   6.686   9.513  0.2301 -0.4494  1.4506
   57SAPC   H6Y 4247   0.912   6.617   9.479 -0.9180  0.5318 -2.5754
   57SAPC   C37 4248   0.892   6.811   9.412 -0.0338 -0.1820  0.3565
   57SAPC   H7X 4249   1.001   6.832   9.405  0.0780 -1.1086 -1.1160
   57SAPC   H7Y 4250   0.841   6.907   9.432 -0.4092 -0.4234  0.5713
   57SAPC   C38 4251   0.825   6.775   9.280 -0.1448  0.3038 -0.4047
   57SAPC   H8X 4252   0.714   6.770   9.276 -0.0924  0.0351 -3.0551
   57SAPC   H8Y 4253   0.873   6.678   9.255 -2.6995 -0.8684 -1.0353
   57SAPC   C39 4254   0.861   6.892   9.186 -0.3150 -0.3563 -0.2610
   57SAPC   H9X 4255   0.971   6.907   9.189 -0.3103 -0.4012 -0.2161
   57SAPC   H9Y 4256   0.809   6.980   9.231 -0.3759 -0.3509 -0.3397
   57SAPC  C310 4257   0.807   6.870   9.054 -0.2493 -0.1339 -0.3070
   57SAPC  H10X 4258   0.696   6.867   9.059 -0.3576 -0.5354 -2.1538
   57SAPC  H10Y 4259   0.834   6.769   9.018 -1.7392 -1.2880  1.5911
   57SAPC  C311 4260   0.854   6.980   8.956  0.0672 -0.1486 -0.2319
   57SAPC  H11X 4261   0.965   6.984   8.951  0.0702 -0.3386 -0.2924
   57SAPC  H11Y 4262   0.814   7.074   9.000  0.9602 -0.5141  1.4672
   57SAPC  C312 4263   0.808   6.947   8.815  0.2329 -0.7166  0.7489
   57SAPC  H12X 4264   0.698   6.932   8.820  0.1349 -0.1908  0.3324
   57SAPC  H12Y 4265   0.857   6.858   8.770  0.9498 -0.0831  0.2497
   57SAPC  C313 4266   0.844   7.059   8.709  0.2321  0.8343  0.4491
   57SAPC  H13X 4267   0.955   7.069   8.714  0.2502  0.7462  0.2301
   57SAPC  H13Y 4268   0.794   7.151   8.746  0.3324  2.2148 -2.5494
   57SAPC  C314 4269   0.792   7.037   8.564 -0.5076  0.1943  0.2753
   57SAPC  H14X 4270   0.682   7.023   8.570 -0.4730 -0.6723 -0.7573
   57SAPC  H14Y 4271   0.834   6.946   8.516  0.6490  1.8372 -2.0528
   57SAPC  C315 4272   0.825   7.154   8.460 -0.2101  0.7085 -0.3273
   57SAPC  H15X 4273   0.755   7.235   8.492 -0.4672  0.1487  0.5650
   57SAPC  H15Y 4274   0.786   7.106   8.368 -1.8647 -1.4677  1.4090
   57SAPC  C316 4275   0.972   7.195   8.431  0.1112 -0.7162  0.2123
   57SAPC  H16X 4276   1.040   7.107   8.424 -0.5100 -1.3111  1.3976
   57SAPC  H16Y 4277   1.023   7.240   8.519 -0.5923 -0.0152  0.2744
   57SAPC  C317 4278   0.986   7.289   8.309 -0.0401  0.6560 -0.0008
   57SAPC  H17X 4279   0.951   7.392   8.332  1.0681  1.2469 -0.8472
   57SAPC  H17Y 4280   0.929   7.235   8.230 -0.0324  0.9153 -0.1850
   57SAPC  C318 4281   1.133   7.301   8.266 -0.5755 -0.3755 -0.0147
   57SAPC  H18X 4282   1.141   7.396   8.209  0.6915 -1.8241 -2.4478
   57SAPC  H18Y 4283   1.180   7.217   8.209  0.0306 -0.3290  0.4090
   57SAPC  H18Z 4284   1.196   7.312   8.357  1.8601 -1.8779 -1.3913
   58SAPC     N 4285   4.952   3.475  10.742 -1.2209  0.3878  0.1954
   58SAPC   C12 4286   4.881   3.416  10.616  0.1012 -0.3865 -0.4780
   58SAPC  H12A 4287   4.813   3.337  10.645 -1.4131 -0.1018 -2.9775
   58SAPC  H12B 4288   4.958   3.383  10.547  1.8073  3.8198 -0.8574
   58SAPC   C13 4289   5.023   3.600  10.695 -0.2041  0.3208 -0.5659
   58SAPC  H13A 4290   5.080   3.654  10.769  0.5979 -0.8579 -0.2931
   58SAPC  H13B 4291   5.081   3.575  10.607  0.6510 -1.4454  0.4422
   58SAPC  H13C 4292   4.942   3.662  10.659  0.4362  0.5500 -1.6676
   58SAPC   C14 4293   4.855   3.508  10.851 -0.4638 -0.1354 -0.0672
   58SAPC  H14A 4294   4.774   3.559  10.801  1.1528  0.9560 -1.7436
   58SAPC  H14B 4295   4.819   3.421  10.903  0.8443  0.3347  1.7310
   58SAPC  H14C 4296   4.906   3.566  10.927  0.0311 -0.3576 -0.2238
   58SAPC   C15 4297   5.050   3.377  10.790 -0.2070  0.5887 -0.7642
   58SAPC  H15A 4298   5.008   3.278  10.800  1.1539  0.1638  1.5379
   58SAPC  H15B 4299   5.140   3.362  10.732  0.9648 -0.9702  1.2853
   58SAPC  H15C 4300   5.079   3.393  10.893  0.6582 -0.8359 -0.7510
   58SAPC   C11 4301   4.776   3.507  10.534  0.5224  0.1721  0.0584
   58SAPC  H11A 4302   4.756   3.463  10.434  1.0787  2.9479 -1.3808
   58SAPC  H11B 4303   4.814   3.609  10.513 -1.5018  0.7820 -0.8437
   58SAPC     P 4304   4.563   3.400  10.646 -0.0326 -0.1962 -0.6991
   58SAPC   O13 4305   4.637   3.295  10.722  0.0054  0.0089 -0.3722
   58SAPC   O14 4306   4.446   3.461  10.714 -0.1156  0.6317  0.2478
   58SAPC   O12 4307   4.651   3.522  10.606 -0.2467 -0.2967  0.1826
   58SAPC   O11 4308   4.514   3.343  10.509  0.6373 -0.5659  0.2141
   58SAPC    C1 4309   4.458   3.431  10.410 -0.3325  0.8801 -0.7536
   58SAPC    HA 4310   4.348   3.417  10.425  0.2102 -2.6651  1.2832
   58SAPC    HB 4311   4.490   3.537  10.418 -0.5482  0.9890 -1.2964
   58SAPC    C2 4312   4.496   3.371  10.274  0.5552  0.0453 -0.3365
   58SAPC    HS 4313   4.606   3.353  10.268  0.6904  0.8375 -0.3968
   58SAPC   O21 4314   4.448   3.466  10.181  0.1441 -0.1336 -0.0236
   58SAPC   C21 4315   4.544   3.562  10.149  0.6879 -0.1162  0.1558
   58SAPC   O22 4316   4.661   3.552  10.173 -0.1062  0.2676  0.8156
   58SAPC   C22 4317   4.478   3.668  10.067 -0.2003 -0.1299  0.3625
   58SAPC   H2R 4318   4.391   3.626  10.013  0.9542 -1.6913 -0.3624
   58SAPC   H2S 4319   4.443   3.745  10.139  0.6326  0.6681 -0.0722
   58SAPC    C3 4320   4.425   3.234  10.247 -0.1678  0.0980  0.1668
   58SAPC    HX 4321   4.315   3.243  10.263  0.1246 -1.2403  4.1038
   58SAPC    HY 4322   4.460   3.164  10.327 -1.6304 -0.0113  0.7400
   58SAPC   O31 4323   4.456   3.184  10.114 -0.9544 -0.5700 -0.1381
   58SAPC   C31 4324   4.580   3.132  10.094 -0.0245  0.2353 -0.4037
   58SAPC   O32 4325   4.654   3.099  10.187 -0.3133  0.2451 -0.5345
   58SAPC   C32 4326   4.608   3.100   9.950 -0.0326  0.2865 -0.5515
   58SAPC   H2X 4327   4.537   3.020   9.920  0.4987 -0.4331  0.0798
   58SAPC   H2Y 4328   4.706   3.052   9.928 -0.0838 -0.3328  0.5094
   58SAPC   C23 4329   4.566   3.740   9.963  0.0661  0.1105  0.6934
   58SAPC   H3R 4330   4.671   3.731   9.998  0.3347 -2.0971 -0.5437
   58SAPC   H3S 4331   4.549   3.847   9.938  1.9712  0.5881  1.2742
   58SAPC   C24 4332   4.542   3.660   9.837 -0.5383  0.4269  0.1127
   58SAPC   H4R 4333   4.453   3.705   9.786  0.0651  2.4713  0.7564
   58SAPC   H4S 4334   4.525   3.556   9.870 -2.2015  0.5517 -0.2399
   58SAPC   C25 4335   4.672   3.661   9.760  0.0859 -0.6137 -0.5803
   58SAPC   H5R 4336   4.760   3.650   9.825  1.9714 -0.4306 -2.9865
   58SAPC   C26 4337   4.684   3.686   9.635 -0.3636  0.1391 -0.0019
   58SAPC   H6R 4338   4.782   3.686   9.585 -0.4919  0.7152 -0.2631
   58SAPC   C27 4339   4.571   3.713   9.533  0.6941 -0.6517 -0.8369
   58SAPC   H7R 4340   4.471   3.704   9.581  0.2543  0.3019 -1.5534
   58SAPC   H7S 4341   4.560   3.622   9.470 -0.1858 -1.1275 -0.0210
   58SAPC   C28 4342   4.583   3.829   9.429  0.6222 -0.7288  0.7482
   58SAPC   H8R 4343   4.612   3.923   9.478  0.9644 -0.8094  0.7039
   58SAPC   C29 4344   4.586   3.839   9.294 -0.2047 -0.1609 -0.1681
   58SAPC   H9R 4345   4.599   3.938   9.248 -0.0903 -0.4250 -0.7111
   58SAPC  C210 4346   4.569   3.719   9.200  0.1735 -0.0618 -0.8546
   58SAPC  H10R 4347   4.496   3.753   9.123 -0.2900  3.3843  0.9099
   58SAPC  H10S 4348   4.522   3.628   9.243  1.3538 -0.7330 -0.9476
   58SAPC  C211 4349   4.698   3.666   9.144  0.0034 -0.5805 -0.0047
   58SAPC  H11R 4350   4.770   3.639   9.222 -0.9527  1.0447  1.5068
   58SAPC  C212 4351   4.728   3.657   9.014 -0.2747 -0.7905 -0.0487
   58SAPC  H12R 4352   4.825   3.617   8.984 -0.4744 -2.8418  1.7880
   58SAPC  C213 4353   4.637   3.698   8.905 -0.4223 -0.1908 -0.4344
   58SAPC  H13R 4354   4.578   3.791   8.921  1.3618  0.9132  0.0090
   58SAPC  H13S 4355   4.569   3.613   8.882 -1.1944  0.2847  0.0328
   58SAPC  C214 4356   4.715   3.737   8.774 -0.0671  0.3975  0.6802
   58SAPC  H14R 4357   4.753   3.841   8.777 -1.2441  0.8695  0.1395
   58SAPC  C215 4358   4.746   3.661   8.663  0.0783 -0.3894 -0.8098
   58SAPC  H15R 4359   4.793   3.713   8.579 -0.0548 -0.3086 -0.8357
   58SAPC  C216 4360   4.720   3.515   8.646 -0.1424 -0.0726 -0.2591
   58SAPC  H16R 4361   4.639   3.528   8.571 -2.1997 -0.1739  1.8317
   58SAPC  H16S 4362   4.681   3.470   8.740  0.2269 -0.8341 -0.4640
   58SAPC  C217 4363   4.851   3.447   8.593 -0.1510  0.5157  0.2553
   58SAPC  H17R 4364   4.939   3.434   8.659 -0.6661 -3.0453  0.4583
   58SAPC  H17S 4365   4.874   3.509   8.504 -0.5476  1.7635  0.9992
   58SAPC  C218 4366   4.820   3.301   8.552 -0.5331 -0.2865  0.1700
   58SAPC  H18R 4367   4.795   3.237   8.639  2.6500 -2.1660 -0.1540
   58SAPC  H18S 4368   4.906   3.254   8.499 -1.1531  2.9017 -4.3093
   58SAPC  C219 4369   4.713   3.287   8.444 -0.4179 -0.5851 -0.6051
   58SAPC  H19R 4370   4.626   3.348   8.475  0.6831  0.8270 -0.2068
   58SAPC  H19S 4371   4.687   3.179   8.443 -3.3417 -0.1161  3.1572
   58SAPC  C220 4372   4.758   3.338   8.308  0.5892 -0.3830 -0.9661
   58SAPC  H20R 4373   4.807   3.437   8.318 -0.6323  0.0522  1.1448
   58SAPC  H20S 4374   4.667   3.343   8.244 -1.6813  0.8561  2.1125
   58SAPC  H20T 4375   4.832   3.265   8.268  0.0769 -1.1441 -0.5589
   58SAPC   C33 4376   4.593   3.212   9.846 -0.2374 -0.5676  0.5773
   58SAPC   H3X 4377   4.688   3.268   9.833 -1.7520  1.5347 -2.7772
   58SAPC   H3Y 4378   4.521   3.291   9.874  1.1226  0.5551  1.0231
   58SAPC   C34 4379   4.578   3.158   9.699  0.4639  0.0163 -0.3269
   58SAPC   H4X 4380   4.485   3.098   9.689  1.2477 -1.5041  0.9972
   58SAPC   H4Y 4381   4.667   3.092   9.688  0.3477 -0.2797  0.4861
   58SAPC   C35 4382   4.597   3.281   9.609 -0.0703  0.7278  0.2900
   58SAPC   H5X 4383   4.701   3.316   9.621  0.1044 -0.1517  1.5160
   58SAPC   H5Y 4384   4.532   3.366   9.639 -1.6391 -0.4885  0.4913
   58SAPC   C36 4385   4.577   3.247   9.460 -0.3369  0.2832 -0.5826
   58SAPC   H6X 4386   4.474   3.217   9.431 -0.0424 -0.2763 -1.0700
   58SAPC   H6Y 4387   4.651   3.165   9.449 -0.8266 -0.2443 -0.0402
   58SAPC   C37 4388   4.609   3.360   9.368  0.0738 -0.1700 -0.5361
   58SAPC   H7X 4389   4.706   3.395   9.409 -1.1611 -0.9046  3.4231
   58SAPC   H7Y 4390   4.534   3.440   9.385 -0.9734 -1.2367 -0.0268
   58SAPC   C38 4391   4.626   3.315   9.224  0.0503  0.0861  0.5336
   58SAPC   H8X 4392   4.689   3.224   9.229  1.1234  0.6779 -1.0932
   58SAPC   H8Y 4393   4.686   3.387   9.163  0.1081 -0.9906 -0.7155
   58SAPC   C39 4394   4.499   3.285   9.139 -0.6752 -0.3367  0.4993
   58SAPC   H9X 4395   4.415   3.358   9.145  1.1486  1.9658 -0.4877
   58SAPC   H9Y 4396   4.451   3.188   9.164 -2.6836  0.2731 -0.7338
   58SAPC  C310 4397   4.524   3.292   8.984 -0.1894 -0.0196 -0.3311
   58SAPC  H10X 4398   4.612   3.230   8.954  0.2891  1.4844 -2.2235
   58SAPC  H10Y 4399   4.545   3.399   8.966 -1.4436  0.1547 -0.8104
   58SAPC  C311 4400   4.399   3.256   8.907 -0.2377  0.0771 -0.5993
   58SAPC  H11X 4401   4.319   3.334   8.907 -0.5291 -0.2182  0.1273
   58SAPC  H11Y 4402   4.338   3.174   8.950  0.5025  0.3978  1.1025
   58SAPC  C312 4403   4.437   3.245   8.759 -0.0548  0.1556  0.5080
   58SAPC  H12X 4404   4.514   3.170   8.733  1.3522  1.9816 -0.8544
   58SAPC  H12Y 4405   4.474   3.345   8.727 -0.1927 -0.5663 -2.1253
   58SAPC  C313 4406   4.318   3.217   8.666 -0.6797  0.8619  0.3262
   58SAPC  H13X 4407   4.238   3.291   8.687 -0.0916  3.2228 -4.3569
   58SAPC  H13Y 4408   4.279   3.116   8.688  2.7240 -0.6244  0.2141
   58SAPC  C314 4409   4.351   3.225   8.518 -0.6514 -1.3037  0.1440
   58SAPC  H14X 4410   4.459   3.210   8.499 -0.5411 -1.1249  0.6148
   58SAPC  H14Y 4411   4.337   3.329   8.482 -1.1577 -1.6684 -0.7427
   58SAPC  C315 4412   4.272   3.128   8.436  0.0663 -0.2895 -0.4927
   58SAPC  H15X 4413   4.300   3.025   8.465  1.6095  0.6577  1.6613
   58SAPC  H15Y 4414   4.302   3.144   8.330  0.6069 -1.0902 -0.4656
   58SAPC  C316 4415   4.119   3.143   8.461 -0.1773 -0.5922  0.2966
   58SAPC  H16X 4416   4.091   3.117   8.565 -0.6072 -1.1824  0.0431
   58SAPC  H16Y 4417   4.067   3.070   8.395  2.7234 -1.5653 -1.1175
   58SAPC  C317 4418   4.062   3.281   8.447  0.5076 -0.0127 -0.1766
   58SAPC  H17X 4419   4.080   3.322   8.345  0.8488  0.0458 -0.0959
   58SAPC  H17Y 4420   4.114   3.357   8.509  2.4882 -0.0545 -1.6673
   58SAPC  C318 4421   3.910   3.303   8.461 -0.3777  0.2300  0.7481
   58SAPC  H18X 4422   3.845   3.251   8.387 -0.9604 -0.6160  1.8242
   58SAPC  H18Y 4423   3.880   3.408   8.482 -3.2461 -0.9866  3.6503
   58SAPC  H18Z 4424   3.878   3.257   8.556  0.7238  0.0558  1.0508
   59SAPC     N 4425   6.744   5.238  11.105  0.1646 -0.3395  0.2172
   59SAPC   C12 4426   6.597   5.233  11.113 -0.8814  0.2170  0.0342
   59SAPC  H12A 4427   6.564   5.248  11.215 -0.2186  0.4463  0.2196
   59SAPC  H12B 4428   6.571   5.130  11.089  2.7886 -1.0483  0.8346
   59SAPC   C13 4429   6.783   5.199  10.963  0.4754  0.1825 -0.0112
   59SAPC  H13A 4430   6.726   5.249  10.886  3.1928  0.3962 -2.0386
   59SAPC  H13B 4431   6.886   5.228  10.944  0.5252  1.8909  2.3271
   59SAPC  H13C 4432   6.772   5.092  10.955  1.8445  0.1216 -1.6471
   59SAPC   C14 4433   6.802   5.368  11.142  0.0563  0.2266 -0.0130
   59SAPC  H14A 4434   6.908   5.356  11.154 -0.2281 -0.9506  1.6576
   59SAPC  H14B 4435   6.775   5.446  11.072 -1.9951 -0.4518 -0.0402
   59SAPC  H14C 4436   6.767   5.410  11.235  1.4506 -0.4921  0.8541
   59SAPC   C15 4437   6.814   5.139  11.199  0.5345 -0.3284  0.2622
   59SAPC  H15A 4438   6.776   5.038  11.198  0.4979 -0.3156  0.3210
   59SAPC  H15B 4439   6.918   5.132  11.170  0.4446 -1.7643  0.2203
   59SAPC  H15C 4440   6.795   5.168  11.301 -1.4124  0.2534 -0.2243
   59SAPC   C11 4441   6.522   5.332  11.029 -0.6330  0.3717  0.3787
   59SAPC  H11A 4442   6.541   5.319  10.921  1.4266  0.2681  0.7085
   59SAPC  H11B 4443   6.560   5.436  11.040  0.8303 -0.2314  1.4338
   59SAPC     P 4444   6.298   5.193  11.035  0.0102  0.1208 -0.3774
   59SAPC   O13 4445   6.392   5.098  10.969  0.6226  0.8742 -0.1376
   59SAPC   O14 4446   6.218   5.147  11.149  0.0140  0.3354 -0.2015
   59SAPC   O12 4447   6.386   5.324  11.076  0.0449  0.0028  0.1468
   59SAPC   O11 4448   6.197   5.249  10.928 -0.2709  0.4783  0.2571
   59SAPC    C1 4449   6.155   5.385  10.956  0.4671 -0.5617  0.3923
   59SAPC    HA 4450   6.111   5.410  11.055  1.9292  0.5093  0.7950
   59SAPC    HB 4451   6.245   5.449  10.950 -0.5834  0.8816 -0.3995
   59SAPC    C2 4452   6.062   5.447  10.851 -0.1573  0.9040 -0.2604
   59SAPC    HS 4453   5.956   5.416  10.859 -1.0021  3.2274 -1.4572
   59SAPC   O21 4454   6.115   5.406  10.722 -0.0375 -0.0515  0.1421
   59SAPC   C21 4455   6.075   5.294  10.678 -0.1113  0.6061  0.1233
   59SAPC   O22 4456   5.962   5.239  10.703 -0.3575  0.1073 -0.0695
   59SAPC   C22 4457   6.177   5.224  10.588  1.0666 -0.2166  1.0834
   59SAPC   H2R 4458   6.276   5.204  10.633  1.5958 -3.2028 -1.0948
   59SAPC   H2S 4459   6.135   5.127  10.551  1.0492 -0.4093  1.5944
   59SAPC    C3 4460   6.042   5.598  10.870  0.4260  0.3006  0.6712
   59SAPC    HX 4461   6.137   5.639  10.829 -0.4601 -0.1339 -2.0008
   59SAPC    HY 4462   6.040   5.627  10.978  0.1115 -0.4722  0.8816
   59SAPC   O31 4463   5.936   5.650  10.795  0.0479 -0.1440 -0.5698
   59SAPC   C31 4464   5.812   5.612  10.817 -0.2009  0.8050  0.7473
   59SAPC   O32 4465   5.775   5.525  10.891  0.7396  0.1846  0.4999
   59SAPC   C32 4466   5.727   5.695  10.730 -0.3401  0.3426 -0.2953
   59SAPC   H2X 4467   5.740   5.804  10.747  0.3119  0.5350 -1.8414
   59SAPC   H2Y 4468   5.623   5.672  10.760 -0.2861  0.2674 -0.1675
   59SAPC   C23 4469   6.209   5.308  10.462 -0.3717 -1.1669  0.4938
   59SAPC   H3R 4470   6.259   5.397  10.506  0.3034 -1.6543  0.7288
   59SAPC   H3S 4471   6.121   5.348  10.407  1.0733 -0.5733 -1.4686
   59SAPC   C24 4472   6.320   5.256  10.376  0.1747 -0.4718  0.2340
   59SAPC   H4R 4473   6.294   5.160  10.327 -0.5700 -0.7174  1.0766
   59SAPC   H4S 4474   6.400   5.242  10.452 -0.3301  1.6133  1.2025
   59SAPC   C25 4475   6.365   5.362  10.283 -0.1905  0.0551 -0.0822
   59SAPC   H5R 4476   6.421   5.441  10.336  0.8260 -0.5539 -0.2236
   59SAPC   C26 4477   6.319   5.374  10.161 -0.4605  0.0968 -0.1469
   59SAPC   H6R 4478   6.342   5.462  10.100 -1.3445 -1.1001 -2.3370
   59SAPC   C27 4479   6.218   5.277  10.095 -0.5144  0.3712  0.0922
   59SAPC   H7R 4480   6.144   5.334  10.034 -0.9823  0.8416  1.0808
   59SAPC   H7S 4481   6.152   5.222  10.165  0.4663 -0.4344  0.4052
   59SAPC   C28 4482   6.293   5.173  10.011 -0.2060  0.0677 -0.9401
   59SAPC   H8R 4483   6.329   5.100  10.085  1.0275  0.2275 -1.3647
   59SAPC   C29 4484   6.317   5.151   9.884 -0.1941  0.3119  0.4036
   59SAPC   H9R 4485   6.371   5.057   9.863 -3.2607 -1.7953  1.2984
   59SAPC  C210 4486   6.263   5.238   9.774 -0.0295 -0.0849 -0.4975
   59SAPC  H10R 4487   6.340   5.249   9.694  0.8683  0.8082  0.4508
   59SAPC  H10S 4488   6.262   5.341   9.817 -0.4147 -0.3167  0.0461
   59SAPC  C211 4489   6.126   5.194   9.721  0.1343  0.3652 -0.7094
   59SAPC  H11R 4490   6.051   5.174   9.799  1.8856 -0.6397  0.7901
   59SAPC  C212 4491   6.082   5.187   9.595  0.3829  0.4976  0.4480
   59SAPC  H12R 4492   5.982   5.146   9.577  0.6296  1.1193 -2.9944
   59SAPC  C213 4493   6.151   5.217   9.466  0.2541  0.7907  0.3901
   59SAPC  H13R 4494   6.217   5.130   9.446  1.1604  1.3208  1.0094
   59SAPC  H13S 4495   6.214   5.308   9.469  0.6187  0.5171  1.1282
   59SAPC  C214 4496   6.065   5.216   9.343  0.7063  0.7271 -0.1563
   59SAPC  H14R 4497   5.966   5.261   9.357  0.0149 -0.1771 -1.8038
   59SAPC  C215 4498   6.088   5.147   9.224 -0.5061 -0.0360 -0.7995
   59SAPC  H15R 4499   6.013   5.150   9.143 -0.3076 -1.0910 -1.0379
   59SAPC  C216 4500   6.209   5.064   9.186  0.0135  0.3781 -0.5744
   59SAPC  H16R 4501   6.196   4.964   9.232 -2.9707  0.9083 -0.0398
   59SAPC  H16S 4502   6.306   5.112   9.211 -0.4706  1.0185  0.1273
   59SAPC  C217 4503   6.206   5.028   9.037  0.2237  0.4076  0.1099
   59SAPC  H17R 4504   6.179   5.122   8.984  1.5360 -0.3637 -2.0479
   59SAPC  H17S 4505   6.133   4.946   9.023 -1.3627  2.0608 -1.7950
   59SAPC  C218 4506   6.344   4.980   8.995 -0.0261 -0.3849  0.6978
   59SAPC  H18R 4507   6.365   4.905   9.074  1.8304 -0.7610 -0.1109
   59SAPC  H18S 4508   6.422   5.058   9.002  1.1581 -1.5767  1.3157
   59SAPC  C219 4509   6.351   4.918   8.860 -0.0817 -0.2248  0.0573
   59SAPC  H19R 4510   6.329   5.000   8.788  1.6155  0.8784  0.7286
   59SAPC  H19S 4511   6.265   4.848   8.847  1.1096 -1.7336  0.0418
   59SAPC  C220 4512   6.481   4.845   8.823  0.3477  0.0738 -0.1693
   59SAPC  H20R 4513   6.574   4.905   8.823  0.3923  0.0110 -0.9137
   59SAPC  H20S 4514   6.471   4.818   8.716  0.2067  0.2768 -0.2086
   59SAPC  H20T 4515   6.508   4.758   8.888 -3.0872  0.2664  1.8167
   59SAPC   C33 4516   5.749   5.671  10.582 -0.0353  0.5100 -0.1576
   59SAPC   H3X 4517   5.855   5.689  10.553 -0.0611  1.5888  0.3633
   59SAPC   H3Y 4518   5.682   5.738  10.524  0.1688  1.1608  0.3460
   59SAPC   C34 4519   5.711   5.523  10.541  0.2566  0.2194  0.2615
   59SAPC   H4X 4520   5.610   5.504  10.584  1.3415 -0.1987  2.8115
   59SAPC   H4Y 4521   5.782   5.456  10.594  2.5660  3.2504  1.2839
   59SAPC   C35 4522   5.718   5.493  10.388  0.4882  0.4528  0.2531
   59SAPC   H5X 4523   5.683   5.577  10.325 -0.1713 -0.3230 -0.4525
   59SAPC   H5Y 4524   5.647   5.410  10.365  0.8626 -0.0936  1.0368
   59SAPC   C36 4525   5.854   5.457  10.336  0.4588  0.3487 -0.0063
   59SAPC   H6X 4526   5.901   5.380  10.400  1.7510  1.0727 -0.0490
   59SAPC   H6Y 4527   5.912   5.551  10.330 -0.5366  1.0188  0.6605
   59SAPC   C37 4528   5.850   5.384  10.200 -0.0801 -0.0784 -0.2336
   59SAPC   H7X 4529   5.786   5.293  10.206  0.5166 -0.4700  0.2714
   59SAPC   H7Y 4530   5.953   5.345  10.187 -0.5430 -0.5541 -3.4988
   59SAPC   C38 4531   5.807   5.473  10.084 -0.6964 -0.2171  0.6369
   59SAPC   H8X 4532   5.850   5.574  10.101  1.2294 -0.5875 -1.4652
   59SAPC   H8Y 4533   5.697   5.482  10.090 -0.5153  1.9660  1.5180
   59SAPC   C39 4534   5.848   5.419   9.949 -0.2007  0.6838  0.2893
   59SAPC   H9X 4535   5.840   5.309   9.963 -1.5306  0.5646 -1.1202
   59SAPC   H9Y 4536   5.956   5.440   9.939 -0.0725  0.1856  0.6294
   59SAPC  C310 4537   5.775   5.492   9.834 -0.2013  0.4322 -0.3912
   59SAPC  H10X 4538   5.799   5.600   9.841 -1.5558  0.7451 -0.2649
   59SAPC  H10Y 4539   5.666   5.476   9.848  0.2153 -0.9066  1.7329
   59SAPC  C311 4540   5.809   5.445   9.687  0.2201  0.7039 -0.0293
   59SAPC  H11X 4541   5.764   5.343   9.682 -0.6185  0.8449  2.8959
   59SAPC  H11Y 4542   5.918   5.442   9.667  0.4635 -2.8437  1.1020
   59SAPC  C312 4543   5.738   5.527   9.584 -0.1601  0.4921  0.3152
   59SAPC  H12X 4544   5.772   5.632   9.600 -0.0193  0.3334  1.0836
   59SAPC  H12Y 4545   5.627   5.528   9.589 -0.3605 -3.3253 -0.3585
   59SAPC  C313 4546   5.758   5.474   9.444 -0.4055  0.2156  0.1724
   59SAPC  H13X 4547   5.738   5.365   9.444  1.1048 -0.4084 -5.4425
   59SAPC  H13Y 4548   5.863   5.490   9.412 -0.4414  0.4809  0.1865
   59SAPC  C314 4549   5.667   5.544   9.341  0.9010  0.5308  0.9050
   59SAPC  H14X 4550   5.651   5.652   9.363 -1.6315  0.2630  0.6052
   59SAPC  H14Y 4551   5.572   5.488   9.330  0.6308  1.3746 -2.1876
   59SAPC  C315 4552   5.726   5.532   9.199  0.3203  0.7361  0.4808
   59SAPC  H15X 4553   5.808   5.601   9.171 -1.0363  1.7499 -1.1665
   59SAPC  H15Y 4554   5.641   5.554   9.131  0.1406 -0.4072  0.3211
   59SAPC  C316 4555   5.766   5.384   9.161 -0.1505 -0.3022 -0.1736
   59SAPC  H16X 4556   5.700   5.312   9.216  0.6712  0.0658  1.3418
   59SAPC  H16Y 4557   5.874   5.370   9.183 -0.4252 -2.8585 -0.1276
   59SAPC  C317 4558   5.736   5.350   9.019  0.6000  0.1713  0.1554
   59SAPC  H17X 4559   5.634   5.389   8.996  1.4073  1.8657 -0.7543
   59SAPC  H17Y 4560   5.734   5.239   9.013 -1.7057  0.1227  1.0360
   59SAPC  C318 4561   5.836   5.388   8.914 -0.0340 -0.2656 -0.5969
   59SAPC  H18X 4562   5.837   5.498   8.898 -3.7362 -0.1351 -0.7733
   59SAPC  H18Y 4563   5.812   5.347   8.813  1.9003 -0.8099 -0.8691
   59SAPC  H18Z 4564   5.938   5.352   8.936 -0.8725 -0.6144  3.6128
   60SAPC     N 4565   5.889   3.309  10.706  0.3121  0.2711  0.1198
   60SAPC   C12 4566   5.993   3.418  10.693 -0.1748  0.0209  0.6036
   60SAPC  H12A 4567   5.999   3.446  10.589 -4.5531  1.1219  0.4873
   60SAPC  H12B 4568   6.092   3.383  10.720 -0.7133 -1.4939  0.7326
   60SAPC   C13 4569   5.852   3.305  10.854  0.0225 -0.4245 -0.2299
   60SAPC  H13A 4570   5.787   3.388  10.878  1.3418  0.1710  1.5028
   60SAPC  H13B 4571   5.804   3.214  10.885 -1.4477 -0.0384 -1.2402
   60SAPC  H13C 4572   5.944   3.332  10.904 -1.2865  2.9705  0.6763
   60SAPC   C14 4573   5.758   3.343  10.639 -0.5316  0.0875 -0.0723
   60SAPC  H14A 4574   5.780   3.351  10.534 -0.0307  3.0254  0.1765
   60SAPC  H14B 4575   5.681   3.268  10.655 -0.8747  0.9628  3.0950
   60SAPC  H14C 4576   5.723   3.438  10.676 -3.2767 -1.7046  2.4377
   60SAPC   C15 4577   5.934   3.174  10.656  0.4026 -0.9094 -0.2789
   60SAPC  H15A 4578   5.865   3.096  10.686  0.1557 -0.2556  0.9470
   60SAPC  H15B 4579   5.952   3.177  10.550 -0.5794  1.9914 -0.4397
   60SAPC  H15C 4580   6.028   3.143  10.700  0.0616 -0.0663  1.0950
   60SAPC   C11 4581   5.965   3.545  10.782  0.3033 -0.8076  0.3656
   60SAPC  H11A 4582   5.857   3.564  10.797  0.5596  0.0303  1.2252
   60SAPC  H11B 4583   6.005   3.641  10.740 -0.0560 -0.6517  0.3768
   60SAPC     P 4584   6.184   3.547  10.932  0.0641  0.1724 -0.0389
   60SAPC   O13 4585   6.211   3.690  10.957  0.3946 -0.2649 -0.2744
   60SAPC   O14 4586   6.231   3.450  11.033  0.1145 -0.3090 -0.1944
   60SAPC   O12 4587   6.026   3.531  10.907  0.0696 -0.0741 -0.7968
   60SAPC   O11 4588   6.230   3.504  10.784  0.0661  0.4424 -0.3436
   60SAPC    C1 4589   6.347   3.554  10.716  0.4514 -0.3307  0.8857
   60SAPC    HA 4590   6.349   3.665  10.722 -1.7612 -0.0002 -2.1821
   60SAPC    HB 4591   6.448   3.515  10.742  1.8186  0.8031 -2.1943
   60SAPC    C2 4592   6.338   3.512  10.565  0.1549  0.1220 -0.5789
   60SAPC    HS 4593   6.244   3.563  10.536 -1.5864 -0.2912  3.6253
   60SAPC   O21 4594   6.343   3.368  10.558 -0.1713 -0.6239  0.4717
   60SAPC   C21 4595   6.254   3.318  10.476  0.5187  0.3783  0.0790
   60SAPC   O22 4596   6.172   3.386  10.413 -0.0413  0.6107 -0.0383
   60SAPC   C22 4597   6.259   3.158  10.470  0.1225 -0.3627 -0.0136
   60SAPC   H2R 4598   6.367   3.131  10.466 -0.2267 -1.7986 -0.0155
   60SAPC   H2S 4599   6.213   3.101  10.553 -1.7170 -0.2892 -0.9343
   60SAPC    C3 4600   6.462   3.561  10.489 -0.4977 -0.0996  0.4143
   60SAPC    HX 4601   6.543   3.491  10.521  1.2563 -0.0205 -3.2861
   60SAPC    HY 4602   6.490   3.666  10.513  1.9322 -0.5021 -0.3636
   60SAPC   O31 4603   6.456   3.545  10.344  0.4155  0.2877 -0.3159
   60SAPC   C31 4604   6.365   3.612  10.275 -0.2676 -0.2869  0.2237
   60SAPC   O32 4605   6.296   3.701  10.316 -0.6229 -0.3995  0.5640
   60SAPC   C32 4606   6.351   3.550  10.143 -0.0198 -0.5334  0.2726
   60SAPC   H2X 4607   6.313   3.448  10.167  2.4252 -1.6118 -0.0952
   60SAPC   H2Y 4608   6.448   3.535  10.092 -0.1257 -0.6901  0.1186
   60SAPC   C23 4609   6.177   3.098  10.350 -0.0108 -0.2912 -0.2761
   60SAPC   H3R 4610   6.190   3.135  10.246  1.0143  1.0430  0.2970
   60SAPC   H3S 4611   6.075   3.137  10.370 -0.4538 -0.7161 -1.5915
   60SAPC   C24 4612   6.171   2.944  10.342  0.6973 -0.4333  0.4114
   60SAPC   H4R 4613   6.096   2.915  10.265  0.7849 -0.9215  0.5050
   60SAPC   H4S 4614   6.135   2.896  10.436  0.2451  1.9219  1.5305
   60SAPC   C25 4615   6.299   2.883  10.320 -0.1361 -0.2405  1.0073
   60SAPC   H5R 4616   6.354   2.839  10.404  0.7849  0.2482  0.6885
   60SAPC   C26 4617   6.366   2.893  10.198  0.2251 -0.3551  0.6552
   60SAPC   H6R 4618   6.453   2.826  10.186 -0.5810 -1.2456 -0.4983
   60SAPC   C27 4619   6.316   2.953  10.068 -0.2461 -0.1496 -0.8575
   60SAPC   H7R 4620   6.345   3.060  10.065 -2.8463  0.7300  1.3886
   60SAPC   H7S 4621   6.205   2.954  10.079 -0.2843  2.4098 -0.9003
   60SAPC   C28 4622   6.362   2.890   9.939  0.4239  0.3159 -0.2197
   60SAPC   H8R 4623   6.423   2.801   9.961  1.9498  1.7031  1.4559
   60SAPC   C29 4624   6.345   2.940   9.813  0.2736  0.6722 -0.8436
   60SAPC   H9R 4625   6.365   2.877   9.726 -2.3272 -1.0351 -0.3175
   60SAPC  C210 4626   6.273   3.065   9.790  0.3173 -0.2448 -0.6644
   60SAPC  H10R 4627   6.245   3.124   9.880 -1.8802  0.8457 -1.9699
   60SAPC  H10S 4628   6.171   3.037   9.754 -0.6319  3.3340 -1.1997
   60SAPC  C211 4629   6.347   3.155   9.688 -0.8797  0.2818 -0.9073
   60SAPC  H11R 4630   6.429   3.209   9.738 -1.6481 -0.0928  0.8398
   60SAPC  C212 4631   6.340   3.164   9.555 -0.1550  0.0300 -0.3260
   60SAPC  H12R 4632   6.412   3.230   9.505 -1.3278  1.0551 -0.7201
   60SAPC  C213 4633   6.243   3.090   9.463 -0.7362  0.2200  0.0186
   60SAPC  H13R 4634   6.204   3.171   9.398 -1.1280  0.3678  0.4325
   60SAPC  H13S 4635   6.153   3.052   9.515 -0.6411 -2.2748 -1.4814
   60SAPC  C214 4636   6.316   2.983   9.396  0.0364 -0.1356  0.2642
   60SAPC  H14R 4637   6.391   2.933   9.458 -0.2570 -2.1569 -0.9242
   60SAPC  C215 4638   6.305   2.945   9.269  0.0601  0.0692  0.7867
   60SAPC  H15R 4639   6.364   2.858   9.236  1.0785  0.2200  2.1176
   60SAPC  C216 4640   6.205   2.988   9.164  1.0085  0.1930 -0.2341
   60SAPC  H16R 4641   6.137   3.061   9.212  0.5039 -0.5619  0.2207
   60SAPC  H16S 4642   6.137   2.907   9.132  2.1236  0.4178 -3.5687
   60SAPC  C217 4643   6.265   3.057   9.040  0.4177  0.4169  0.1774
   60SAPC  H17R 4644   6.314   2.978   8.979  0.1488 -0.5273  1.1508
   60SAPC  H17S 4645   6.350   3.120   9.073  0.2007  0.9854 -0.3298
   60SAPC  C218 4646   6.167   3.124   8.946 -0.2795  0.0091  0.3735
   60SAPC  H18R 4647   6.095   3.046   8.914 -0.8911  0.7847 -0.1997
   60SAPC  H18S 4648   6.212   3.147   8.846 -1.3517 -2.9231 -0.9030
   60SAPC  C219 4649   6.100   3.248   8.998 -0.4896 -0.0611  0.1805
   60SAPC  H19R 4650   6.047   3.216   9.090 -1.1130 -1.1153 -0.5218
   60SAPC  H19S 4651   6.032   3.287   8.919 -1.6369 -1.9684  0.1566
   60SAPC  C220 4652   6.186   3.357   9.054  0.1762 -0.2604 -0.0459
   60SAPC  H20R 4653   6.127   3.450   9.068  2.7339  2.0972 -3.3886
   60SAPC  H20S 4654   6.266   3.396   8.988 -1.1010  1.1346 -0.8239
   60SAPC  H20T 4655   6.233   3.319   9.147  0.7277 -0.4387 -0.3921
   60SAPC   C33 4656   6.245   3.617  10.062  0.6262  0.5128  0.1863
   60SAPC   H3X 4657   6.271   3.721  10.034 -1.7269  0.9834 -0.4277
   60SAPC   H3Y 4658   6.150   3.622  10.118 -0.7810 -0.6435 -1.9662
   60SAPC   C34 4659   6.206   3.542   9.940 -0.4168 -0.2336  0.0486
   60SAPC   H4X 4660   6.112   3.581   9.896 -0.0019  1.0595  0.2503
   60SAPC   H4Y 4661   6.185   3.438   9.972  0.8900  0.1320  2.2985
   60SAPC   C35 4662   6.326   3.545   9.841 -0.2395 -0.2031 -0.8010
   60SAPC   H5X 4663   6.402   3.471   9.873 -0.1615  1.6176  4.1322
   60SAPC   H5Y 4664   6.357   3.650   9.863 -2.3257 -0.1686  2.9478
   60SAPC   C36 4665   6.282   3.531   9.693  0.1883 -0.2596 -0.1992
   60SAPC   H6X 4666   6.228   3.626   9.671  1.9743  1.4373  2.2475
   60SAPC   H6Y 4667   6.209   3.450   9.670 -1.1482  0.2014  2.1289
   60SAPC   C37 4668   6.402   3.519   9.597 -0.6255 -0.2588  0.3977
   60SAPC   H7X 4669   6.454   3.421   9.601 -0.7802 -0.4775 -1.7755
   60SAPC   H7Y 4670   6.486   3.587   9.624  0.3551  0.0556 -3.0125
   60SAPC   C38 4671   6.371   3.560   9.450  0.0121  0.6394 -0.0670
   60SAPC   H8X 4672   6.276   3.505   9.432  0.1141  0.3145  0.3659
   60SAPC   H8Y 4673   6.447   3.518   9.381  0.3112 -0.0109  0.6447
   60SAPC   C39 4674   6.347   3.710   9.434 -0.6285 -0.1221 -0.1230
   60SAPC   H9X 4675   6.416   3.762   9.503 -2.0612  3.0548 -0.9111
   60SAPC   H9Y 4676   6.243   3.729   9.469 -0.5264  1.2400 -0.5173
   60SAPC  C310 4677   6.364   3.762   9.299  0.0531 -0.1839  0.7517
   60SAPC  H10X 4678   6.453   3.719   9.247 -2.2392 -1.4389 -2.4181
   60SAPC  H10Y 4679   6.373   3.873   9.304 -0.1909 -0.1080 -0.2607
   60SAPC  C311 4680   6.240   3.735   9.212 -0.4194 -0.0359 -0.2545
   60SAPC  H11X 4681   6.166   3.812   9.243 -1.1389 -1.6866  2.4039
   60SAPC  H11Y 4682   6.196   3.635   9.230  1.1330 -0.3814  1.9868
   60SAPC  C312 4683   6.271   3.754   9.059 -0.1059 -0.4809  0.3773
   60SAPC  H12X 4684   6.337   3.673   9.021 -2.2989 -0.3116 -4.5214
   60SAPC  H12Y 4685   6.327   3.848   9.046  0.1318 -0.5425  0.9031
   60SAPC  C313 4686   6.153   3.731   8.973 -0.2757 -0.3281  0.1300
   60SAPC  H13X 4687   6.075   3.807   8.997 -0.1789  0.4121 -1.7030
   60SAPC  H13Y 4688   6.111   3.634   9.005 -0.5783  0.9281  4.1253
   60SAPC  C314 4689   6.192   3.736   8.828 -0.1047  0.6814  0.0828
   60SAPC  H14X 4690   6.261   3.652   8.804  3.0367  2.6040  1.7717
   60SAPC  H14Y 4691   6.251   3.824   8.797  0.3235 -0.1885 -1.7118
   60SAPC  C315 4692   6.074   3.726   8.732 -0.6940 -0.0713 -0.0609
   60SAPC  H15X 4693   6.116   3.744   8.631 -1.6099  0.4001 -0.3720
   60SAPC  H15Y 4694   6.004   3.806   8.765  0.1556  0.2107  1.1071
   60SAPC  C316 4695   5.989   3.603   8.718  0.3008 -0.3851  0.1517
   60SAPC  H16X 4696   5.911   3.633   8.646  0.9685  0.7052 -0.1439
   60SAPC  H16Y 4697   5.935   3.586   8.813 -1.0994 -2.5942 -0.9602
   60SAPC  C317 4698   6.065   3.472   8.680 -0.1270 -0.0530 -0.9139
   60SAPC  H17X 4699   6.139   3.439   8.755  0.6530 -1.5889 -2.2796
   60SAPC  H17Y 4700   6.127   3.494   8.590 -0.4279 -0.3849 -1.2087
   60SAPC  C318 4701   5.966   3.354   8.657  0.1374 -0.6509 -0.2320
   60SAPC  H18X 4702   5.895   3.398   8.584  1.4955  0.5166 -0.8758
   60SAPC  H18Y 4703   5.911   3.346   8.753 -1.5899  1.6418 -0.9446
   60SAPC  H18Z 4704   6.014   3.260   8.622  0.2825 -0.6992  0.0973
   61SAPC     N 4705   0.860   1.926  10.711 -0.1704  0.2357 -0.9172
   61SAPC   C12 4706   0.912   2.034  10.630 -0.4214  0.0432 -0.0007
   61SAPC  H12A 4707   0.845   2.120  10.633  0.7399  0.9529  0.5591
   61SAPC  H12B 4708   0.914   1.998  10.529 -1.0224  1.2369 -0.4599
   61SAPC   C13 4709   0.854   1.956  10.858 -0.4562 -0.3507 -0.4112
   61SAPC  H13A 4710   0.944   2.000  10.899 -1.5676  2.3980 -0.6955
   61SAPC  H13B 4711   0.785   2.037  10.879  0.1617 -0.0421  0.4745
   61SAPC  H13C 4712   0.836   1.865  10.913 -0.4342  0.9264  1.8488
   61SAPC   C14 4713   0.721   1.898  10.666  0.0438 -0.2143  0.6933
   61SAPC  H14A 4714   0.715   1.860  10.566  3.1693 -0.1391  0.3842
   61SAPC  H14B 4715   0.682   1.819  10.728 -0.6611 -1.1210 -0.8570
   61SAPC  H14C 4716   0.664   1.989  10.682 -0.3536 -0.2221 -0.6133
   61SAPC   C15 4717   0.948   1.802  10.692  0.1834 -1.1847  0.2106
   61SAPC  H15A 4718   0.953   1.787  10.585  0.8772 -2.7242  0.4314
   61SAPC  H15B 4719   1.051   1.823  10.719  0.4371 -3.1903  0.9671
   61SAPC  H15C 4720   0.903   1.715  10.737 -3.0470  0.3389  0.1882
   61SAPC   C11 4721   1.053   2.093  10.655 -0.0457  0.1540 -0.7613
   61SAPC  H11A 4722   1.090   2.167  10.581  2.6429  0.6628  0.9661
   61SAPC  H11B 4723   1.132   2.016  10.643  0.2881  0.4723 -0.6201
   61SAPC     P 4724   1.013   2.288  10.819 -0.3748 -0.3295 -0.2004
   61SAPC   O13 4725   0.871   2.298  10.779 -0.1449 -0.4591  0.0876
   61SAPC   O14 4726   1.052   2.325  10.955 -0.0682  0.6835 -0.1990
   61SAPC   O12 4727   1.063   2.144  10.791 -0.3718 -0.1813  0.9968
   61SAPC   O11 4728   1.101   2.370  10.712  0.3142  0.1339 -0.0329
   61SAPC    C1 4729   1.076   2.511  10.691 -0.3844  0.9497  0.7792
   61SAPC    HA 4730   0.994   2.554  10.754 -2.2226  1.8204 -1.9957
   61SAPC    HB 4731   1.176   2.554  10.714  1.3502 -1.1720 -2.1570
   61SAPC    C2 4732   1.039   2.518  10.538 -0.6261 -0.9080 -0.2705
   61SAPC    HS 4733   0.941   2.469  10.517 -2.0604  2.1168 -1.3603
   61SAPC   O21 4734   1.140   2.457  10.458  0.0751 -0.5695  0.4204
   61SAPC   C21 4735   1.121   2.428  10.334 -0.3438  0.1565  0.1858
   61SAPC   O22 4736   1.022   2.451  10.267  0.0250  0.5594 -0.1533
   61SAPC   C22 4737   1.225   2.337  10.272 -0.2610 -0.3104 -0.1720
   61SAPC   H2R 4738   1.316   2.353  10.333 -1.9938  1.9208  2.0792
   61SAPC   H2S 4739   1.206   2.228  10.285 -0.6533 -0.2989 -0.6178
   61SAPC    C3 4740   1.020   2.672  10.502 -0.2488 -0.1487 -0.6076
   61SAPC    HX 4741   1.113   2.730  10.521 -0.8228  0.3338  0.8611
   61SAPC    HY 4742   0.951   2.702  10.583  1.7848 -0.3256  1.2804
   61SAPC   O31 4743   0.961   2.695  10.372  0.0258  0.5321  0.0097
   61SAPC   C31 4744   1.037   2.745  10.276  0.4142 -0.5476 -1.0765
   61SAPC   O32 4745   1.154   2.775  10.287  0.3338 -0.2558 -0.0129
   61SAPC   C32 4746   0.963   2.740  10.145  0.0087  0.3488 -0.4829
   61SAPC   H2X 4747   0.864   2.692  10.160  1.1228 -1.8716  0.2076
   61SAPC   H2Y 4748   1.013   2.674  10.072  1.6964  0.2825  0.6872
   61SAPC   C23 4749   1.249   2.370  10.124  0.5180  0.3533  0.7151
   61SAPC   H3R 4750   1.354   2.344  10.100 -0.1755 -1.9208 -0.1149
   61SAPC   H3S 4751   1.227   2.477  10.102 -0.8005 -0.3212 -1.5430
   61SAPC   C24 4752   1.165   2.272  10.035 -0.5304 -0.4541  0.3816
   61SAPC   H4R 4753   1.066   2.263  10.083  0.0452 -1.9713  1.3550
   61SAPC   H4S 4754   1.200   2.167  10.027 -1.9542 -1.0502  1.5777
   61SAPC   C25 4755   1.157   2.324   9.893 -0.0201 -0.3248 -0.2436
   61SAPC   H5R 4756   1.251   2.366   9.854  0.3939 -1.0337 -0.0231
   61SAPC   C26 4757   1.047   2.342   9.822 -0.0969 -1.0119 -0.0629
   61SAPC   H6R 4758   1.054   2.380   9.719 -1.2891  1.1283  0.5835
   61SAPC   C27 4759   0.906   2.317   9.859  0.2141  0.2087  0.2441
   61SAPC   H7R 4760   0.897   2.210   9.888 -1.1276 -0.5033 -2.4779
   61SAPC   H7S 4761   0.846   2.322   9.767 -4.0600  0.4241  2.7878
   61SAPC   C28 4762   0.840   2.414   9.960 -0.6694  0.3852 -0.1485
   61SAPC   H8R 4763   0.890   2.415  10.058 -0.2583 -0.9604 -0.3216
   61SAPC   C29 4764   0.733   2.486   9.934  0.3301 -0.6326 -0.6766
   61SAPC   H9R 4765   0.680   2.543  10.012  1.2265 -2.3635  1.2866
   61SAPC  C210 4766   0.666   2.490   9.796 -0.2735  0.9558  0.0287
   61SAPC  H10R 4767   0.563   2.517   9.827  0.4454  1.9330  1.7836
   61SAPC  H10S 4768   0.661   2.388   9.754 -0.4900 -0.1267  2.4837
   61SAPC  C211 4769   0.723   2.597   9.704 -0.0406  0.6452 -0.0726
   61SAPC  H11R 4770   0.750   2.686   9.762  1.3759 -1.6614  3.0929
   61SAPC  C212 4771   0.736   2.587   9.573  0.4946  0.1822 -0.2983
   61SAPC  H12R 4772   0.783   2.675   9.524  0.2304 -0.6001 -2.0248
   61SAPC  C213 4773   0.700   2.473   9.480  0.0915 -0.7643 -0.6311
   61SAPC  H13R 4774   0.658   2.501   9.382  2.1148 -2.7464 -2.1662
   61SAPC  H13S 4775   0.635   2.397   9.529  1.5045 -0.7577  1.3840
   61SAPC  C214 4776   0.833   2.404   9.444  0.0458 -0.0084  0.3070
   61SAPC  H14R 4777   0.905   2.398   9.527  3.3503 -0.7888 -2.4332
   61SAPC  C215 4778   0.884   2.362   9.322 -0.4480  0.3321 -0.5281
   61SAPC  H15R 4779   0.988   2.329   9.312  0.6452  3.4384 -0.5519
   61SAPC  C216 4780   0.792   2.379   9.203 -0.8570 -0.1808  0.5471
   61SAPC  H16R 4781   0.685   2.371   9.234 -1.0351  1.7484  0.5152
   61SAPC  H16S 4782   0.821   2.291   9.141 -1.4016 -0.2771  0.4247
   61SAPC  C217 4783   0.797   2.515   9.121  0.6666 -0.2933 -0.0490
   61SAPC  H17R 4784   0.897   2.562   9.114  1.2913 -1.6651 -0.7803
   61SAPC  H17S 4785   0.733   2.585   9.180  1.6253  1.2073 -0.7380
   61SAPC  C218 4786   0.752   2.491   8.982 -0.2649 -0.2224 -0.3112
   61SAPC  H18R 4787   0.820   2.422   8.929  0.0803 -0.0065 -0.1485
   61SAPC  H18S 4788   0.760   2.585   8.924  0.2238 -0.2196 -0.2373
   61SAPC  C219 4789   0.609   2.446   8.974  0.5867  0.2962  0.3281
   61SAPC  H19R 4790   0.534   2.504   9.032  0.0655  1.1303 -1.1301
   61SAPC  H19S 4791   0.603   2.342   9.012 -0.4541  0.8118  1.6742
   61SAPC  C220 4792   0.568   2.446   8.830 -1.0275 -0.1309 -0.1576
   61SAPC  H20R 4793   0.650   2.418   8.760  0.2174  1.2434  0.6998
   61SAPC  H20S 4794   0.520   2.542   8.803 -0.9805 -0.0479  0.0569
   61SAPC  H20T 4795   0.488   2.370   8.813 -0.5933 -0.2678 -1.8175
   61SAPC   C33 4796   0.950   2.877  10.085  0.1597 -1.6073  0.0323
   61SAPC   H3X 4797   1.054   2.915  10.077 -0.3031 -0.1517  0.4999
   61SAPC   H3Y 4798   0.908   2.945  10.162  1.1678 -0.4269 -0.4303
   61SAPC   C34 4799   0.883   2.886   9.954 -0.6724  0.1639  0.5725
   61SAPC   H4X 4800   0.773   2.870   9.952 -0.4701 -1.4515 -1.6460
   61SAPC   H4Y 4801   0.923   2.813   9.880 -1.2143 -0.2588  0.6937
   61SAPC   C35 4802   0.905   3.023   9.884  1.2080 -0.0187  0.2166
   61SAPC   H5X 4803   1.015   3.034   9.868  1.4088 -1.8504  0.1367
   61SAPC   H5Y 4804   0.868   3.105   9.949 -0.9021 -0.2336 -0.6254
   61SAPC   C36 4805   0.818   3.035   9.748  0.2289 -0.5207  0.0773
   61SAPC   H6X 4806   0.818   3.142   9.718  1.4126 -0.1834  1.1506
   61SAPC   H6Y 4807   0.712   3.014   9.775 -0.3531 -0.5252 -2.0253
   61SAPC   C37 4808   0.875   2.951   9.634 -0.8085 -0.6500 -1.1496
   61SAPC   H7X 4809   0.859   2.845   9.661 -0.1991 -0.8385 -1.5045
   61SAPC   H7Y 4810   0.984   2.975   9.626 -1.1830  1.8971  0.2549
   61SAPC   C38 4811   0.804   2.960   9.496  0.2828 -0.3116 -0.2856
   61SAPC   H8X 4812   0.793   3.070   9.484  1.8258 -0.2982 -1.8705
   61SAPC   H8Y 4813   0.704   2.912   9.492  1.0588 -2.0593  0.3095
   61SAPC   C39 4814   0.884   2.901   9.381  0.0369 -0.2251  0.3655
   61SAPC   H9X 4815   0.906   2.794   9.398 -2.9576 -1.6302 -3.3390
   61SAPC   H9Y 4816   0.973   2.967   9.371 -0.5956  0.5080 -0.5583
   61SAPC  C310 4817   0.807   2.897   9.245  0.3032  0.4806 -0.6830
   61SAPC  H10X 4818   0.710   2.846   9.259  0.3826  0.5576  0.2041
   61SAPC  H10Y 4819   0.871   2.837   9.176 -1.3614  0.1046 -1.9446
   61SAPC  C311 4820   0.782   3.035   9.190 -0.0768 -0.1556 -0.0703
   61SAPC  H11X 4821   0.879   3.090   9.195 -0.6052  0.7921  0.1206
   61SAPC  H11Y 4822   0.713   3.099   9.249 -0.6603 -0.9517  0.1286
   61SAPC  C312 4823   0.758   3.042   9.040 -0.4334 -0.2350 -0.2566
   61SAPC  H12X 4824   0.834   2.984   8.984  0.7192  0.3903  0.6251
   61SAPC  H12Y 4825   0.757   3.148   9.007  0.2788 -0.0920  0.1656
   61SAPC  C313 4826   0.628   2.972   9.006 -0.0792 -0.5637  0.7569
   61SAPC  H13X 4827   0.546   3.008   9.072 -1.2671 -0.4078 -0.7455
   61SAPC  H13Y 4828   0.627   2.862   9.022  2.2014 -0.5465  1.4174
   61SAPC  C314 4829   0.573   3.005   8.870  0.0486  0.0259  0.1537
   61SAPC  H14X 4830   0.557   3.114   8.859 -1.7784 -0.1962  0.2781
   61SAPC  H14Y 4831   0.470   2.964   8.858 -0.4329  1.3567 -0.5071
   61SAPC  C315 4832   0.660   2.938   8.761 -0.1120 -0.3848 -0.0030
   61SAPC  H15X 4833   0.672   2.830   8.783  0.7087 -0.3718 -0.3595
   61SAPC  H15Y 4834   0.761   2.984   8.760 -0.2856  0.0091  0.4269
   61SAPC  C316 4835   0.602   2.960   8.620 -0.6928  0.4055  0.3910
   61SAPC  H16X 4836   0.637   3.061   8.589  1.6578  0.0252  1.6190
   61SAPC  H16Y 4837   0.492   2.959   8.639 -0.4957  1.3138  1.7636
   61SAPC  C317 4838   0.654   2.855   8.524 -0.1848  0.9998  0.5556
   61SAPC  H17X 4839   0.598   2.865   8.428  0.0632  0.6735  0.3767
   61SAPC  H17Y 4840   0.627   2.753   8.560  0.9441  0.7333  0.6720
   61SAPC  C318 4841   0.801   2.866   8.484 -0.2231 -1.0265  1.1511
   61SAPC  H18X 4842   0.826   2.792   8.404 -1.0310  0.5956 -0.7017
   61SAPC  H18Y 4843   0.878   2.851   8.562  2.5324  0.3545 -1.0884
   61SAPC  H18Z 4844   0.824   2.973   8.462  2.1555 -1.3830  1.6375
   62SAPC     N 4845   0.340   1.749  11.233  0.4171  0.0304 -0.5842
   62SAPC   C12 4846   0.323   1.719  11.091 -0.2718 -0.2168  0.3939
   62SAPC  H12A 4847   0.354   1.798  11.024  1.5522 -1.0968  0.1274
   62SAPC  H12B 4848   0.218   1.702  11.074  0.1529 -1.1781 -1.6045
   62SAPC   C13 4849   0.480   1.761  11.267 -0.4228 -0.3509  0.1265
   62SAPC  H13A 4850   0.489   1.783  11.372  0.0871 -1.8840  0.4369
   62SAPC  H13B 4851   0.528   1.665  11.252 -0.8630 -0.4013 -1.0292
   62SAPC  H13C 4852   0.525   1.833  11.202 -2.6768  0.5915 -0.4925
   62SAPC   C14 4853   0.265   1.873  11.262 -0.2382  0.5620  1.1867
   62SAPC  H14A 4854   0.316   1.957  11.216  1.7446 -2.3245 -2.5125
   62SAPC  H14B 4855   0.168   1.861  11.216  0.1665  2.1339 -0.2073
   62SAPC  H14C 4856   0.268   1.893  11.368 -0.8333  0.2432  1.2654
   62SAPC   C15 4857   0.279   1.640  11.317  0.2213  0.6284 -0.2274
   62SAPC  H15A 4858   0.184   1.603  11.282  0.2899  2.7230 -2.9581
   62SAPC  H15B 4859   0.331   1.546  11.326 -1.2105 -0.3052 -1.3645
   62SAPC  H15C 4860   0.275   1.677  11.419  0.6082 -1.5200  0.6215
   62SAPC   C11 4861   0.399   1.590  11.034  0.0910 -0.5819 -0.2135
   62SAPC  H11A 4862   0.356   1.570  10.933 -2.0253 -0.1011  0.5254
   62SAPC  H11B 4863   0.369   1.507  11.101 -2.4077 -1.6345 -2.4357
   62SAPC     P 4864   0.617   1.621  10.904  0.5137 -0.1644 -0.3789
   62SAPC   O13 4865   0.549   1.701  10.810  0.5676 -0.9617  0.5163
   62SAPC   O14 4866   0.754   1.666  10.944 -0.0008  0.4226 -0.6612
   62SAPC   O12 4867   0.540   1.609  11.037  0.1585  0.4345  0.0573
   62SAPC   O11 4868   0.617   1.475  10.864 -0.0478 -0.2711 -0.1865
   62SAPC    C1 4869   0.715   1.413  10.775  0.3193 -0.5514 -0.4399
   62SAPC    HA 4870   0.817   1.431  10.817 -0.4322  0.5335  1.0024
   62SAPC    HB 4871   0.693   1.304  10.778  0.6823 -0.6119  1.6007
   62SAPC    C2 4872   0.706   1.460  10.628 -0.7665  0.5024 -0.4573
   62SAPC    HS 4873   0.744   1.564  10.627 -1.0393  0.6066 -0.2429
   62SAPC   O21 4874   0.576   1.432  10.583 -0.5703 -0.3894  0.1754
   62SAPC   C21 4875   0.536   1.526  10.495 -0.4990  0.6186  0.0456
   62SAPC   O22 4876   0.603   1.625  10.456 -0.2626  0.2616  0.3882
   62SAPC   C22 4877   0.401   1.480  10.435  1.4655 -0.2357  0.5050
   62SAPC   H2R 4878   0.403   1.371  10.414  0.1274 -0.3014  0.6394
   62SAPC   H2S 4879   0.321   1.489  10.511 -0.2627  1.0694 -1.3506
   62SAPC    C3 4880   0.799   1.373  10.540  0.0040  0.1930  0.3398
   62SAPC    HX 4881   0.758   1.270  10.543  1.6617 -0.5047 -0.1135
   62SAPC    HY 4882   0.894   1.362  10.597 -1.2582  0.9984  2.7578
   62SAPC   O31 4883   0.815   1.415  10.402  0.3537 -0.4214  0.0543
   62SAPC   C31 4884   0.905   1.518  10.387  0.0341 -0.3062 -0.0430
   62SAPC   O32 4885   0.976   1.563  10.475  0.4078  0.6905 -0.1524
   62SAPC   C32 4886   0.909   1.553  10.240 -0.1908  0.9619 -0.0087
   62SAPC   H2X 4887   0.999   1.503  10.197 -1.2928 -1.6833  0.5122
   62SAPC   H2Y 4888   0.918   1.662  10.226  0.3911  1.1153  1.4012
   62SAPC   C23 4889   0.355   1.547  10.303  0.3316 -0.4717  0.1202
   62SAPC   H3R 4890   0.430   1.539  10.221 -0.4767 -0.4322 -0.6510
   62SAPC   H3S 4891   0.348   1.657  10.321 -0.5940 -0.1837 -1.6842
   62SAPC   C24 4892   0.219   1.504  10.250 -0.1511  0.0808 -0.6942
   62SAPC   H4R 4893   0.146   1.516  10.333 -0.5189  0.4665 -1.0664
   62SAPC   H4S 4894   0.214   1.396  10.225  0.9621 -0.3313  0.7374
   62SAPC   C25 4895   0.175   1.589  10.128 -0.0355  0.2310  0.3805
   62SAPC   H5R 4896   0.135   1.689  10.148 -0.8201 -0.0114  0.0565
   62SAPC   C26 4897   0.191   1.558   9.997 -0.4560  0.0120  0.6675
   62SAPC   H6R 4898   0.146   1.623   9.921  1.9610 -1.8199 -2.5791
   62SAPC   C27 4899   0.251   1.432   9.942 -0.2832  0.3483 -0.5179
   62SAPC   H7R 4900   0.177   1.381   9.876 -0.1304 -2.0813  1.0803
   62SAPC   H7S 4901   0.264   1.346  10.010  2.7555  0.1039 -1.2509
   62SAPC   C28 4902   0.383   1.470   9.880  0.7276 -0.4516  0.2071
   62SAPC   H8R 4903   0.435   1.563   9.908  0.3432  0.0492 -0.6781
   62SAPC   C29 4904   0.440   1.400   9.783  0.8346 -0.1024 -0.0597
   62SAPC   H9R 4905   0.544   1.411   9.749  1.4119  0.4187  1.7699
   62SAPC  C210 4906   0.380   1.276   9.706  0.3896  0.2328 -0.2590
   62SAPC  H10R 4907   0.302   1.229   9.770  0.9615 -0.1148  0.1914
   62SAPC  H10S 4908   0.442   1.188   9.681  0.3875  0.3787 -0.8139
   62SAPC  C211 4909   0.300   1.317   9.582 -0.0936  0.3879 -0.5927
   62SAPC  H11R 4910   0.192   1.327   9.601  0.3387  0.1739  2.5574
   62SAPC  C212 4911   0.345   1.336   9.458 -0.9002 -0.2307 -1.4199
   62SAPC  H12R 4912   0.266   1.373   9.392 -1.1116  1.8143 -0.0997
   62SAPC  C213 4913   0.489   1.332   9.416  0.6008 -0.1422 -0.1012
   62SAPC  H13R 4914   0.536   1.249   9.473 -1.3434 -0.2069  1.5222
   62SAPC  H13S 4915   0.541   1.422   9.453  0.4863  0.4289 -1.2654
   62SAPC  C214 4916   0.509   1.289   9.272 -0.4435 -0.1703  0.3248
   62SAPC  H14R 4917   0.432   1.225   9.227 -0.2676  0.0386 -0.2875
   62SAPC  C215 4918   0.610   1.330   9.196  0.4301  0.1917 -0.2508
   62SAPC  H15R 4919   0.628   1.281   9.099  5.9597  1.6061 -0.2540
   62SAPC  C216 4920   0.716   1.433   9.238  0.0749  0.5404 -0.1364
   62SAPC  H16R 4921   0.814   1.383   9.252 -0.4932 -0.5523  0.1433
   62SAPC  H16S 4922   0.688   1.470   9.339 -1.5672 -2.2433  0.5450
   62SAPC  C217 4923   0.738   1.543   9.133  0.2703 -0.5648  0.1136
   62SAPC  H17R 4924   0.794   1.630   9.172 -0.0907 -0.4115  0.2951
   62SAPC  H17S 4925   0.640   1.587   9.104  1.1422  1.9079  0.7300
   62SAPC  C218 4926   0.796   1.497   9.002  0.3261 -0.1589 -0.4311
   62SAPC  H18R 4927   0.725   1.428   8.951 -2.1917  1.7328  0.3583
   62SAPC  H18S 4928   0.871   1.423   9.037 -2.0601 -2.4388  0.2263
   62SAPC  C219 4929   0.855   1.594   8.897 -0.1237 -0.1571 -0.5281
   62SAPC  H19R 4930   0.781   1.650   8.835 -2.6669 -2.2984  0.4220
   62SAPC  H19S 4931   0.915   1.530   8.829 -0.7732 -1.3820  0.0199
   62SAPC  C220 4932   0.950   1.696   8.973 -0.7784  0.3714 -0.0525
   62SAPC  H20R 4933   1.002   1.762   8.901  0.8600 -1.6586 -0.8248
   62SAPC  H20S 4934   1.021   1.631   9.028 -2.4133 -0.8752  0.7005
   62SAPC  H20T 4935   0.892   1.767   9.037  0.2263  1.0121  0.1784
   62SAPC   C33 4936   0.792   1.498  10.157  0.1902 -0.1365  0.4578
   62SAPC   H3X 4937   0.697   1.501  10.214  0.0439 -1.7097  0.3466
   62SAPC   H3Y 4938   0.812   1.389  10.148 -0.6834 -0.1954 -1.1547
   62SAPC   C34 4939   0.770   1.548  10.009 -0.4891 -0.0880 -0.0585
   62SAPC   H4X 4940   0.736   1.653  10.007 -2.7877 -0.7726  0.2257
   62SAPC   H4Y 4941   0.688   1.489   9.963 -1.3534  2.1802 -1.5923
   62SAPC   C35 4942   0.900   1.542   9.934 -0.2727  0.5701 -0.5545
   62SAPC   H5X 4943   0.958   1.452   9.964 -0.4684  0.8351  0.6892
   62SAPC   H5Y 4944   0.968   1.626   9.959 -2.0984  2.2918 -1.0394
   62SAPC   C36 4945   0.875   1.536   9.785 -0.3488 -0.3082 -0.6218
   62SAPC   H6X 4946   0.835   1.633   9.746  1.3121  0.6441 -0.0446
   62SAPC   H6Y 4947   0.804   1.454   9.760 -0.2795 -0.5153 -0.1480
   62SAPC   C37 4948   1.007   1.502   9.706  0.2106 -0.1129 -0.2837
   62SAPC   H7X 4949   1.041   1.400   9.734  3.9690  0.9589 -0.3930
   62SAPC   H7Y 4950   1.080   1.583   9.726  1.3838 -0.7596 -1.7802
   62SAPC   C38 4951   0.982   1.497   9.556 -0.6583 -1.1354  0.5208
   62SAPC   H8X 4952   0.948   1.597   9.520  2.4235  0.2558  1.1884
   62SAPC   H8Y 4953   0.901   1.425   9.533 -0.6189 -0.9057 -0.3793
   62SAPC   C39 4954   1.119   1.482   9.491 -0.0234  0.7308  0.1194
   62SAPC   H9X 4955   1.172   1.397   9.541  1.0473  0.2316 -1.7527
   62SAPC   H9Y 4956   1.187   1.569   9.505  2.4948 -0.6556 -2.3072
   62SAPC  C310 4957   1.112   1.458   9.340  0.4933  0.5698  0.5418
   62SAPC  H10X 4958   1.039   1.516   9.279  1.6921 -0.6844 -2.2562
   62SAPC  H10Y 4959   1.075   1.354   9.331 -1.0354  1.2645 -2.6337
   62SAPC  C311 4960   1.240   1.475   9.266 -0.7602  0.1134  0.6890
   62SAPC  H11X 4961   1.226   1.421   9.169 -0.6641 -1.9590  1.7745
   62SAPC  H11Y 4962   1.318   1.424   9.327 -0.2383  1.4691  1.1885
   62SAPC  C312 4963   1.266   1.626   9.245 -0.1852  0.6290 -0.6189
   62SAPC  H12X 4964   1.281   1.681   9.340 -2.6767  1.0896 -0.4411
   62SAPC  H12Y 4965   1.173   1.666   9.200 -0.9439  2.1320  2.0568
   62SAPC  C313 4966   1.394   1.656   9.157 -0.2625 -0.9971 -0.3856
   62SAPC  H13X 4967   1.483   1.611   9.207  0.7012  1.2372  0.0009
   62SAPC  H13Y 4968   1.416   1.764   9.149 -0.2871 -0.9434  0.2368
   62SAPC  C314 4969   1.387   1.589   9.026  0.6372  0.4486 -0.2353
   62SAPC  H14X 4970   1.285   1.604   8.983  0.9628  0.6527 -0.9619
   62SAPC  H14Y 4971   1.396   1.479   9.035 -2.3810  0.0552 -0.7538
   62SAPC  C315 4972   1.489   1.623   8.920 -0.0154 -0.1784 -0.5651
   62SAPC  H15X 4973   1.592   1.596   8.952 -1.2299 -1.8398  2.3201
   62SAPC  H15Y 4974   1.478   1.731   8.896  0.3599  0.2877  1.1813
   62SAPC  C316 4975   1.464   1.555   8.780  0.0940  0.1902 -0.3736
   62SAPC  H16X 4976   1.365   1.576   8.733  0.0199  1.0065  0.1366
   62SAPC  H16Y 4977   1.468   1.445   8.791 -0.2981  0.0469 -1.4928
   62SAPC  C317 4978   1.584   1.586   8.693 -0.7621 -0.2229 -0.1643
   62SAPC  H17X 4979   1.682   1.584   8.746 -0.5863  1.9855 -0.2749
   62SAPC  H17Y 4980   1.567   1.688   8.651 -0.6678 -0.9180 -1.9617
   62SAPC  C318 4981   1.597   1.505   8.567 -0.1929 -0.2978 -1.0742
   62SAPC  H18X 4982   1.614   1.398   8.590  3.2729  0.0481 -1.4892
   62SAPC  H18Y 4983   1.675   1.547   8.500  0.1067  1.0228  0.0441
   62SAPC  H18Z 4984   1.505   1.521   8.507 -1.4242 -0.7773  0.6189
   63SAPC     N 4985   5.236   6.450   6.388  0.4665 -0.1209 -0.7163
   63SAPC   C12 4986   5.334   6.332   6.403  0.2579 -0.1332  0.7006
   63SAPC  H12A 4987   5.388   6.330   6.310  0.6487 -0.9311  0.9369
   63SAPC  H12B 4988   5.279   6.239   6.407  2.1049 -1.2623  0.9598
   63SAPC   C13 4989   5.305   6.582   6.335 -0.3363 -0.0249  0.1184
   63SAPC  H13A 4990   5.366   6.623   6.414 -0.4751 -2.1549  1.4210
   63SAPC  H13B 4991   5.353   6.564   6.240 -0.0293  1.7622 -0.1036
   63SAPC  H13C 4992   5.230   6.655   6.306 -0.1368 -1.1602 -3.8820
   63SAPC   C14 4993   5.144   6.409   6.279 -0.1509 -0.4954 -0.5741
   63SAPC  H14A 4994   5.197   6.384   6.188  3.5566  0.3138  1.1861
   63SAPC  H14B 4995   5.090   6.317   6.298  1.6938 -1.4716  0.1474
   63SAPC  H14C 4996   5.075   6.487   6.252 -1.6712 -1.7399 -0.4275
   63SAPC   C15 4997   5.153   6.484   6.514 -0.5289 -0.1692 -0.0716
   63SAPC  H15A 4998   5.105   6.580   6.499  0.9250  0.6311  0.2182
   63SAPC  H15B 4999   5.075   6.414   6.540 -2.7712  1.8878 -0.9024
   63SAPC  H15C 5000   5.225   6.493   6.595  0.1797 -0.2710 -0.6816
   63SAPC   C11 5001   5.442   6.333   6.507  0.1138 -0.0298  0.3356
   63SAPC  H11A 5002   5.492   6.238   6.481 -2.6538 -1.2336 -1.0683
   63SAPC  H11B 5003   5.391   6.326   6.606 -0.6802 -1.8746 -0.1708
   63SAPC     P 5004   5.651   6.452   6.412  0.2181 -0.2955 -0.1812
   63SAPC   O13 5005   5.620   6.414   6.272  0.5210  0.0757  0.1876
   63SAPC   O14 5006   5.714   6.584   6.432 -0.6791 -0.0710 -0.1503
   63SAPC   O12 5007   5.525   6.447   6.501 -0.1669  0.3062  0.1850
   63SAPC   O11 5008   5.735   6.338   6.479  0.7577 -0.1890  0.1941
   63SAPC    C1 5009   5.732   6.324   6.622  0.7958 -0.4707  0.0726
   63SAPC    HA 5010   5.715   6.419   6.677 -1.0436 -1.4738  1.3566
   63SAPC    HB 5011   5.651   6.253   6.652 -1.0700  1.5057 -0.0537
   63SAPC    C2 5012   5.865   6.260   6.662  0.0741 -0.2701  0.0416
   63SAPC    HS 5013   5.872   6.168   6.602 -0.5686 -0.8899  0.8847
   63SAPC   O21 5014   5.858   6.233   6.806 -0.8310  0.3516 -0.6474
   63SAPC   C21 5015   5.840   6.106   6.840  0.5277 -0.8555 -0.0824
   63SAPC   O22 5016   5.885   6.010   6.781  0.4149  1.1478 -0.4092
   63SAPC   C22 5017   5.742   6.098   6.953  0.6632  0.3859 -1.2155
   63SAPC   H2R 5018   5.803   6.117   7.044  0.3546 -2.6451 -0.2670
   63SAPC   H2S 5019   5.660   6.173   6.942  0.8968  1.1883  1.6464
   63SAPC    C3 5020   5.981   6.362   6.625  0.3736 -0.0752 -0.3162
   63SAPC    HX 5021   5.978   6.397   6.520 -1.4851 -1.6282 -0.8417
   63SAPC    HY 5022   6.079   6.311   6.634  0.7941  0.1393 -2.9420
   63SAPC   O31 5023   5.968   6.468   6.719  0.0897  0.0330 -0.2855
   63SAPC   C31 5024   6.060   6.567   6.718  0.0532  0.4788  0.6404
   63SAPC   O32 5025   6.168   6.561   6.662  0.1197 -0.0353  0.1148
   63SAPC   C32 5026   6.009   6.688   6.795 -0.1511 -0.6386 -0.1489
   63SAPC   H2X 5027   5.927   6.732   6.735  1.3374  1.7776 -0.5391
   63SAPC   H2Y 5028   6.092   6.757   6.820 -0.2848 -0.7794  0.7261
   63SAPC   C23 5029   5.674   5.955   6.970  0.6382 -0.4171 -0.1355
   63SAPC   H3R 5030   5.752   5.883   7.001  1.4518  0.3044 -0.4647
   63SAPC   H3S 5031   5.640   5.930   6.867  1.2102  0.4669 -0.5507
   63SAPC   C24 5032   5.568   5.960   7.081 -0.3088 -0.0168  0.4131
   63SAPC   H4R 5033   5.502   5.872   7.070  0.2281 -0.4742  0.8002
   63SAPC   H4S 5034   5.502   6.046   7.055  0.2677 -0.0073 -1.0763
   63SAPC   C25 5035   5.610   5.956   7.226  0.1320  0.2340 -0.2888
   63SAPC   H5R 5036   5.675   5.869   7.242  0.0788  0.1393 -0.5908
   63SAPC   C26 5037   5.584   6.047   7.319  0.0761 -0.4461 -0.6701
   63SAPC   H6R 5038   5.610   6.021   7.423 -1.3392  0.3216 -0.0880
   63SAPC   C27 5039   5.505   6.179   7.316  0.0740  0.1977 -0.5807
   63SAPC   H7R 5040   5.404   6.163   7.360  0.4473 -2.5091 -0.5155
   63SAPC   H7S 5041   5.493   6.218   7.213  1.4602 -0.5544 -1.0452
   63SAPC   C28 5042   5.593   6.281   7.389 -0.6410 -0.6387 -0.4619
   63SAPC   H8R 5043   5.685   6.301   7.333 -1.9024  1.6926 -1.8693
   63SAPC   C29 5044   5.585   6.324   7.515 -0.5639 -1.0736 -0.5051
   63SAPC   H9R 5045   5.651   6.403   7.554 -1.8162 -1.1669  2.0628
   63SAPC  C210 5046   5.463   6.296   7.602  0.0969  0.7529  0.6240
   63SAPC  H10R 5047   5.497   6.215   7.671  0.4528  1.5350  1.3863
   63SAPC  H10S 5048   5.375   6.264   7.542  1.1690  1.6509 -1.5487
   63SAPC  C211 5049   5.427   6.409   7.691  0.0046  0.1465  0.2539
   63SAPC  H11R 5050   5.485   6.501   7.687  0.6769 -0.2757  0.1861
   63SAPC  C212 5051   5.331   6.404   7.793 -0.9005 -0.6316  0.5304
   63SAPC  H12R 5052   5.304   6.491   7.856 -1.1557 -0.3125 -0.0143
   63SAPC  C213 5053   5.250   6.276   7.826 -0.2808  0.1209  0.0045
   63SAPC  H13R 5054   5.324   6.194   7.839  0.8693  0.7605 -2.0300
   63SAPC  H13S 5055   5.197   6.244   7.733  0.9019  1.9717 -1.3830
   63SAPC  C214 5056   5.155   6.284   7.943 -0.1424 -0.1991  0.1755
   63SAPC  H14R 5057   5.054   6.304   7.905  0.7302  0.4611 -1.9816
   63SAPC  C215 5058   5.179   6.283   8.074 -0.0270 -0.1856  0.0162
   63SAPC  H15R 5059   5.094   6.280   8.144  2.5358  0.7860  3.4387
   63SAPC  C216 5060   5.313   6.273   8.133  0.3952 -0.3353  0.2797
   63SAPC  H16R 5061   5.360   6.373   8.151  1.3288 -0.9420  1.3179
   63SAPC  H16S 5062   5.381   6.219   8.065 -1.4711 -3.2448  0.5856
   63SAPC  C217 5063   5.319   6.207   8.272 -0.0315 -0.0141  0.3515
   63SAPC  H17R 5064   5.280   6.275   8.350 -1.7471  0.6278 -0.9858
   63SAPC  H17S 5065   5.427   6.205   8.295  0.1656  1.3483 -0.3762
   63SAPC  C218 5066   5.261   6.070   8.265  0.1184  0.0692 -0.4357
   63SAPC  H18R 5067   5.312   6.025   8.177 -0.2824 -0.5694 -0.3502
   63SAPC  H18S 5068   5.150   6.072   8.257  0.1871  0.7977 -1.3925
   63SAPC  C219 5069   5.305   5.984   8.383 -0.4307  0.1205 -0.2095
   63SAPC  H19R 5070   5.249   6.013   8.475  1.7996  1.0394  0.9155
   63SAPC  H19S 5071   5.415   5.992   8.387 -0.4753  0.3752  0.6003
   63SAPC  C220 5072   5.275   5.838   8.350 -0.0273 -0.5874 -0.3936
   63SAPC  H20R 5073   5.169   5.802   8.355 -0.8582  1.8468  1.7110
   63SAPC  H20S 5074   5.331   5.769   8.417 -0.7656  0.5523  1.4946
   63SAPC  H20T 5075   5.312   5.814   8.249  0.4049 -1.8312  0.0407
   63SAPC   C33 5076   5.931   6.647   6.922 -1.2533  0.1471  0.1799
   63SAPC   H3X 5077   5.977   6.559   6.972  1.2597  1.0699 -0.3672
   63SAPC   H3Y 5078   5.834   6.602   6.893 -1.9924 -0.6292  3.4204
   63SAPC   C34 5079   5.908   6.760   7.022  0.5719  0.5066 -0.2852
   63SAPC   H4X 5080   5.819   6.822   6.998 -0.0372  0.0192  0.6300
   63SAPC   H4Y 5081   5.996   6.828   7.024  0.7400  0.3272  2.4754
   63SAPC   C35 5082   5.892   6.711   7.167  0.2325 -0.0102  0.1432
   63SAPC   H5X 5083   5.982   6.648   7.181  1.1103  0.6534 -2.0437
   63SAPC   H5Y 5084   5.800   6.649   7.160 -0.5198  0.5619  3.3859
   63SAPC   C36 5085   5.887   6.819   7.275 -0.1167  0.1707  0.1122
   63SAPC   H6X 5086   5.795   6.880   7.263 -1.1906 -1.1258  1.4288
   63SAPC   H6Y 5087   5.975   6.885   7.257  0.4456 -0.0242  2.0111
   63SAPC   C37 5088   5.883   6.775   7.422 -0.6438 -0.3915 -0.2439
   63SAPC   H7X 5089   5.970   6.708   7.438 -0.0318  1.0139  2.9981
   63SAPC   H7Y 5090   5.803   6.699   7.433 -1.1696  0.2268  0.2501
   63SAPC   C38 5091   5.888   6.886   7.527  1.3078 -0.2688 -0.4708
   63SAPC   H8X 5092   5.804   6.959   7.521  1.1904  0.0642  3.2176
   63SAPC   H8Y 5093   5.973   6.952   7.502  0.0266  1.2613 -1.0026
   63SAPC   C39 5094   5.908   6.827   7.665 -0.2085  0.2074 -0.5418
   63SAPC   H9X 5095   5.944   6.919   7.716 -0.3748  0.2999 -0.5879
   63SAPC   H9Y 5096   5.990   6.753   7.669  0.8848  1.2097 -2.7188
   63SAPC  C310 5097   5.784   6.779   7.725 -0.1948 -0.4994  0.2800
   63SAPC  H10X 5098   5.749   6.702   7.653 -0.4485  0.4929 -0.7074
   63SAPC  H10Y 5099   5.705   6.858   7.724 -0.8096 -1.0884  1.2767
   63SAPC  C311 5100   5.806   6.705   7.857 -0.3429  0.2185 -0.1127
   63SAPC  H11X 5101   5.900   6.645   7.862  0.4285  1.4752  0.7706
   63SAPC  H11Y 5102   5.724   6.630   7.853  0.1714 -0.3092 -1.6447
   63SAPC  C312 5103   5.796   6.802   7.977  0.5133 -0.6216  0.5093
   63SAPC  H12X 5104   5.718   6.881   7.970  1.6628  0.5515  0.4909
   63SAPC  H12Y 5105   5.884   6.871   7.981 -1.1593  1.5522  2.7887
   63SAPC  C313 5106   5.785   6.725   8.113 -0.7793  0.0489  0.2466
   63SAPC  H13X 5107   5.873   6.659   8.129  1.3593  2.1723 -1.7520
   63SAPC  H13Y 5108   5.690   6.669   8.116 -0.4426 -0.5612  4.0225
   63SAPC  C314 5109   5.798   6.814   8.237 -0.3912 -0.6525  1.0953
   63SAPC  H14X 5110   5.771   6.756   8.328  0.6761 -0.1672  1.7430
   63SAPC  H14Y 5111   5.731   6.899   8.213  1.5679  0.5427 -0.4253
   63SAPC  C315 5112   5.936   6.879   8.257  0.0554  0.1913  0.1472
   63SAPC  H15X 5113   5.964   6.940   8.168  1.9969 -2.0160 -0.8568
   63SAPC  H15Y 5114   6.019   6.806   8.252  2.2851  2.5573  0.6669
   63SAPC  C316 5115   5.950   6.969   8.382 -0.3574 -0.0105  0.0609
   63SAPC  H16X 5116   5.886   6.931   8.465 -2.3533  2.4939 -0.1974
   63SAPC  H16Y 5117   5.902   7.066   8.355 -0.2423 -0.3748 -1.5647
   63SAPC  C317 5118   6.087   6.992   8.440  0.6070  0.1317  0.4492
   63SAPC  H17X 5119   6.142   7.056   8.367 -3.3278  3.4588  0.0252
   63SAPC  H17Y 5120   6.150   6.901   8.434  1.9514  1.0730 -0.5223
   63SAPC  C318 5121   6.102   7.064   8.567 -0.2158 -0.0696 -0.7871
   63SAPC  H18X 5122   6.033   7.027   8.646  0.9752 -1.3638 -0.3196
   63SAPC  H18Y 5123   6.074   7.169   8.541  0.5168  0.1339 -0.7817
   63SAPC  H18Z 5124   6.204   7.068   8.609  0.5360  1.1010 -2.6157
   64SAPC     N 5125   1.752   0.033   6.196  0.2848 -0.5430 -0.1362
   64SAPC   C12 5126   1.901   0.016   6.198 -0.4454 -0.2326  0.1431
   64SAPC  H12A 5127   1.937  -0.085   6.187  2.0728  0.6277 -0.1981
   64SAPC  H12B 5128   1.935   0.050   6.295 -0.8695 -2.4950  1.1273
   64SAPC   C13 5129   1.690  -0.062   6.291 -0.0055  0.0045 -0.3941
   64SAPC  H13A 5130   1.695  -0.034   6.396  0.9019 -2.0937  0.1648
   64SAPC  H13B 5131   1.586  -0.082   6.269  0.0166 -0.2658 -0.2560
   64SAPC  H13C 5132   1.746  -0.153   6.303  1.8724  1.2531  0.9480
   64SAPC   C14 5133   1.704   0.172   6.234 -0.7621  0.8061  0.1515
   64SAPC  H14A 5134   1.767   0.238   6.176  2.8988 -3.2685 -1.1308
   64SAPC  H14B 5135   1.599   0.188   6.216 -0.6322  1.9994  0.3643
   64SAPC  H14C 5136   1.717   0.196   6.339  2.1580 -0.9951  0.3439
   64SAPC   C15 5137   1.700   0.009   6.060  0.4349  0.1734 -0.4681
   64SAPC  H15A 5138   1.592   0.008   6.048  0.4050 -0.1717 -0.2112
   64SAPC  H15B 5139   1.746   0.082   5.996  1.4041 -2.1968 -2.6357
   64SAPC  H15C 5140   1.752  -0.081   6.030  0.6762 -0.6232  2.0489
   64SAPC   C11 5141   1.981   0.103   6.097  0.2908  0.1889  0.3268
   64SAPC  H11A 5142   1.944   0.082   5.994  0.5679 -0.7175  0.4010
   64SAPC  H11B 5143   2.088   0.073   6.096  0.2835  0.1571 -1.2883
   64SAPC     P 5144   2.093   0.338   6.121  0.1264  0.2550  0.0591
   64SAPC   O13 5145   2.188   0.315   6.009 -0.1938 -0.4008 -0.2036
   64SAPC   O14 5146   2.047   0.478   6.132 -0.2595 -0.5201  0.2284
   64SAPC   O12 5147   1.966   0.249   6.115  0.2719  0.1373 -0.6476
   64SAPC   O11 5148   2.157   0.304   6.259 -0.0305  0.7453 -1.0097
   64SAPC    C1 5149   2.255   0.396   6.318  0.3731  0.8375 -0.1670
   64SAPC    HA 5150   2.316   0.448   6.241  0.2872  1.1955  0.0025
   64SAPC    HB 5151   2.204   0.478   6.373 -0.3149 -0.4532  1.1984
   64SAPC    C2 5152   2.354   0.327   6.413  0.2491 -0.6105 -0.2791
   64SAPC    HS 5153   2.416   0.256   6.354  1.4723 -0.2662  0.5424
   64SAPC   O21 5154   2.283   0.260   6.517 -0.3754  0.4135  0.0448
   64SAPC   C21 5155   2.356   0.174   6.593  0.6848  0.3580  0.0607
   64SAPC   O22 5156   2.470   0.142   6.575 -0.4649  0.3471  0.7727
   64SAPC   C22 5157   2.253   0.115   6.693  0.0478 -0.8563 -0.2216
   64SAPC   H2R 5158   2.269   0.158   6.795 -1.3748 -0.3436 -0.1869
   64SAPC   H2S 5159   2.151   0.151   6.668  0.4896  1.5217  1.0783
   64SAPC    C3 5160   2.436   0.445   6.486  0.9219  0.3375  0.7763
   64SAPC    HX 5161   2.483   0.507   6.407  2.8514  0.9178  2.3183
   64SAPC    HY 5162   2.518   0.402   6.548  2.1012  0.2478 -0.8053
   64SAPC   O31 5163   2.344   0.527   6.563  1.0302  0.5740  0.1191
   64SAPC   C31 5164   2.336   0.505   6.694  0.2646 -0.0566  0.2728
   64SAPC   O32 5165   2.407   0.429   6.759  0.6167 -0.1003 -0.4057
   64SAPC   C32 5166   2.206   0.569   6.745 -0.0963 -0.3386  0.1772
   64SAPC   H2X 5167   2.126   0.502   6.708  1.8635 -1.8321 -1.6299
   64SAPC   H2Y 5168   2.204   0.670   6.699  1.2641 -0.1376  0.4973
   64SAPC   C23 5169   2.258  -0.035   6.709 -0.2645  0.1706 -0.1108
   64SAPC   H3R 5170   2.342  -0.086   6.759 -1.4992 -0.8212  1.0262
   64SAPC   H3S 5171   2.241  -0.089   6.613  0.5657 -1.5455  0.6767
   64SAPC   C24 5172   2.130  -0.076   6.801  0.2795  0.2693  0.1941
   64SAPC   H4R 5173   2.040  -0.037   6.748 -0.1305 -0.7755  0.1112
   64SAPC   H4S 5174   2.140  -0.020   6.897  3.7430  0.2883 -0.0418
   64SAPC   C25 5175   2.110  -0.225   6.827  0.9492 -0.5865 -0.2889
   64SAPC   H5R 5176   2.088  -0.272   6.729 -1.6800 -0.9148  0.3633
   64SAPC   C26 5177   2.121  -0.286   6.949 -0.3168  0.0753  0.4318
   64SAPC   H6R 5178   2.088  -0.391   6.956  0.2123 -0.2943 -1.8142
   64SAPC   C27 5179   2.150  -0.230   7.088  0.4316 -0.6122  0.8186
   64SAPC   H7R 5180   2.104  -0.296   7.165  0.8923 -0.2473  1.4171
   64SAPC   H7S 5181   2.082  -0.142   7.089  1.2572  0.1916 -2.4329
   64SAPC   C28 5182   2.288  -0.184   7.127  0.4144 -0.0088  0.2402
   64SAPC   H8R 5183   2.344  -0.125   7.052 -0.4617 -0.4622 -0.8016
   64SAPC   C29 5184   2.353  -0.224   7.236  0.9783 -0.3784 -0.5133
   64SAPC   H9R 5185   2.451  -0.181   7.261 -0.0316  1.1167  1.1199
   64SAPC  C210 5186   2.296  -0.312   7.345 -0.2608  0.9439  0.2900
   64SAPC  H10R 5187   2.313  -0.416   7.307  3.5068  1.9723 -1.3421
   64SAPC  H10S 5188   2.187  -0.293   7.348 -0.2559  1.1133 -0.3931
   64SAPC  C211 5189   2.375  -0.293   7.473  0.1286 -0.0512  0.0150
   64SAPC  H11R 5190   2.484  -0.287   7.460  0.2444  0.1614  1.0187
   64SAPC  C212 5191   2.322  -0.300   7.596  0.4219 -0.2107 -0.0958
   64SAPC  H12R 5192   2.394  -0.281   7.677  1.3581  0.3784 -1.0459
   64SAPC  C213 5193   2.183  -0.328   7.644 -0.1578  0.0598  0.4142
   64SAPC  H13R 5194   2.183  -0.415   7.713  0.5879 -1.3072 -1.2427
   64SAPC  H13S 5195   2.116  -0.360   7.562  0.2319 -1.0493  0.5187
   64SAPC  C214 5196   2.135  -0.206   7.730 -0.5709  0.0683  0.1763
   64SAPC  H14R 5197   2.073  -0.135   7.671 -0.7872 -0.3599 -0.1184
   64SAPC  C215 5198   2.168  -0.173   7.859 -0.1478 -0.1795 -0.0889
   64SAPC  H15R 5199   2.123  -0.082   7.901 -0.4056  0.2498 -1.2486
   64SAPC  C216 5200   2.269  -0.246   7.942  0.6568  0.2276  0.3079
   64SAPC  H16R 5201   2.356  -0.179   7.958  0.5636  0.4206  0.0237
   64SAPC  H16S 5202   2.310  -0.336   7.893  1.6767  1.3293 -0.9585
   64SAPC  C217 5203   2.197  -0.277   8.071 -0.3131 -0.2747  0.1276
   64SAPC  H17R 5204   2.116  -0.347   8.042  2.2355 -2.9416 -1.0753
   64SAPC  H17S 5205   2.156  -0.188   8.125  1.8259  0.5194  0.5584
   64SAPC  C218 5206   2.287  -0.358   8.164  1.2339  0.1733  0.7119
   64SAPC  H18R 5207   2.314  -0.449   8.106  0.0378  0.6476 -0.6352
   64SAPC  H18S 5208   2.219  -0.382   8.248 -1.2269  0.0245 -1.2226
   64SAPC  C219 5209   2.418  -0.289   8.202 -0.2054  0.6382 -0.0064
   64SAPC  H19R 5210   2.478  -0.270   8.111  0.4001  0.7709  0.4107
   64SAPC  H19S 5211   2.475  -0.367   8.258  0.7405 -0.4295 -2.3571
   64SAPC  C220 5212   2.413  -0.156   8.270  0.1124  0.2662  0.6729
   64SAPC  H20R 5213   2.518  -0.136   8.302 -0.4954  1.1971  2.2249
   64SAPC  H20S 5214   2.347  -0.166   8.359  0.3474 -0.4354  0.7756
   64SAPC  H20T 5215   2.383  -0.065   8.215  1.6009 -0.3765 -1.2937
   64SAPC   C33 5216   2.209   0.579   6.904  0.0011  0.9024 -0.3968
   64SAPC   H3X 5217   2.313   0.593   6.940  1.0045 -0.6092 -2.4930
   64SAPC   H3Y 5218   2.172   0.479   6.936  3.2203  0.0671  1.0983
   64SAPC   C34 5219   2.111   0.684   6.956  0.0125 -0.2131  0.4176
   64SAPC   H4X 5220   2.008   0.641   6.959  0.3997 -1.1849  0.2011
   64SAPC   H4Y 5221   2.127   0.771   6.889 -1.1018 -0.4191 -0.1378
   64SAPC   C35 5222   2.140   0.743   7.091 -1.1020 -0.2914  0.1002
   64SAPC   H5X 5223   2.076   0.833   7.099  0.3776  0.7150  1.0802
   64SAPC   H5Y 5224   2.246   0.778   7.094 -0.6558 -1.5954  1.7540
   64SAPC   C36 5225   2.109   0.649   7.209  0.2090  0.0034  0.6256
   64SAPC   H6X 5226   2.143   0.545   7.184  2.1420  1.2512 -2.6927
   64SAPC   H6Y 5227   1.999   0.644   7.224 -0.0536  1.9838 -0.3753
   64SAPC   C37 5228   2.174   0.707   7.335 -0.2887  0.1205 -0.0299
   64SAPC   H7X 5229   2.172   0.817   7.325 -0.1583  0.0895 -0.4026
   64SAPC   H7Y 5230   2.282   0.679   7.339  0.7605  3.4567 -1.6742
   64SAPC   C38 5231   2.090   0.659   7.457  0.2608 -0.5913  0.3113
   64SAPC   H8X 5232   2.085   0.548   7.454  0.6034 -0.6802  2.2817
   64SAPC   H8Y 5233   1.992   0.709   7.441  0.3321 -0.9108 -1.3054
   64SAPC   C39 5234   2.160   0.684   7.588 -0.0585  0.2766 -0.0135
   64SAPC   H9X 5235   2.197   0.788   7.579 -3.2814  1.6964  1.6481
   64SAPC   H9Y 5236   2.246   0.617   7.610 -1.2422 -2.2723 -2.5077
   64SAPC  C310 5237   2.063   0.670   7.701 -0.0596  0.0365 -0.2303
   64SAPC  H10X 5238   2.045   0.562   7.721  1.4678 -0.5669 -1.8378
   64SAPC  H10Y 5239   1.969   0.722   7.672 -0.0686  0.8444  1.1425
   64SAPC  C311 5240   2.109   0.732   7.837  0.1200 -0.1540  0.5388
   64SAPC  H11X 5241   2.089   0.841   7.829 -1.7099 -0.4763  0.2558
   64SAPC  H11Y 5242   2.214   0.704   7.859 -0.2641 -2.7082 -0.4959
   64SAPC  C312 5243   2.017   0.699   7.954 -0.5329  0.5123  0.0308
   64SAPC  H12X 5244   1.981   0.598   7.929  1.2357  0.2313 -1.6888
   64SAPC  H12Y 5245   1.932   0.770   7.953  0.1954  1.4200  0.4006
   64SAPC  C313 5246   2.091   0.702   8.089  0.4460 -0.1683  0.2943
   64SAPC  H13X 5247   2.118   0.804   8.121 -1.3957  0.0063  1.3695
   64SAPC  H13Y 5248   2.182   0.637   8.081  0.2752 -0.2882 -0.9606
   64SAPC  C314 5249   2.004   0.644   8.207  0.7726 -0.3702 -0.0141
   64SAPC  H14X 5250   2.075   0.617   8.288  0.1161 -1.7278  0.1476
   64SAPC  H14Y 5251   1.959   0.549   8.171  1.7026 -0.2897 -1.4451
   64SAPC  C315 5252   1.904   0.744   8.258  0.6646 -0.2520  0.3634
   64SAPC  H15X 5253   1.830   0.691   8.323 -0.6956  1.6710  0.4801
   64SAPC  H15Y 5254   1.853   0.789   8.170  3.4671  0.6460 -0.8952
   64SAPC  C316 5255   1.967   0.858   8.336 -0.7743  0.0658  0.3492
   64SAPC  H16X 5256   1.950   0.954   8.283 -1.0879 -0.7627 -1.1171
   64SAPC  H16Y 5257   2.077   0.850   8.351 -0.8099  1.0513  1.2494
   64SAPC  C317 5258   1.899   0.863   8.471 -0.0612 -0.5045 -0.2952
   64SAPC  H17X 5259   1.900   0.763   8.519 -3.7244 -0.8971 -0.7500
   64SAPC  H17Y 5260   1.795   0.898   8.455  0.6493  1.4733 -0.9824
   64SAPC  C318 5261   1.968   0.959   8.561  0.8442 -0.4748  0.8690
   64SAPC  H18X 5262   2.075   0.930   8.558  0.0111 -3.9714  0.9475
   64SAPC  H18Y 5263   1.923   0.965   8.662 -1.4471 -0.0702 -0.0874
   64SAPC  H18Z 5264   1.947   1.055   8.508 -2.2720  0.8197  4.0472
   65SAPC     N 5265   2.461   1.295   5.569  1.0901  0.3434  1.0127
   65SAPC   C12 5266   2.404   1.222   5.690  0.2811  0.4058  0.2436
   65SAPC  H12A 5267   2.484   1.159   5.724  0.3887  0.4902  0.1467
   65SAPC  H12B 5268   2.330   1.148   5.660  2.0618 -1.1264 -0.5744
   65SAPC   C13 5269   2.577   1.370   5.618 -0.7462  0.6712  0.5928
   65SAPC  H13A 5270   2.549   1.452   5.682 -1.6333 -0.1401  1.2667
   65SAPC  H13B 5271   2.643   1.312   5.680  1.2668  1.4448 -0.7022
   65SAPC  H13C 5272   2.641   1.402   5.537 -0.7703  0.9822  0.6946
   65SAPC   C14 5273   2.518   1.204   5.466  0.2100  0.6598  0.3246
   65SAPC  H14A 5274   2.582   1.125   5.503 -1.8553 -0.6407  1.2950
   65SAPC  H14B 5275   2.446   1.164   5.396  0.5450 -1.0021  0.8775
   65SAPC  H14C 5276   2.581   1.254   5.393 -2.1219  2.0879 -0.8341
   65SAPC   C15 5277   2.363   1.388   5.503 -0.2348 -0.0258  0.3231
   65SAPC  H15A 5278   2.354   1.480   5.559 -0.1200  0.0816  0.1656
   65SAPC  H15B 5279   2.408   1.426   5.412  0.9751  1.2468  1.3967
   65SAPC  H15C 5280   2.269   1.341   5.479  0.8636 -1.9074 -0.5705
   65SAPC   C11 5281   2.352   1.308   5.812 -0.2127 -0.6294  0.0521
   65SAPC  H11A 5282   2.294   1.247   5.885 -1.6767  0.6316 -0.0065
   65SAPC  H11B 5283   2.287   1.389   5.775  1.2773  0.7413  0.3301
   65SAPC     P 5284   2.558   1.307   5.983  0.0979 -0.1342 -0.0988
   65SAPC   O13 5285   2.637   1.213   5.908 -0.7396  0.5863  0.4957
   65SAPC   O14 5286   2.623   1.420   6.057  0.3555 -0.1994 -0.2556
   65SAPC   O12 5287   2.458   1.375   5.877  0.2481 -0.5114 -0.6141
   65SAPC   O11 5288   2.453   1.233   6.083 -0.1538 -0.4431  0.1963
   65SAPC    C1 5289   2.373   1.309   6.181  0.1472  1.4177 -0.1171
   65SAPC    HA 5290   2.429   1.394   6.226  1.6240  0.1311  0.5698
   65SAPC    HB 5291   2.295   1.356   6.116 -0.8287 -0.5666 -0.4407
   65SAPC    C2 5292   2.300   1.213   6.280 -0.5416  0.2897  0.1424
   65SAPC    HS 5293   2.212   1.271   6.316 -0.4679 -0.5707  1.8332
   65SAPC   O21 5294   2.379   1.179   6.397  0.1103  0.2509 -0.0367
   65SAPC   C21 5295   2.387   1.272   6.485 -0.2838 -0.2744 -0.2355
   65SAPC   O22 5296   2.334   1.381   6.483  0.0739 -0.3505 -1.4591
   65SAPC   C22 5297   2.479   1.226   6.597  0.6026  0.3192  0.0820
   65SAPC   H2R 5298   2.435   1.133   6.640 -1.6670  1.7118  0.8940
   65SAPC   H2S 5299   2.580   1.207   6.555  0.2151 -1.9009  0.0168
   65SAPC    C3 5300   2.229   1.093   6.219  0.0308  0.1339 -0.3046
   65SAPC    HX 5301   2.296   1.046   6.143 -0.6277  0.9771 -1.4438
   65SAPC    HY 5302   2.145   1.134   6.158  0.3732 -0.0136 -0.8870
   65SAPC   O31 5303   2.193   0.984   6.315 -0.6674  0.3804  0.4681
   65SAPC   C31 5304   2.083   1.006   6.380 -0.0690  0.4284  0.6996
   65SAPC   O32 5305   2.003   1.091   6.355  0.1877  0.0682  0.1921
   65SAPC   C32 5306   2.082   0.917   6.502 -0.5066  0.1963  0.4041
   65SAPC   H2X 5307   2.126   0.822   6.464  1.2289 -0.7475  4.2900
   65SAPC   H2Y 5308   1.977   0.895   6.534 -1.5135  1.1235 -1.9808
   65SAPC   C23 5309   2.504   1.333   6.710  0.3790 -0.0072  0.2815
   65SAPC   H3R 5310   2.429   1.335   6.792  1.0387  2.6482  0.9093
   65SAPC   H3S 5311   2.488   1.436   6.673 -0.6498 -0.6065 -1.0309
   65SAPC   C24 5312   2.645   1.316   6.769  0.4568  1.1937 -0.7903
   65SAPC   H4R 5313   2.709   1.330   6.679  0.2660  1.5220 -0.8775
   65SAPC   H4S 5314   2.643   1.210   6.802 -1.4576  1.6410  0.7486
   65SAPC   C25 5315   2.671   1.418   6.882  0.6450 -0.2320  0.0896
   65SAPC   H5R 5316   2.696   1.520   6.852 -1.4602  0.5362  0.7300
   65SAPC   C26 5317   2.685   1.394   7.013 -0.2493 -0.9402 -0.1778
   65SAPC   H6R 5318   2.700   1.482   7.078  0.6556  1.2930 -3.2257
   65SAPC   C27 5319   2.666   1.261   7.084 -0.4819 -0.0451  0.3150
   65SAPC   H7R 5320   2.575   1.210   7.047 -0.7678  0.4109  0.3874
   65SAPC   H7S 5321   2.648   1.276   7.193  1.0856  2.7151  0.2797
   65SAPC   C28 5322   2.788   1.173   7.060  0.1367  0.2914  0.2654
   65SAPC   H8R 5323   2.812   1.152   6.954  0.9388 -0.6959  0.6286
   65SAPC   C29 5324   2.874   1.126   7.151 -0.4740  0.1425 -0.3179
   65SAPC   H9R 5325   2.959   1.068   7.113  0.9832  0.0581  2.7461
   65SAPC  C210 5326   2.869   1.149   7.302  0.2268 -0.9771  0.2452
   65SAPC  H10R 5327   2.768   1.183   7.334  0.7355  0.5430  0.2615
   65SAPC  H10S 5328   2.935   1.231   7.336 -0.8069 -1.3158  3.3747
   65SAPC  C211 5329   2.903   1.019   7.382 -0.2611 -0.5923 -0.0101
   65SAPC  H11R 5330   2.907   0.924   7.327  0.9162 -0.1537 -0.7456
   65SAPC  C212 5331   2.942   1.021   7.509 -0.0271 -0.3659 -0.2878
   65SAPC  H12R 5332   2.964   0.924   7.556  2.3327  0.4139  0.3654
   65SAPC  C213 5333   2.940   1.138   7.596 -0.3002  0.4741  0.2521
   65SAPC  H13R 5334   2.959   1.229   7.536 -0.3071 -0.9793 -2.0577
   65SAPC  H13S 5335   3.026   1.131   7.666  2.0304  1.8514 -2.2875
   65SAPC  C214 5336   2.815   1.146   7.675  0.3475  0.5080 -0.8703
   65SAPC  H14R 5337   2.734   1.193   7.618  0.1119 -1.9081 -2.7072
   65SAPC  C215 5338   2.798   1.128   7.807 -0.5787  0.2955 -0.2341
   65SAPC  H15R 5339   2.697   1.118   7.848 -0.3714 -2.9813 -0.2394
   65SAPC  C216 5340   2.902   1.093   7.912 -0.2443 -0.2471  0.6579
   65SAPC  H16R 5341   2.978   1.028   7.863 -0.6132 -1.1009  1.2011
   65SAPC  H16S 5342   2.868   1.025   7.992 -0.8226 -0.8438 -0.0833
   65SAPC  C217 5343   2.967   1.220   7.966 -0.0376  0.2983  0.2957
   65SAPC  H17R 5344   2.883   1.276   8.014 -1.3390 -0.7985 -0.6267
   65SAPC  H17S 5345   3.001   1.277   7.877  1.4470 -4.1189 -2.2777
   65SAPC  C218 5346   3.086   1.192   8.059  0.2110 -0.1277 -0.2163
   65SAPC  H18R 5347   3.171   1.159   7.996  2.1390  2.2651  0.9295
   65SAPC  H18S 5348   3.048   1.110   8.124 -0.0806 -1.5259 -2.0705
   65SAPC  C219 5349   3.135   1.309   8.140  0.5836 -0.1767  0.1731
   65SAPC  H19R 5350   3.197   1.282   8.228 -1.2992  0.4736  1.7956
   65SAPC  H19S 5351   3.046   1.351   8.193  0.5708  0.0529 -0.0268
   65SAPC  C220 5352   3.204   1.416   8.067  0.0562 -0.5052 -0.5146
   65SAPC  H20R 5353   3.213   1.509   8.126 -2.4650  1.2180 -2.6199
   65SAPC  H20S 5354   3.155   1.444   7.972 -1.4328  1.1073  0.6694
   65SAPC  H20T 5355   3.311   1.391   8.046  0.9728  2.7984 -0.3241
   65SAPC   C33 5356   2.159   0.972   6.619 -0.9856 -0.0847  0.4441
   65SAPC   H3X 5357   2.257   1.006   6.580  0.6322 -1.7140  2.8505
   65SAPC   H3Y 5358   2.179   0.888   6.687 -0.6303  0.6056  1.2105
   65SAPC   C34 5359   2.090   1.090   6.690  0.0161  0.1701  0.2783
   65SAPC   H4X 5360   1.981   1.077   6.707  0.0671  0.9925  1.3257
   65SAPC   H4Y 5361   2.104   1.176   6.622 -0.8195  0.8313  0.9339
   65SAPC   C35 5362   2.163   1.105   6.822  0.0370 -0.2086  0.6364
   65SAPC   H5X 5363   2.270   1.077   6.810  1.0152  2.2399  2.6871
   65SAPC   H5Y 5364   2.119   1.035   6.895 -0.3593  1.1056  1.7012
   65SAPC   C36 5365   2.176   1.247   6.871  0.5989 -0.2763 -0.3928
   65SAPC   H6X 5366   2.078   1.297   6.888  1.2569  1.3994 -1.2141
   65SAPC   H6Y 5367   2.229   1.299   6.788 -0.7304  1.5421 -0.1746
   65SAPC   C37 5368   2.259   1.256   7.000 -1.0840  0.1231 -0.0889
   65SAPC   H7X 5369   2.296   1.359   7.017 -1.1545  0.0002  0.8570
   65SAPC   H7Y 5370   2.357   1.207   6.985 -0.8501  1.2972 -3.0960
   65SAPC   C38 5371   2.176   1.213   7.123 -0.7251 -0.3036  0.4282
   65SAPC   H8X 5372   2.150   1.105   7.121  1.6284 -0.9326 -0.8247
   65SAPC   H8Y 5373   2.087   1.279   7.124  0.6197  1.5948  1.5989
   65SAPC   C39 5374   2.249   1.232   7.257 -0.2322 -0.2393 -0.0185
   65SAPC   H9X 5375   2.276   1.339   7.271 -1.2674  0.0843 -0.4229
   65SAPC   H9Y 5376   2.338   1.165   7.259 -0.0333  0.0274  0.3221
   65SAPC  C310 5377   2.167   1.193   7.371 -0.6638  0.2333  0.0396
   65SAPC  H10X 5378   2.150   1.083   7.372 -0.1650  0.1137  2.7037
   65SAPC  H10Y 5379   2.066   1.239   7.371 -0.4073  0.8862 -1.5890
   65SAPC  C311 5380   2.240   1.235   7.501  0.3324  0.2168  0.2301
   65SAPC  H11X 5381   2.238   1.345   7.508 -0.8658  0.3500 -1.6361
   65SAPC  H11Y 5382   2.345   1.200   7.492 -0.2271 -2.1511  1.8103
   65SAPC  C312 5383   2.170   1.170   7.624 -0.3770 -0.0592  0.1431
   65SAPC  H12X 5384   2.185   1.061   7.610 -0.9865  0.0286 -1.2957
   65SAPC  H12Y 5385   2.063   1.201   7.625 -0.3896 -0.0325 -0.9536
   65SAPC  C313 5386   2.233   1.215   7.760 -1.3486  0.3523  0.9179
   65SAPC  H13X 5387   2.252   1.324   7.768  1.3440 -0.0944  1.5971
   65SAPC  H13Y 5388   2.334   1.171   7.777 -1.1314 -0.1611 -1.3974
   65SAPC  C314 5389   2.150   1.170   7.879  1.0886  0.2642  0.4932
   65SAPC  H14X 5390   2.136   1.060   7.882 -0.5059  0.4531  2.4035
   65SAPC  H14Y 5391   2.046   1.208   7.865  0.6337 -0.4587  1.7229
   65SAPC  C315 5392   2.200   1.218   8.016 -0.5621 -0.2059  0.3772
   65SAPC  H15X 5393   2.203   1.327   8.034 -0.6771 -0.1146 -0.1435
   65SAPC  H15Y 5394   2.305   1.180   8.026 -0.3700  0.4132  0.7531
   65SAPC  C316 5395   2.133   1.146   8.132  0.5585 -0.4634  0.4082
   65SAPC  H16X 5396   2.125   1.035   8.135 -0.4224 -0.4480 -0.7512
   65SAPC  H16Y 5397   2.028   1.176   8.109  1.2643  0.0665 -2.5372
   65SAPC  C317 5398   2.164   1.204   8.275 -0.0613 -0.5272 -0.1644
   65SAPC  H17X 5399   2.079   1.182   8.344 -0.3251 -1.6942 -0.8353
   65SAPC  H17Y 5400   2.185   1.313   8.272  0.5980 -0.6580 -0.6475
   65SAPC  C318 5401   2.270   1.129   8.344  0.8272 -0.6379  0.6398
   65SAPC  H18X 5402   2.246   1.020   8.343 -1.2700 -0.2168  0.7116
   65SAPC  H18Y 5403   2.275   1.158   8.451  0.7975  2.1005 -0.0382
   65SAPC  H18Z 5404   2.369   1.144   8.297  0.0604 -1.0346 -1.2168
   66SAPC     N 5405   0.542   1.037   6.017  1.1495  0.1685 -0.1503
   66SAPC   C12 5406   0.601   0.980   6.150  0.3792  0.3978  0.6837
   66SAPC  H12A 5407   0.649   0.889   6.118  0.9929  0.1572  2.1993
   66SAPC  H12B 5408   0.516   0.958   6.213  0.0269 -0.2225 -0.0054
   66SAPC   C13 5409   0.649   1.080   5.926 -0.4742 -0.0828  0.0564
   66SAPC  H13A 5410   0.696   0.992   5.885 -1.3177 -0.6036  0.1598
   66SAPC  H13B 5411   0.618   1.149   5.848 -1.8046 -0.3475  0.3201
   66SAPC  H13C 5412   0.730   1.119   5.986 -1.6380 -0.9706  2.3346
   66SAPC   C14 5413   0.458   0.937   5.952  0.0615  0.7788 -0.1592
   66SAPC  H14A 5414   0.524   0.868   5.900  1.7959 -0.0470  2.8924
   66SAPC  H14B 5415   0.393   0.883   6.020  0.7428  2.0233  1.5608
   66SAPC  H14C 5416   0.392   0.985   5.881 -0.2040  1.5888  0.6242
   66SAPC   C15 5417   0.462   1.160   6.051  0.0813  0.6565 -0.3852
   66SAPC  H15A 5418   0.526   1.227   6.107 -0.2243  0.0449  0.7355
   66SAPC  H15B 5419   0.440   1.214   5.961 -0.8088  1.2821  0.1956
   66SAPC  H15C 5420   0.375   1.134   6.110 -0.2969  1.3800 -0.6238
   66SAPC   C11 5421   0.704   1.060   6.228  0.2148 -0.0161  0.4965
   66SAPC  H11A 5422   0.709   1.027   6.334  0.1832 -1.6997 -0.0012
   66SAPC  H11B 5423   0.680   1.167   6.246  3.1067  0.8391 -0.3260
   66SAPC     P 5424   0.945   0.945   6.191 -0.5940 -0.1163 -0.0854
   66SAPC   O13 5425   0.889   0.813   6.167 -0.0825 -0.0281  0.5528
   66SAPC   O14 5426   1.075   0.978   6.122 -0.1192 -0.3800 -0.1847
   66SAPC   O12 5427   0.833   1.052   6.165  0.5604 -0.4923 -0.0732
   66SAPC   O11 5428   0.962   0.963   6.344  0.0926  0.0538 -0.0874
   66SAPC    C1 5429   1.050   1.067   6.399 -0.2859  0.3667 -0.8804
   66SAPC    HA 5430   1.158   1.045   6.390 -0.3823 -2.2095  2.4865
   66SAPC    HB 5431   1.039   1.165   6.348 -0.1178 -0.5188 -2.6978
   66SAPC    C2 5432   1.014   1.088   6.548  0.1582 -0.3088  0.3863
   66SAPC    HS 5433   1.079   1.169   6.587  0.5919  0.5947 -2.0582
   66SAPC   O21 5434   1.024   0.966   6.627  0.0537 -0.0326 -0.0482
   66SAPC   C21 5435   1.146   0.921   6.649 -0.4421  0.3674  0.7364
   66SAPC   O22 5436   1.249   0.969   6.602  0.2293  0.5398 -0.4679
   66SAPC   C22 5437   1.146   0.791   6.722  0.5289  0.0182  0.0211
   66SAPC   H2R 5438   1.056   0.734   6.689  1.2088  0.2255 -2.3709
   66SAPC   H2S 5439   1.233   0.732   6.688  0.6463  0.8315 -1.1489
   66SAPC    C3 5440   0.866   1.146   6.558 -0.4379  0.8832 -0.5817
   66SAPC    HX 5441   0.793   1.071   6.522  1.6031 -2.1489  1.1241
   66SAPC    HY 5442   0.849   1.239   6.499  0.7163  1.3343 -0.2357
   66SAPC   O31 5443   0.827   1.162   6.698 -0.4844  0.5531 -0.6858
   66SAPC   C31 5444   0.861   1.275   6.750  0.0901 -0.1741  1.0921
   66SAPC   O32 5445   0.940   1.356   6.698  0.3578 -0.3231  0.0917
   66SAPC   C32 5446   0.774   1.307   6.882  0.3728  0.3233  0.4603
   66SAPC   H2X 5447   0.686   1.239   6.881  0.3170  0.3828 -1.0750
   66SAPC   H2Y 5448   0.727   1.405   6.861 -2.7604 -1.5736 -2.5988
   66SAPC   C23 5449   1.143   0.822   6.876  0.0359  0.6717  0.8324
   66SAPC   H3R 5450   1.112   0.729   6.929  0.5083  1.1320  1.9472
   66SAPC   H3S 5451   1.060   0.892   6.899 -1.6980  0.2124 -3.1272
   66SAPC   C24 5452   1.284   0.855   6.932  1.0906  0.2097  0.4956
   66SAPC   H4R 5453   1.257   0.866   7.039 -0.2706  0.0785  0.1813
   66SAPC   H4S 5454   1.310   0.957   6.896  0.7303  0.8175  1.9189
   66SAPC   C25 5455   1.387   0.744   6.920  0.5606 -1.1878  1.0584
   66SAPC   H5R 5456   1.403   0.723   6.814 -0.6499  0.8927  0.4061
   66SAPC   C26 5457   1.441   0.663   7.017  0.1174  0.4099 -0.1375
   66SAPC   H6R 5458   1.505   0.584   6.977 -2.3307 -1.2691 -0.9557
   66SAPC   C27 5459   1.405   0.661   7.160  0.9247  0.1424 -0.2123
   66SAPC   H7R 5460   1.296   0.673   7.178  1.2343 -0.0052  2.0217
   66SAPC   H7S 5461   1.449   0.745   7.218 -0.6177  0.8259  0.0349
   66SAPC   C28 5462   1.448   0.531   7.221  0.5000  0.5703 -0.3780
   66SAPC   H8R 5463   1.410   0.434   7.187  0.6958 -1.0562  3.5620
   66SAPC   C29 5464   1.556   0.511   7.300 -0.1909 -0.0445 -1.2179
   66SAPC   H9R 5465   1.581   0.409   7.333 -0.2587  0.2603 -0.1871
   66SAPC  C210 5466   1.652   0.613   7.340  0.1192 -0.0168 -0.2020
   66SAPC  H10R 5467   1.602   0.711   7.356 -0.3925 -0.6125  2.2274
   66SAPC  H10S 5468   1.715   0.626   7.249 -0.6491 -0.7337 -0.8501
   66SAPC  C211 5469   1.732   0.568   7.460 -0.3414  0.3889  0.5448
   66SAPC  H11R 5470   1.835   0.549   7.427 -0.8841 -4.2690  0.9158
   66SAPC  C212 5471   1.693   0.544   7.587  0.0196  0.5431 -0.8117
   66SAPC  H12R 5472   1.766   0.513   7.663 -0.4839 -1.9896 -1.2613
   66SAPC  C213 5473   1.551   0.555   7.632  0.3478  0.2281 -0.2304
   66SAPC  H13R 5474   1.478   0.568   7.550  0.8620 -0.0273 -0.7305
   66SAPC  H13S 5475   1.527   0.646   7.691 -2.6178 -0.4826 -0.1793
   66SAPC  C214 5476   1.511   0.441   7.722 -0.5643  0.7584  0.5173
   66SAPC  H14R 5477   1.486   0.347   7.670  1.2268 -0.1826  1.2686
   66SAPC  C215 5478   1.511   0.445   7.858  0.7355 -0.5085 -0.3866
   66SAPC  H15R 5479   1.474   0.356   7.911 -2.8894  0.4479 -1.0440
   66SAPC  C216 5480   1.552   0.555   7.951  0.1412 -0.4723 -0.9412
   66SAPC  H16R 5481   1.468   0.604   8.004 -1.0589 -2.0763 -1.2561
   66SAPC  H16S 5482   1.591   0.643   7.896  1.2976  0.5521  1.3905
   66SAPC  C217 5483   1.656   0.508   8.049  0.2815  0.0702  0.1250
   66SAPC  H17R 5484   1.714   0.595   8.087  1.7356 -1.1288  0.7775
   66SAPC  H17S 5485   1.734   0.440   8.009 -0.3212  0.2911 -1.4987
   66SAPC  C218 5486   1.596   0.427   8.170 -0.0181 -0.2032 -0.5976
   66SAPC  H18R 5487   1.543   0.334   8.140 -1.0450  0.5711 -1.2760
   66SAPC  H18S 5488   1.513   0.486   8.214 -0.4540  0.1677 -1.8602
   66SAPC  C219 5489   1.701   0.394   8.275  0.9312  0.2319 -0.3947
   66SAPC  H19R 5490   1.714   0.488   8.333  1.3550  0.2951 -0.5912
   66SAPC  H19S 5491   1.798   0.368   8.228  1.0475 -0.4613  0.2029
   66SAPC  C220 5492   1.664   0.285   8.375  0.1450  0.2774  0.1720
   66SAPC  H20R 5493   1.736   0.267   8.457 -0.5434 -1.6784  0.3847
   66SAPC  H20S 5494   1.640   0.189   8.324 -1.2891  0.0686  1.1819
   66SAPC  H20T 5495   1.569   0.317   8.424 -1.3057 -2.1743 -0.8317
   66SAPC   C33 5496   0.858   1.292   7.006 -0.6041  0.0701 -0.0792
   66SAPC   H3X 5497   0.796   1.353   7.076 -1.9371 -0.1405 -1.0311
   66SAPC   H3Y 5498   0.956   1.345   7.001  0.2384 -1.4470 -0.3256
   66SAPC   C34 5499   0.870   1.157   7.063  0.1883  0.0421  0.2784
   66SAPC   H4X 5500   0.951   1.104   7.008 -0.1576 -0.7155  0.4921
   66SAPC   H4Y 5501   0.775   1.105   7.037  0.8257  0.1125 -2.5940
   66SAPC   C35 5502   0.902   1.168   7.216  0.1341  0.0202  0.5311
   66SAPC   H5X 5503   0.818   1.214   7.272 -0.4630 -0.9568  0.4556
   66SAPC   H5Y 5504   0.998   1.221   7.237  0.1033 -0.2945  1.5198
   66SAPC   C36 5505   0.918   1.030   7.290 -0.4147  0.0604  0.2613
   66SAPC   H6X 5506   0.827   0.971   7.269  0.2221 -0.6573 -0.5660
   66SAPC   H6Y 5507   0.936   1.064   7.395  2.4813 -0.6516  0.0725
   66SAPC   C37 5508   1.039   0.942   7.251 -0.0956  0.2394  0.2927
   66SAPC   H7X 5509   1.107   1.001   7.187  1.6208 -2.0330 -0.1117
   66SAPC   H7Y 5510   1.000   0.874   7.172  0.5886  1.7054 -1.3743
   66SAPC   C38 5511   1.103   0.857   7.362  0.0083  0.2002 -0.3765
   66SAPC   H8X 5512   1.116   0.754   7.322 -0.2149  0.7437 -1.9044
   66SAPC   H8Y 5513   1.031   0.832   7.443 -1.2164  0.9598 -1.1980
   66SAPC   C39 5514   1.237   0.912   7.417 -0.9185 -0.0194 -0.1098
   66SAPC   H9X 5515   1.226   0.999   7.486  0.0764 -0.2804  0.3866
   66SAPC   H9Y 5516   1.309   0.929   7.334 -0.0193 -1.6687  0.2941
   66SAPC  C310 5517   1.303   0.810   7.513  0.3202  0.4159  0.7045
   66SAPC  H10X 5518   1.405   0.844   7.543 -0.3039  0.6424  2.7073
   66SAPC  H10Y 5519   1.298   0.716   7.453  4.4871 -0.7934  1.8963
   66SAPC  C311 5520   1.231   0.784   7.637  0.2890 -0.2095 -1.0408
   66SAPC  H11X 5521   1.251   0.682   7.674 -3.4885 -0.2186  1.5469
   66SAPC  H11Y 5522   1.122   0.768   7.628  0.5083 -1.9172 -0.9196
   66SAPC  C312 5523   1.265   0.894   7.750  0.4649  0.2238  0.1283
   66SAPC  H12X 5524   1.202   0.982   7.723  0.3475  0.2585  0.5159
   66SAPC  H12Y 5525   1.369   0.932   7.750 -0.0715  1.7657  0.9145
   66SAPC  C313 5526   1.235   0.842   7.887  0.0863  0.4365 -0.2768
   66SAPC  H13X 5527   1.323   0.785   7.923 -0.1170  0.7804  0.8043
   66SAPC  H13Y 5528   1.146   0.777   7.886  1.1925 -1.1685  0.9362
   66SAPC  C314 5529   1.218   0.949   8.003  0.8157 -0.0255 -0.5569
   66SAPC  H14X 5530   1.139   1.021   7.974  0.1584 -0.3883  0.2716
   66SAPC  H14Y 5531   1.306   1.016   8.005  1.4627 -0.8638  1.3330
   66SAPC  C315 5532   1.190   0.867   8.128  0.3481 -0.0659 -0.3384
   66SAPC  H15X 5533   1.284   0.813   8.150  0.9319  0.3437 -1.7007
   66SAPC  H15Y 5534   1.107   0.796   8.105 -0.7397  0.9281  0.3784
   66SAPC  C316 5535   1.148   0.943   8.256  0.3049 -0.0890 -0.4632
   66SAPC  H16X 5536   1.211   1.033   8.272  0.1456 -0.2609  1.3633
   66SAPC  H16Y 5537   1.164   0.884   8.349  1.5942  2.1889  0.8541
   66SAPC  C317 5538   0.997   0.969   8.254 -0.2354 -0.4461  0.4679
   66SAPC  H17X 5539   0.944   0.878   8.220 -0.7039  0.2031 -0.5932
   66SAPC  H17Y 5540   0.978   1.042   8.173 -1.5055  0.0330  1.1758
   66SAPC  C318 5541   0.932   1.032   8.373  0.2338  0.7981 -0.6832
   66SAPC  H18X 5542   0.830   1.061   8.340 -0.3820 -0.6699 -0.1268
   66SAPC  H18Y 5543   0.979   1.117   8.427 -1.5647  1.0329  0.5933
   66SAPC  H18Z 5544   0.919   0.955   8.452 -0.5807 -0.2394 -1.7982
   67SAPC     N 5545   2.817   4.020   6.233 -0.6079  0.0392 -0.3338
   67SAPC   C12 5546   2.775   3.952   6.369 -0.6200  0.0432 -0.2000
   67SAPC  H12A 5547   2.678   3.993   6.394 -0.5682  0.0495 -0.0062
   67SAPC  H12B 5548   2.854   3.979   6.438 -0.9405 -0.6368  0.4545
   67SAPC   C13 5549   2.956   3.975   6.196  0.3468 -0.0238  0.1849
   67SAPC  H13A 5550   2.956   3.867   6.196 -0.3832 -0.0546  2.1245
   67SAPC  H13B 5551   2.987   4.012   6.099 -0.3000 -0.7925 -0.3343
   67SAPC  H13C 5552   3.028   4.006   6.269  0.2306  1.1303 -0.1694
   67SAPC   C14 5553   2.711   3.986   6.132 -0.0581 -0.2994  0.6859
   67SAPC  H14A 5554   2.610   4.021   6.149 -0.8326 -2.7476  1.5034
   67SAPC  H14B 5555   2.747   4.025   6.038  0.5411 -1.5140  0.3922
   67SAPC  H14C 5556   2.701   3.879   6.125 -0.4513 -0.5447  3.7048
   67SAPC   C15 5557   2.826   4.171   6.238 -0.1598  0.2152 -0.0183
   67SAPC  H15A 5558   2.899   4.192   6.315  0.8484 -0.9192 -0.6362
   67SAPC  H15B 5559   2.839   4.223   6.145 -1.6827 -1.1075 -1.0306
   67SAPC  H15C 5560   2.735   4.208   6.284 -1.9058 -0.3038 -2.7927
   67SAPC   C11 5561   2.752   3.795   6.379 -0.9672  0.2233  0.4000
   67SAPC  H11A 5562   2.674   3.767   6.304  0.8291 -1.4161 -0.9720
   67SAPC  H11B 5563   2.705   3.766   6.476 -0.2103  0.0241  0.7158
   67SAPC     P 5564   2.985   3.702   6.449  0.2359 -0.1656  0.1651
   67SAPC   O13 5565   3.040   3.567   6.428  0.1082  0.0031  0.2247
   67SAPC   O14 5566   3.078   3.814   6.433  0.2518  0.3533 -0.7631
   67SAPC   O12 5567   2.868   3.722   6.344  0.5579  0.3273 -0.4441
   67SAPC   O11 5568   2.913   3.703   6.583  0.6219  0.4507 -0.4094
   67SAPC    C1 5569   2.931   3.802   6.685  0.4740  0.1363  0.3113
   67SAPC    HA 5570   2.972   3.899   6.647  0.0614  0.6779  1.2112
   67SAPC    HB 5571   2.833   3.830   6.729 -0.2369 -1.5646 -0.1152
   67SAPC    C2 5572   3.004   3.758   6.811 -0.3597 -0.6293  0.2017
   67SAPC    HS 5573   3.003   3.831   6.894 -1.3411 -2.8172  2.2200
   67SAPC   O21 5574   3.140   3.715   6.777 -0.7713  0.1558 -0.4140
   67SAPC   C21 5575   3.226   3.815   6.766  0.0414  0.3416  0.2699
   67SAPC   O22 5576   3.199   3.935   6.777  0.0302  0.3178 -0.6325
   67SAPC   C22 5577   3.358   3.763   6.723 -0.0181 -0.0170 -0.3519
   67SAPC   H2R 5578   3.369   3.652   6.716  0.3806 -0.3423  3.4855
   67SAPC   H2S 5579   3.361   3.793   6.616 -0.8257 -1.0893 -0.6944
   67SAPC    C3 5580   2.945   3.632   6.873  0.4761 -0.5348  0.1822
   67SAPC    HX 5581   2.958   3.543   6.808 -1.8875 -1.7268  1.2062
   67SAPC    HY 5582   2.835   3.638   6.891  0.6654 -0.6548  1.4332
   67SAPC   O31 5583   3.004   3.614   7.008 -0.2868 -1.0605  0.3809
   67SAPC   C31 5584   3.008   3.490   7.050 -0.0343 -0.6027 -0.2100
   67SAPC   O32 5585   2.945   3.395   6.997 -0.5973 -1.0088 -0.3810
   67SAPC   C32 5586   3.084   3.490   7.175 -0.6986  0.1410 -0.2264
   67SAPC   H2X 5587   3.026   3.552   7.247  4.1158  2.7138  1.9206
   67SAPC   H2Y 5588   3.181   3.543   7.169  0.2516 -1.6537 -1.9195
   67SAPC   C23 5589   3.489   3.818   6.797 -0.3021 -0.5465  0.3628
   67SAPC   H3R 5590   3.474   3.923   6.828 -1.5487 -0.9040  1.0627
   67SAPC   H3S 5591   3.572   3.828   6.724  1.1358 -0.9887  1.8949
   67SAPC   C24 5592   3.532   3.724   6.911 -0.2208 -0.2480  0.6102
   67SAPC   H4R 5593   3.436   3.701   6.961  0.0423 -1.5611  0.5380
   67SAPC   H4S 5594   3.596   3.782   6.981  2.0531  1.0288 -2.2985
   67SAPC   C25 5595   3.605   3.599   6.859  0.1970 -0.0248  0.6189
   67SAPC   H5R 5596   3.611   3.588   6.750 -0.2987  1.4888  0.4160
   67SAPC   C26 5597   3.660   3.505   6.934 -0.4480  0.2860  0.6440
   67SAPC   H6R 5598   3.715   3.421   6.891  1.7399  2.5624 -1.3446
   67SAPC   C27 5599   3.671   3.494   7.082 -0.1035 -0.0531 -0.6103
   67SAPC   H7R 5600   3.681   3.597   7.123 -0.9675 -1.2323  2.8060
   67SAPC   H7S 5601   3.768   3.446   7.109 -0.2239  0.7337  1.3298
   67SAPC   C28 5602   3.543   3.426   7.123 -0.1099  0.2169  0.2128
   67SAPC   H8R 5603   3.451   3.468   7.082 -0.4412 -0.7337 -0.0595
   67SAPC   C29 5604   3.534   3.328   7.213 -0.2098  0.6169  0.4857
   67SAPC   H9R 5605   3.438   3.279   7.232 -0.2706  1.1526  1.6372
   67SAPC  C210 5606   3.643   3.256   7.289 -0.7773 -0.3392  0.3105
   67SAPC  H10R 5607   3.730   3.325   7.280 -0.8639  0.1286  2.6399
   67SAPC  H10S 5608   3.654   3.155   7.243  2.0851 -0.1281  0.3580
   67SAPC  C211 5609   3.606   3.225   7.426 -0.0062 -1.3385 -0.5601
   67SAPC  H11R 5610   3.499   3.215   7.448 -0.3517 -0.3489 -1.6718
   67SAPC  C212 5611   3.691   3.205   7.527 -0.1015  0.9118 -0.4628
   67SAPC  H12R 5612   3.644   3.195   7.626 -1.1519  0.3038 -0.9973
   67SAPC  C213 5613   3.840   3.204   7.530 -0.0532  0.0663 -0.9517
   67SAPC  H13R 5614   3.881   3.214   7.427 -0.2009  0.3961 -0.9797
   67SAPC  H13S 5615   3.876   3.101   7.554  0.7622 -0.0143 -2.4037
   67SAPC  C214 5616   3.907   3.314   7.616 -0.0364  0.4476  0.2198
   67SAPC  H14R 5617   3.948   3.396   7.555 -0.5385  0.6296  0.1229
   67SAPC  C215 5618   3.943   3.311   7.749  0.3165  0.3558 -0.2869
   67SAPC  H15R 5619   3.998   3.395   7.794  1.1684  0.9336 -2.2684
   67SAPC  C216 5620   3.915   3.204   7.846  0.2284  0.1194 -0.4511
   67SAPC  H16R 5621   3.939   3.110   7.792 -0.2176  0.4049 -1.1455
   67SAPC  H16S 5622   3.809   3.201   7.877  0.3523 -0.8410 -0.0619
   67SAPC  C217 5623   4.017   3.209   7.959 -0.8957 -0.2241  0.2322
   67SAPC  H17R 5624   4.023   3.315   7.993 -1.2186 -0.0191 -0.3434
   67SAPC  H17S 5625   4.116   3.186   7.916 -0.8691  0.4017 -0.0504
   67SAPC  C218 5626   3.999   3.114   8.075 -0.1806 -0.5322 -0.3490
   67SAPC  H18R 5627   3.909   3.153   8.127  0.7479  3.8654 -1.5646
   67SAPC  H18S 5628   4.076   3.128   8.153 -0.6082 -0.2687  0.0300
   67SAPC  C219 5629   3.997   2.968   8.022  0.2062  0.2565  0.3510
   67SAPC  H19R 5630   4.091   2.946   7.967 -1.4170 -0.5097 -2.3015
   67SAPC  H19S 5631   3.916   2.954   7.947 -0.4465  2.4473  0.5828
   67SAPC  C220 5632   3.968   2.864   8.130  0.4624 -0.7297 -0.4474
   67SAPC  H20R 5633   3.866   2.879   8.170  0.9640 -0.5839  0.8259
   67SAPC  H20S 5634   4.043   2.862   8.212  0.1243 -0.5380 -0.1280
   67SAPC  H20T 5635   3.965   2.765   8.081  0.3372 -0.6145 -0.6763
   67SAPC   C33 5636   3.103   3.347   7.227 -0.1382 -0.1692 -0.5571
   67SAPC   H3X 5637   3.182   3.301   7.163 -0.2580 -0.3333 -0.5860
   67SAPC   H3Y 5638   3.012   3.284   7.227 -0.5875  0.2678  3.2359
   67SAPC   C34 5639   3.164   3.346   7.369 -0.1087  0.2001 -0.5822
   67SAPC   H4X 5640   3.124   3.430   7.430  1.1749  1.5020 -1.4755
   67SAPC   H4Y 5641   3.273   3.357   7.353  0.5330  0.3668  3.0185
   67SAPC   C35 5642   3.142   3.212   7.451 -0.1328  1.1204  0.4511
   67SAPC   H5X 5643   3.037   3.186   7.473  0.4670 -0.5449  1.5281
   67SAPC   H5Y 5644   3.184   3.210   7.554  1.3630  1.2756 -0.1236
   67SAPC   C36 5645   3.196   3.089   7.382 -0.5445  0.0633 -0.0937
   67SAPC   H6X 5646   3.294   3.121   7.339 -1.9040  1.3380 -2.4260
   67SAPC   H6Y 5647   3.141   3.061   7.290 -0.4675 -3.1085  0.7267
   67SAPC   C37 5648   3.222   2.963   7.466  0.4714 -0.3876  0.5626
   67SAPC   H7X 5649   3.263   2.996   7.564 -0.7264  1.3217  0.5512
   67SAPC   H7Y 5650   3.303   2.903   7.421  0.3145 -0.8153  0.8420
   67SAPC   C38 5651   3.102   2.871   7.484  0.3024 -0.3310 -0.0996
   67SAPC   H8X 5652   3.065   2.820   7.393 -0.3037  1.3976 -0.8746
   67SAPC   H8Y 5653   3.013   2.934   7.506 -1.5566 -2.3936 -1.2379
   67SAPC   C39 5654   3.121   2.773   7.598  0.5934 -0.4770  0.9029
   67SAPC   H9X 5655   3.032   2.708   7.605  0.8996 -0.9994  0.1100
   67SAPC   H9Y 5656   3.136   2.835   7.689  1.4823 -0.6945  0.9151
   67SAPC  C310 5657   3.239   2.673   7.585 -0.3924  0.0052 -0.0828
   67SAPC  H10X 5658   3.334   2.729   7.596 -0.6295  0.2536  0.7771
   67SAPC  H10Y 5659   3.244   2.627   7.485 -0.2102  1.7653 -0.9194
   67SAPC  C311 5660   3.244   2.565   7.700 -0.2431 -0.5783 -0.2475
   67SAPC  H11X 5661   3.207   2.620   7.789 -3.6240 -1.7997 -0.7598
   67SAPC  H11Y 5662   3.348   2.532   7.718  0.0953  0.1930 -0.7102
   67SAPC  C312 5663   3.155   2.445   7.655 -0.9567 -0.3437 -0.1393
   67SAPC  H12X 5664   3.196   2.395   7.565 -1.6994  3.0793 -2.5435
   67SAPC  H12Y 5665   3.052   2.480   7.634 -0.2756  1.0607 -1.2787
   67SAPC  C313 5666   3.150   2.334   7.773  0.2690  0.0281  0.6340
   67SAPC  H13X 5667   3.242   2.272   7.775 -0.1011 -0.5590  0.1169
   67SAPC  H13Y 5668   3.081   2.255   7.734 -0.3859 -0.4412  2.6084
   67SAPC  C314 5669   3.106   2.392   7.913 -0.4795  0.0676 -0.1684
   67SAPC  H14X 5670   3.014   2.453   7.905 -0.2558  0.4740  0.2502
   67SAPC  H14Y 5671   3.184   2.463   7.948 -1.1451  0.8752 -0.3064
   67SAPC  C315 5672   3.088   2.280   8.012  0.0035 -0.1786  0.1531
   67SAPC  H15X 5673   3.173   2.209   8.020  3.2032  3.5642  3.1487
   67SAPC  H15Y 5674   3.010   2.207   7.980  3.3765 -2.4116 -3.9926
   67SAPC  C316 5675   3.053   2.340   8.152  0.1499 -0.0742 -0.5137
   67SAPC  H16X 5676   2.984   2.424   8.133  1.0321  1.8386  3.5629
   67SAPC  H16Y 5677   3.148   2.384   8.189 -0.0653  0.4185 -0.5485
   67SAPC  C317 5678   3.000   2.240   8.253  0.3590  0.5311 -0.3081
   67SAPC  H17X 5679   3.074   2.167   8.292  0.4722  0.9139  0.1938
   67SAPC  H17Y 5680   2.927   2.178   8.196 -0.2845  0.4118  0.6253
   67SAPC  C318 5681   2.941   2.311   8.374  0.3826 -0.6218  0.1479
   67SAPC  H18X 5682   3.007   2.308   8.463 -0.1517 -0.2905  0.5618
   67SAPC  H18Y 5683   2.844   2.260   8.393  0.0932 -0.3886 -0.6341
   67SAPC  H18Z 5684   2.918   2.416   8.345  0.7329  0.2571  2.7971
   68SAPC     N 5685   0.231   2.880   6.044  0.5032 -0.0576 -0.3203
   68SAPC   C12 5686   0.343   2.938   6.133  0.6006 -0.9416  0.4146
   68SAPC  H12A 5687   0.326   3.044   6.138  0.8290 -0.8073 -1.2159
   68SAPC  H12B 5688   0.435   2.920   6.081 -0.7187 -1.3372 -1.9458
   68SAPC   C13 5689   0.259   2.741   6.000 -0.1945  0.7713 -0.4084
   68SAPC  H13A 5690   0.357   2.735   5.956 -0.8884  1.6205 -2.1779
   68SAPC  H13B 5691   0.256   2.677   6.087 -0.4733 -0.2161 -1.1305
   68SAPC  H13C 5692   0.187   2.719   5.923 -1.5133  1.7486  0.4893
   68SAPC   C14 5693   0.098   2.889   6.114  0.5378  0.6107  0.2317
   68SAPC  H14A 5694   0.067   2.992   6.121  1.7052  0.9280  1.1057
   68SAPC  H14B 5695   0.015   2.843   6.063  0.0877  2.2438 -0.5652
   68SAPC  H14C 5696   0.099   2.848   6.214  0.7355  1.1191  0.4437
   68SAPC   C15 5697   0.215   2.957   5.921  0.6421  0.1422  0.5491
   68SAPC  H15A 5698   0.166   2.903   5.841  1.1374  1.6179 -0.8052
   68SAPC  H15B 5699   0.160   3.049   5.926  0.1865 -0.0736 -0.2405
   68SAPC  H15C 5700   0.312   2.983   5.883 -0.6962  5.1143 -0.1364
   68SAPC   C11 5701   0.352   2.878   6.272 -0.0238  0.3035 -0.2914
   68SAPC  H11A 5702   0.259   2.887   6.332  0.5410 -1.0049  0.8614
   68SAPC  H11B 5703   0.428   2.936   6.329  1.4641 -2.3609  0.6754
   68SAPC     P 5704   0.529   2.681   6.240 -0.1520  0.0783  0.0474
   68SAPC   O13 5705   0.519   2.533   6.238 -0.1411 -0.3620 -0.5367
   68SAPC   O14 5706   0.582   2.751   6.118  0.4428  0.1112 -0.2948
   68SAPC   O12 5707   0.382   2.738   6.252  0.3794  0.7111 -0.1247
   68SAPC   O11 5708   0.601   2.740   6.373  0.3016 -0.9256  0.0206
   68SAPC    C1 5709   0.541   2.765   6.499 -0.2525  0.1255  0.3640
   68SAPC    HA 5710   0.612   2.830   6.553 -0.6257 -0.1319  1.1717
   68SAPC    HB 5711   0.438   2.806   6.490  0.0449  1.5345  2.7205
   68SAPC    C2 5712   0.528   2.629   6.577  0.7621  0.1288 -0.4221
   68SAPC    HS 5713   0.455   2.561   6.528 -2.5244  2.3072  1.0498
   68SAPC   O21 5714   0.488   2.651   6.714  0.3753  0.3181 -0.3333
   68SAPC   C21 5715   0.409   2.560   6.766 -0.3647 -0.2814 -0.0992
   68SAPC   O22 5716   0.359   2.463   6.714 -0.4889 -0.6149 -0.0217
   68SAPC   C22 5717   0.390   2.598   6.910 -0.0731  0.9566 -0.3498
   68SAPC   H2R 5718   0.490   2.607   6.957 -1.1055  2.2591  1.7681
   68SAPC   H2S 5719   0.332   2.693   6.909 -0.8252  0.5203 -2.2360
   68SAPC    C3 5720   0.664   2.557   6.577  0.1074  0.4443 -0.5587
   68SAPC    HX 5721   0.734   2.624   6.631 -1.7079 -1.0597  4.1644
   68SAPC    HY 5722   0.697   2.548   6.471  3.1440 -0.0738  0.3570
   68SAPC   O31 5723   0.653   2.427   6.645  0.6502  0.1455  0.7949
   68SAPC   C31 5724   0.739   2.412   6.743  0.5002 -0.3541  0.3296
   68SAPC   O32 5725   0.832   2.484   6.778  0.2388 -0.5036 -0.2516
   68SAPC   C32 5726   0.721   2.272   6.797  0.0204  0.3542  0.4721
   68SAPC   H2X 5727   0.823   2.228   6.796  0.4051  1.1720  1.6954
   68SAPC   H2Y 5728   0.657   2.205   6.736  0.6956 -0.9957  1.2139
   68SAPC   C23 5729   0.305   2.492   6.992 -0.7328 -0.4556  0.0259
   68SAPC   H3R 5730   0.356   2.395   6.972  1.1254  0.9733 -2.8801
   68SAPC   H3S 5731   0.202   2.488   6.950 -1.5274  2.5826  1.4042
   68SAPC   C24 5732   0.305   2.517   7.141  0.0933  0.2130 -0.6654
   68SAPC   H4R 5733   0.407   2.527   7.184 -0.5135  0.1059  0.8607
   68SAPC   H4S 5734   0.247   2.437   7.190 -2.6539  3.4743  1.9377
   68SAPC   C25 5735   0.222   2.642   7.171  0.3191  0.4197  0.2179
   68SAPC   H5R 5736   0.181   2.699   7.086  1.7417  0.3052 -0.5729
   68SAPC   C26 5737   0.193   2.702   7.291 -0.0689 -0.0663  0.0107
   68SAPC   H6R 5738   0.145   2.801   7.292  1.2051  0.5828  1.8625
   68SAPC   C27 5739   0.236   2.651   7.431  0.4989 -0.4475  0.1253
   68SAPC   H7R 5740   0.273   2.725   7.505 -0.4556 -0.9902  1.1841
   68SAPC   H7S 5741   0.326   2.593   7.404 -1.4195 -2.4424 -2.4469
   68SAPC   C28 5742   0.146   2.555   7.496  0.7031  0.3395  0.1745
   68SAPC   H8R 5743   0.115   2.474   7.428 -1.0652  0.9852  0.1772
   68SAPC   C29 5744   0.071   2.570   7.607 -0.4920  0.5832 -1.2666
   68SAPC   H9R 5745   0.001   2.493   7.643 -0.7474  0.2928 -2.3464
   68SAPC  C210 5746   0.067   2.691   7.701  0.4783  0.0717 -0.4377
   68SAPC  H10R 5747   0.111   2.782   7.653 -1.4277  2.6224  2.3431
   68SAPC  H10S 5748   0.125   2.664   7.792  2.3545 -0.5201 -1.7299
   68SAPC  C211 5749  -0.079   2.719   7.740 -0.1090 -0.5501  0.3126
   68SAPC  H11R 5750  -0.137   2.774   7.664  0.0347  0.5916  0.9984
   68SAPC  C212 5751  -0.140   2.709   7.857 -0.3245 -0.9728 -0.0290
   68SAPC  H12R 5752  -0.249   2.725   7.856  0.0428  1.9512 -0.1417
   68SAPC  C213 5753  -0.087   2.660   7.983 -0.1331  1.2565 -0.0802
   68SAPC  H13R 5754  -0.154   2.690   8.067 -0.4035 -0.2573  0.2845
   68SAPC  H13S 5755   0.013   2.704   8.004  0.8890  0.0080 -1.9790
   68SAPC  C214 5756  -0.082   2.510   7.964 -0.3184  0.3300 -0.1542
   68SAPC  H14R 5757  -0.027   2.480   7.873  1.7623  0.5026  0.9848
   68SAPC  C215 5758  -0.132   2.411   8.038 -0.0036  0.7526 -0.1090
   68SAPC  H15R 5759  -0.127   2.303   8.019  1.5761  0.4715  1.6820
   68SAPC  C216 5760  -0.214   2.434   8.169 -0.1619 -0.0156  0.1788
   68SAPC  H16R 5761  -0.287   2.517   8.168  0.6299  0.7275 -2.4853
   68SAPC  H16S 5762  -0.144   2.442   8.255  1.1240 -4.6859 -0.1704
   68SAPC  C217 5763  -0.314   2.320   8.201  0.3040  0.1506 -0.6597
   68SAPC  H17R 5764  -0.259   2.225   8.185  1.3829  0.6313  0.0562
   68SAPC  H17S 5765  -0.393   2.333   8.124  0.0353  2.6565 -0.0434
   68SAPC  C218 5766  -0.386   2.325   8.341  0.2269 -0.1273  0.2496
   68SAPC  H18R 5767  -0.428   2.428   8.337 -2.3622 -1.1375 -1.2028
   68SAPC  H18S 5768  -0.307   2.317   8.419  1.7865  0.3310 -1.2377
   68SAPC  C219 5769  -0.495   2.230   8.356  0.1721  0.2162 -0.2629
   68SAPC  H19R 5770  -0.448   2.129   8.359 -2.1657 -1.0324 -2.0906
   68SAPC  H19S 5771  -0.562   2.241   8.268 -0.0422  2.5034  0.1306
   68SAPC  C220 5772  -0.564   2.249   8.492  0.5113 -0.0502 -0.2623
   68SAPC  H20R 5773  -0.613   2.348   8.491 -3.0845 -1.5592  2.8632
   68SAPC  H20S 5774  -0.495   2.258   8.579 -1.1754  1.0905  1.0223
   68SAPC  H20T 5775  -0.643   2.173   8.512  1.5771 -1.8531 -2.4734
   68SAPC   C33 5776   0.659   2.268   6.940  0.2758  0.0381  0.4068
   68SAPC   H3X 5777   0.553   2.302   6.936 -2.5892 -7.2310 -1.9693
   68SAPC   H3Y 5778   0.718   2.334   7.008 -1.5954  2.0170  0.2425
   68SAPC   C34 5779   0.651   2.132   7.006  0.2082 -0.3365  0.7335
   68SAPC   H4X 5780   0.753   2.089   7.006  0.9543  1.3652  2.0044
   68SAPC   H4Y 5781   0.611   2.060   6.930 -0.7791 -2.0683  2.7868
   68SAPC   C35 5782   0.565   2.108   7.134  0.6140  0.8721 -0.2585
   68SAPC   H5X 5783   0.456   2.119   7.117  0.9819  1.2467 -2.7428
   68SAPC   H5Y 5784   0.604   2.194   7.193 -2.1724  2.6129 -0.7476
   68SAPC   C36 5785   0.595   1.971   7.190  0.0713 -0.2595  0.4152
   68SAPC   H6X 5786   0.696   1.973   7.237 -0.4216 -1.5519  1.5947
   68SAPC   H6Y 5787   0.586   1.909   7.098 -0.5944 -0.2413  0.4671
   68SAPC   C37 5788   0.488   1.908   7.279  0.2558 -0.5946  0.4907
   68SAPC   H7X 5789   0.507   1.802   7.307 -0.0566 -0.9203 -0.4701
   68SAPC   H7Y 5790   0.396   1.902   7.217 -0.9402 -3.7667  2.3556
   68SAPC   C38 5791   0.467   1.988   7.408 -0.3040  0.5561 -0.4396
   68SAPC   H8X 5792   0.363   1.975   7.446  0.0198  0.5821  0.4788
   68SAPC   H8Y 5793   0.479   2.096   7.388  1.4578  0.1429 -1.8922
   68SAPC   C39 5794   0.563   1.944   7.523  0.3652 -0.0839 -0.2580
   68SAPC   H9X 5795   0.570   2.020   7.603 -0.7862 -2.2815  2.1050
   68SAPC   H9Y 5796   0.660   1.930   7.471 -0.2876  0.4464 -1.6962
   68SAPC  C310 5797   0.503   1.829   7.599  0.1754  0.4493  0.6350
   68SAPC  H10X 5798   0.474   1.756   7.521 -1.0434  1.2008  0.3578
   68SAPC  H10Y 5799   0.405   1.863   7.640 -0.4075  0.9018 -1.0254
   68SAPC  C311 5800   0.595   1.760   7.695 -0.5946 -0.7904 -0.4293
   68SAPC  H11X 5801   0.629   1.831   7.773 -1.4813  0.6021 -1.2651
   68SAPC  H11Y 5802   0.684   1.726   7.638 -1.2702 -0.5251 -1.6952
   68SAPC  C312 5803   0.544   1.642   7.778  0.0362  1.1536 -0.5172
   68SAPC  H12X 5804   0.539   1.552   7.714  0.0682 -0.9507  2.2619
   68SAPC  H12Y 5805   0.443   1.665   7.818  0.5703  3.1863 -0.1838
   68SAPC  C313 5806   0.623   1.609   7.909 -0.7465  0.3930  0.9696
   68SAPC  H13X 5807   0.622   1.682   7.994 -2.6817 -1.1941  2.4134
   68SAPC  H13Y 5808   0.731   1.609   7.887 -0.5248 -1.1354  1.9258
   68SAPC  C314 5809   0.565   1.474   7.966 -1.0001  0.2878 -0.4420
   68SAPC  H14X 5810   0.566   1.394   7.889 -2.1718  1.8181 -2.1419
   68SAPC  H14Y 5811   0.455   1.487   7.977 -0.5216  3.6196  1.5007
   68SAPC  C315 5812   0.641   1.435   8.092  0.1589  0.1287 -0.2003
   68SAPC  H15X 5813   0.631   1.521   8.161 -1.3873 -0.9594  1.0056
   68SAPC  H15Y 5814   0.746   1.410   8.067  0.0384  0.6855 -1.2935
   68SAPC  C316 5815   0.585   1.323   8.183  0.0020 -0.2681  0.3401
   68SAPC  H16X 5816   0.568   1.225   8.133 -2.0583  1.2669 -2.1820
   68SAPC  H16Y 5817   0.481   1.344   8.214 -0.6129 -2.9101  0.3130
   68SAPC  C317 5818   0.663   1.313   8.314 -0.0198  0.3067  0.2499
   68SAPC  H17X 5819   0.667   1.418   8.353 -1.2915  0.1963  0.7226
   68SAPC  H17Y 5820   0.768   1.287   8.290  0.9297  3.1217  0.9357
   68SAPC  C318 5821   0.577   1.232   8.416 -0.1967 -0.4796  0.7569
   68SAPC  H18X 5822   0.477   1.280   8.406  0.3320  0.4431 -0.4403
   68SAPC  H18Y 5823   0.607   1.250   8.522  2.8580 -2.3114  0.3240
   68SAPC  H18Z 5824   0.568   1.123   8.397  0.3145 -0.4533  0.3560
   69SLPC     N 5825   1.849   0.334  11.185  0.1331 -0.0553 -0.4234
   69SLPC   C13 5826   1.993   0.304  11.221 -0.0592  0.5825 -0.4175
   69SLPC  H13A 5827   2.015   0.369  11.304  0.0384  0.7965 -0.6092
   69SLPC  H13B 5828   2.008   0.203  11.255 -0.4369  0.8970  0.7184
   69SLPC  H13C 5829   2.054   0.341  11.140 -0.1325  0.6892 -0.4249
   69SLPC   C14 5830   1.838   0.483  11.183  0.1770  0.2665  0.1040
   69SLPC  H14A 5831   1.735   0.513  11.167 -0.3765  1.4568  4.5027
   69SLPC  H14B 5832   1.875   0.517  11.278 -1.8952 -0.9551  1.4346
   69SLPC  H14C 5833   1.899   0.518  11.101 -0.2780 -0.8425 -0.7457
   69SLPC   C15 5834   1.776   0.289  11.309 -0.5705  0.1169  0.0461
   69SLPC  H15A 5835   1.669   0.294  11.301 -0.6379  1.6662  1.3103
   69SLPC  H15B 5836   1.793   0.184  11.324  1.1122  0.3716  0.2055
   69SLPC  H15C 5837   1.811   0.346  11.394 -0.7210  0.7347 -0.2984
   69SLPC   C12 5838   1.810   0.267  11.057 -0.4680 -0.3651 -0.4650
   69SLPC  H12A 5839   1.703   0.264  11.052 -0.4388 -0.9462 -0.9560
   69SLPC  H12B 5840   1.833   0.163  11.076  2.3729  0.6388  2.5336
   69SLPC   C11 5841   1.877   0.307  10.922 -0.4632 -0.5097 -0.0879
   69SLPC  H11A 5842   1.847   0.413  10.906  1.3606 -0.2312 -2.1642
   69SLPC  H11B 5843   1.838   0.245  10.839 -1.0456 -0.1869 -0.0597
   69SLPC     P 5844   2.088   0.164  10.911 -0.1249  0.0317 -0.0294
   69SLPC   O13 5845   2.221   0.182  10.974 -0.3504 -0.1869  0.7333
   69SLPC   O14 5846   2.004   0.054  10.957  0.1612  0.0683 -0.1148
   69SLPC   O12 5847   2.021   0.302  10.924 -0.1762  0.3613  0.9115
   69SLPC   O11 5848   2.114   0.156  10.756  0.3640  0.2660  0.2149
   69SLPC    C1 5849   2.181   0.257  10.684  0.0730 -0.0108  0.1492
   69SLPC    HA 5850   2.113   0.287  10.601 -3.2905 -1.0793  2.2989
   69SLPC    HB 5851   2.194   0.350  10.744  2.9740 -0.0711 -0.2563
   69SLPC    C2 5852   2.320   0.204  10.628 -0.1707  0.5146  0.1928
   69SLPC    HS 5853   2.393   0.287  10.627  0.5813 -0.1301  0.3407
   69SLPC   O21 5854   2.306   0.157  10.490 -0.3229  0.1656 -0.4629
   69SLPC   C21 5855   2.285   0.250  10.406 -0.0508  0.0482  0.3895
   69SLPC   O22 5856   2.285   0.368  10.431 -0.0476 -0.7386  0.1706
   69SLPC   C22 5857   2.270   0.191  10.259  0.2565  0.1090 -0.4025
   69SLPC   H2R 5858   2.362   0.128  10.254 -0.7597 -1.3939 -1.0007
   69SLPC   H2S 5859   2.183   0.122  10.258  0.3808 -0.0746  0.8164
   69SLPC    C3 5860   2.384   0.099  10.713  0.9819 -0.0933 -0.3058
   69SLPC    HX 5861   2.305   0.025  10.740 -0.7472  1.1162 -1.8000
   69SLPC    HY 5862   2.423   0.140  10.808 -1.6192  3.2636 -0.4901
   69SLPC   O31 5863   2.477   0.022  10.641 -0.3882 -0.0564 -0.0362
   69SLPC   C31 5864   2.599   0.080  10.633 -0.2247  0.1722 -0.5579
   69SLPC   O32 5865   2.625   0.184  10.692  0.0488 -0.0663  0.2008
   69SLPC   C32 5866   2.688  -0.004  10.545 -0.4904  0.2559  0.1838
   69SLPC   H2X 5867   2.685  -0.108  10.583 -0.9796  0.9078  2.0138
   69SLPC   H2Y 5868   2.791   0.037  10.559 -1.6585  3.2137  0.8640
   69SLPC   C23 5869   2.276   0.304  10.157 -0.3481  0.7580  0.1972
   69SLPC   H3R 5870   2.377   0.352  10.162 -0.1799  0.7802 -2.2757
   69SLPC   H3S 5871   2.184   0.366  10.164 -2.0674 -1.4240 -1.6812
   69SLPC   C24 5872   2.290   0.244  10.024 -0.2026 -0.3802  0.8001
   69SLPC   H4R 5873   2.193   0.201   9.993 -1.7651  3.0877  0.4243
   69SLPC   H4S 5874   2.364   0.161  10.025  0.1599 -0.0703  0.0664
   69SLPC   C25 5875   2.331   0.337   9.913 -0.4133 -0.6081  0.1094
   69SLPC   H5R 5876   2.430   0.372   9.950 -0.7951 -0.0047  0.5750
   69SLPC   H5S 5877   2.262   0.424   9.913 -1.0244 -1.0829 -0.1631
   69SLPC   C26 5878   2.341   0.274   9.782 -0.0807  0.5821  0.8961
   69SLPC   H6R 5879   2.246   0.219   9.766 -0.0010  0.5785  0.4193
   69SLPC   H6S 5880   2.428   0.208   9.768  1.0693  2.2634 -0.3460
   69SLPC   C27 5881   2.356   0.380   9.675 -0.1347  0.7076 -0.4303
   69SLPC   H7R 5882   2.456   0.430   9.672  0.1616  0.2752  1.3609
   69SLPC   H7S 5883   2.280   0.461   9.675 -0.6602  0.2275  0.8069
   69SLPC   C28 5884   2.319   0.326   9.535  0.1088  0.9633  0.7801
   69SLPC   H8R 5885   2.323   0.423   9.481  0.0153  0.9926  0.8262
   69SLPC   H8S 5886   2.213   0.295   9.535  0.4199 -0.2380 -1.2786
   69SLPC   C29 5887   2.404   0.220   9.470 -0.6109  0.0076  0.0832
   69SLPC   H9R 5888   2.442   0.144   9.540  1.5993 -0.4454 -1.4936
   69SLPC  C210 5889   2.447   0.206   9.344  0.6456  0.3169  0.2497
   69SLPC  H10R 5890   2.518   0.129   9.310 -0.9570 -0.2207 -2.1778
   69SLPC  C211 5891   2.407   0.298   9.232 -0.4336 -0.4627 -0.0678
   69SLPC  H11R 5892   2.503   0.319   9.181 -0.8441 -0.5603 -0.8875
   69SLPC  H11S 5893   2.374   0.392   9.281 -1.5672 -1.7847  1.8491
   69SLPC  C212 5894   2.297   0.251   9.141  0.0151  1.1438  0.0493
   69SLPC  H12R 5895   2.207   0.209   9.188  1.1654 -0.7957  0.6075
   69SLPC  C213 5896   2.293   0.250   9.002  0.0844 -0.2431  0.1542
   69SLPC  H13R 5897   2.221   0.185   8.952 -1.8142  0.5063  1.7673
   69SLPC  C214 5898   2.411   0.311   8.918  0.7045 -0.9079  0.4165
   69SLPC  H14R 5899   2.452   0.230   8.854  0.3359 -0.0367 -0.9636
   69SLPC  H14S 5900   2.494   0.348   8.982 -0.0650  0.1371  0.8271
   69SLPC  C215 5901   2.361   0.419   8.815  0.0528 -0.3858  0.1483
   69SLPC  H15R 5902   2.455   0.459   8.771 -0.1002 -0.3811 -0.1773
   69SLPC  H15S 5903   2.307   0.492   8.877 -1.9415  0.7862 -2.7591
   69SLPC  C216 5904   2.288   0.370   8.689  0.3582  0.8506  0.0976
   69SLPC  H16R 5905   2.210   0.293   8.709  2.0199 -1.3549 -1.3369
   69SLPC  H16S 5906   2.364   0.323   8.622  1.8003  3.3923 -0.1731
   69SLPC  C217 5907   2.213   0.472   8.605  0.0252  0.1717 -0.4369
   69SLPC  H17R 5908   2.127   0.499   8.670 -0.2409 -3.2581  0.8138
   69SLPC  H17S 5909   2.177   0.424   8.511  2.0740 -0.2430 -1.0645
   69SLPC  C218 5910   2.303   0.583   8.564  0.2238  1.1427 -0.4873
   69SLPC  H18R 5911   2.247   0.653   8.498 -0.2399  0.2156 -1.1036
   69SLPC  H18S 5912   2.393   0.552   8.508  0.0321  0.4952 -0.4490
   69SLPC  H18T 5913   2.346   0.642   8.648  0.3911  1.1702 -0.5931
   69SLPC   C33 5914   2.659  -0.012  10.391 -0.2513  0.9055 -0.4211
   69SLPC   H3X 5915   2.548  -0.011  10.391 -0.2732  2.6788  0.4239
   69SLPC   H3Y 5916   2.697  -0.109  10.352 -0.7753  0.9952 -1.1817
   69SLPC   C34 5917   2.722   0.097  10.313 -0.3249  0.0768  0.5634
   69SLPC   H4X 5918   2.831   0.103  10.329 -0.4597 -0.2768  1.6680
   69SLPC   H4Y 5919   2.683   0.197  10.344 -0.3062  0.2750 -0.0287
   69SLPC   C35 5920   2.684   0.076  10.162 -0.6708  0.1654  0.5122
   69SLPC   H5X 5921   2.576   0.050  10.155 -0.0219 -2.8336  0.5029
   69SLPC   H5Y 5922   2.744  -0.014  10.139  1.0795  0.8892  2.0383
   69SLPC   C36 5923   2.739   0.203  10.079  0.0538 -0.2023  0.1839
   69SLPC   H6X 5924   2.846   0.216  10.105 -0.2936  1.0316  1.1045
   69SLPC   H6Y 5925   2.682   0.294  10.110 -2.7073 -1.8591  0.3534
   69SLPC   C37 5926   2.718   0.185   9.928 -0.8531 -0.0938 -0.6234
   69SLPC   H7X 5927   2.617   0.151   9.897 -0.1793 -0.5945 -2.3660
   69SLPC   H7Y 5928   2.788   0.102   9.906 -0.8561  0.3849 -2.5468
   69SLPC   C38 5929   2.745   0.318   9.848  0.2810 -0.0513 -0.4669
   69SLPC   H8X 5930   2.839   0.364   9.885  0.4426  0.8958 -1.9519
   69SLPC   H8Y 5931   2.665   0.387   9.882  0.4851 -1.2258  2.7139
   69SLPC   C39 5932   2.744   0.309   9.695  0.0420 -0.3042  0.4078
   69SLPC   H9X 5933   2.750   0.409   9.647  2.6722 -0.6926 -0.2063
   69SLPC   H9Y 5934   2.641   0.270   9.675 -0.2548 -0.8391  2.7063
   69SLPC  C310 5935   2.855   0.219   9.639  0.2646  0.0792 -0.0014
   69SLPC  H10X 5936   2.840   0.114   9.673 -0.1224  0.3994  0.8731
   69SLPC  H10Y 5937   2.954   0.243   9.684  1.3016 -0.6083 -1.8288
   69SLPC  C311 5938   2.865   0.230   9.489 -0.0995  0.1510  0.5431
   69SLPC  H11X 5939   2.898   0.331   9.457 -0.0201  0.0668  0.3579
   69SLPC  H11Y 5940   2.767   0.216   9.437  1.1647 -0.3686 -1.8276
   69SLPC  C312 5941   2.959   0.128   9.422 -0.0483  0.0853  0.6460
   69SLPC  H12X 5942   2.923   0.027   9.451 -0.3294 -0.4826 -1.5346
   69SLPC  H12Y 5943   3.064   0.134   9.458  1.7740 -2.1201 -3.5972
   69SLPC  C313 5944   2.980   0.133   9.270  0.1686  0.3760 -0.1979
   69SLPC  H13X 5945   2.894   0.077   9.229 -1.4694  1.4302  1.6262
   69SLPC  H13Y 5946   3.071   0.075   9.244 -1.2397 -1.5551 -1.0573
   69SLPC  C314 5947   2.985   0.278   9.204  0.0550 -0.5210  0.1430
   69SLPC  H14X 5948   3.057   0.340   9.262  0.5269  0.1865 -1.1428
   69SLPC  H14Y 5949   2.888   0.331   9.207  0.1835 -0.1096 -1.5488
   69SLPC  C315 5950   3.037   0.262   9.056 -0.0282  0.6686 -0.1375
   69SLPC  H15X 5951   3.076   0.158   9.047 -3.3968 -0.6650 -0.8618
   69SLPC  H15Y 5952   3.116   0.340   9.053 -1.3192  2.0167 -0.0171
   69SLPC  C316 5953   2.939   0.287   8.949  0.8872  0.4622  0.2228
   69SLPC  H16X 5954   2.868   0.201   8.951  0.2472  0.9615 -0.7117
   69SLPC  H16Y 5955   2.993   0.278   8.853  0.6195  0.4509  0.0718
   69SLPC  C317 5956   2.866   0.426   8.956 -0.1338  0.4304 -0.0478
   69SLPC  H17X 5957   2.941   0.500   8.990  0.9845 -1.2833  1.4283
   69SLPC  H17Y 5958   2.795   0.416   9.041  2.5601 -1.0268  2.1845
   69SLPC  C318 5959   2.812   0.482   8.824  0.6094 -0.1417  0.1413
   69SLPC  H18X 5960   2.897   0.492   8.754  3.0811  1.9310  3.1323
   69SLPC  H18Y 5961   2.771   0.584   8.838  0.7516  0.3116 -2.3058
   69SLPC  H18Z 5962   2.744   0.406   8.781 -0.0629  0.5563 -0.0523
   70SLPC     N 5963   2.886   5.203  11.251 -0.0739 -0.3508 -0.8468
   70SLPC   C13 5964   2.985   5.276  11.161 -0.1382 -0.0836  0.1178
   70SLPC  H13A 5965   3.078   5.286  11.215 -1.0982  1.6655  1.5711
   70SLPC  H13B 5966   2.993   5.225  11.067 -2.5656 -0.5969  0.1303
   70SLPC  H13C 5967   2.956   5.375  11.130 -1.9034 -1.1950 -2.0620
   70SLPC   C14 5968   2.846   5.302  11.359 -0.0835 -0.2046  0.7264
   70SLPC  H14A 5969   2.935   5.335  11.411  1.8644  1.2265 -3.1065
   70SLPC  H14B 5970   2.806   5.388  11.308 -2.5854 -1.3897  0.5355
   70SLPC  H14C 5971   2.774   5.258  11.426  0.9498 -0.2209  1.8729
   70SLPC   C15 5972   2.967   5.097  11.314  0.5294  0.1378 -0.1494
   70SLPC  H15A 5973   3.008   5.028  11.242  0.2867  1.2790 -1.4296
   70SLPC  H15B 5974   3.048   5.133  11.376  0.1664 -1.2692  1.2138
   70SLPC  H15C 5975   2.906   5.040  11.383 -1.4016 -0.1205 -1.9870
   70SLPC   C12 5976   2.767   5.167  11.171  0.0726  0.1834 -0.3981
   70SLPC  H12A 5977   2.723   5.251  11.119 -0.9043  0.2003  0.4157
   70SLPC  H12B 5978   2.687   5.124  11.230 -0.1989 -0.9789 -1.5640
   70SLPC   C11 5979   2.783   5.053  11.064  0.4036  0.4320 -0.1514
   70SLPC  H11A 5980   2.804   4.957  11.116  2.1444  1.5912  1.4106
   70SLPC  H11B 5981   2.865   5.086  10.996  0.6782 -1.1659 -0.6278
   70SLPC     P 5982   2.597   5.154  10.910 -0.2472 -0.0081 -0.0863
   70SLPC   O13 5983   2.470   5.187  10.969 -0.1902  0.0024  0.3343
   70SLPC   O14 5984   2.688   5.270  10.900 -0.1208  0.7745 -0.2855
   70SLPC   O12 5985   2.660   5.028  10.987 -0.1814  0.2691  0.4430
   70SLPC   O11 5986   2.566   5.107  10.765  0.1803 -0.5588  0.3962
   70SLPC    C1 5987   2.605   4.975  10.719 -0.4359 -0.5347  0.1777
   70SLPC    HA 5988   2.687   4.931  10.780 -0.5392 -1.7107 -0.4888
   70SLPC    HB 5989   2.520   4.904  10.722  0.0186 -1.0934  0.0754
   70SLPC    C2 5990   2.647   4.977  10.566 -0.3415 -1.5404 -0.4439
   70SLPC    HS 5991   2.745   5.029  10.567 -0.9202 -0.4201 -0.5391
   70SLPC   O21 5992   2.553   5.053  10.487 -0.4430  0.0857  0.4355
   70SLPC   C21 5993   2.596   5.177  10.441  0.4912 -0.1958 -0.5517
   70SLPC   O22 5994   2.704   5.230  10.461  0.9168  0.2719  0.1832
   70SLPC   C22 5995   2.475   5.215  10.347 -0.5204  0.0785 -0.4096
   70SLPC   H2R 5996   2.447   5.119  10.298  3.5435 -1.8457  0.5181
   70SLPC   H2S 5997   2.403   5.256  10.420  1.0548  3.0560 -0.3640
   70SLPC    C3 5998   2.667   4.838  10.508 -0.4743  0.2328  0.2280
   70SLPC    HX 5999   2.567   4.791  10.508 -0.3618 -0.0506  1.6150
   70SLPC    HY 6000   2.724   4.769  10.574 -1.2174 -1.5833 -0.9568
   70SLPC   O31 6001   2.732   4.844  10.383  0.5902  0.1047 -0.4130
   70SLPC   C31 6002   2.666   4.854  10.272 -0.0281 -0.4965  0.8596
   70SLPC   O32 6003   2.548   4.868  10.250  0.4887 -0.3697 -0.2059
   70SLPC   C32 6004   2.769   4.845  10.158 -0.4758 -0.2183  0.4674
   70SLPC   H2X 6005   2.835   4.755  10.153  2.6568  1.9874 -2.5606
   70SLPC   H2Y 6006   2.844   4.925  10.176 -0.9363  0.3950 -0.2979
   70SLPC   C23 6007   2.513   5.311  10.236 -0.4984  0.5210  0.0570
   70SLPC   H3R 6008   2.567   5.394  10.286  1.3737  0.0411 -1.0773
   70SLPC   H3S 6009   2.419   5.357  10.199 -0.2936  2.4122  1.7171
   70SLPC   C24 6010   2.596   5.242  10.121 -0.0610  0.5336 -0.5886
   70SLPC   H4R 6011   2.528   5.170  10.070  0.4304  0.0982 -0.6317
   70SLPC   H4S 6012   2.673   5.182  10.174 -1.5876 -1.6875 -0.7754
   70SLPC   C25 6013   2.652   5.332  10.011  1.0729 -0.1691 -0.5269
   70SLPC   H5R 6014   2.722   5.408  10.051 -1.1904  1.8539 -0.1781
   70SLPC   H5S 6015   2.573   5.388   9.958 -0.8442  0.9418  3.1534
   70SLPC   C26 6016   2.711   5.254   9.894 -0.4355 -0.2861  0.2559
   70SLPC   H6R 6017   2.685   5.146   9.892  0.4995 -0.6202  2.6194
   70SLPC   H6S 6018   2.816   5.248   9.929 -0.0296  1.2453 -0.6080
   70SLPC   C27 6019   2.696   5.322   9.757  0.0354  0.7989 -0.0743
   70SLPC   H7R 6020   2.776   5.395   9.732  0.8921 -0.0155  0.2351
   70SLPC   H7S 6021   2.595   5.367   9.757 -0.8919 -1.1213 -1.4817
   70SLPC   C28 6022   2.681   5.225   9.632  1.2043 -0.0495  0.8444
   70SLPC   H8R 6023   2.633   5.279   9.548 -1.0753 -3.0587  0.0101
   70SLPC   H8S 6024   2.625   5.136   9.670  1.4991  0.2494  2.0252
   70SLPC   C29 6025   2.818   5.177   9.586 -0.9748 -1.1219 -0.5130
   70SLPC   H9R 6026   2.887   5.150   9.667 -1.3021  1.9457  0.8951
   70SLPC  C210 6027   2.860   5.169   9.458  0.7396 -0.6959  0.0760
   70SLPC  H10R 6028   2.965   5.142   9.442  0.2774 -1.4056 -2.1168
   70SLPC  C211 6029   2.786   5.219   9.333  0.3709 -0.6164  0.4769
   70SLPC  H11R 6030   2.821   5.324   9.320  0.4675 -0.8417 -1.2586
   70SLPC  H11S 6031   2.677   5.232   9.352  0.8141  0.8461  2.4164
   70SLPC  C212 6032   2.820   5.142   9.205  0.0002  0.0968 -0.1237
   70SLPC  H12R 6033   2.805   5.033   9.206 -0.2779  0.0963  2.6328
   70SLPC  C213 6034   2.860   5.198   9.087  0.2330  0.9731  0.1033
   70SLPC  H13R 6035   2.885   5.133   9.002  3.3642  0.8772  0.9596
   70SLPC  C214 6036   2.877   5.342   9.048  0.5457 -0.4231 -0.3284
   70SLPC  H14R 6037   2.973   5.358   8.995  0.7535 -1.6693 -0.3566
   70SLPC  H14S 6038   2.877   5.415   9.131 -1.9079  1.9533 -2.2180
   70SLPC  C215 6039   2.767   5.395   8.953  0.1093 -0.1659  0.3723
   70SLPC  H15R 6040   2.673   5.394   9.013 -0.0317  2.6603  0.3632
   70SLPC  H15S 6041   2.763   5.319   8.872 -2.1078 -0.5049  0.7309
   70SLPC  C216 6042   2.789   5.540   8.909  0.5944 -0.4737 -0.6732
   70SLPC  H16R 6043   2.790   5.603   9.000 -0.0877 -1.1930 -0.1576
   70SLPC  H16S 6044   2.702   5.571   8.848 -0.9734  0.6882  1.9692
   70SLPC  C217 6045   2.922   5.559   8.844 -0.0931  0.2006  0.5722
   70SLPC  H17R 6046   2.942   5.500   8.752 -2.1506  1.5340 -0.8306
   70SLPC  H17S 6047   3.007   5.539   8.912  0.8178 -1.6104 -0.9783
   70SLPC  C218 6048   2.929   5.704   8.792 -0.1348  0.4861  0.0279
   70SLPC  H18R 6049   3.002   5.718   8.710 -2.5185 -0.3804 -2.3608
   70SLPC  H18S 6050   2.933   5.773   8.879 -2.5175  2.0180 -0.9702
   70SLPC  H18T 6051   2.831   5.724   8.744  0.6703  2.3111 -0.9381
   70SLPC   C33 6052   2.713   4.865  10.020 -1.0845 -0.8747  0.7199
   70SLPC   H3X 6053   2.704   4.973   9.999 -0.8534 -1.2508 -1.5634
   70SLPC   H3Y 6054   2.610   4.822  10.012 -0.3919 -2.6998  1.0214
   70SLPC   C34 6055   2.794   4.805   9.903  0.0296  0.6329  0.4058
   70SLPC   H4X 6056   2.813   4.696   9.917  1.4618  0.9582  1.1747
   70SLPC   H4Y 6057   2.891   4.858   9.902  1.2285 -1.3651  2.2909
   70SLPC   C35 6058   2.734   4.842   9.764  0.7222  0.3600  0.7292
   70SLPC   H5X 6059   2.745   4.952   9.755  1.6579  0.1325 -1.9326
   70SLPC   H5Y 6060   2.627   4.815   9.752  1.0509 -0.4700 -0.5002
   70SLPC   C36 6061   2.812   4.770   9.644  0.2736  0.2382  0.3303
   70SLPC   H6X 6062   2.824   4.661   9.663  1.9113  0.2308 -0.5948
   70SLPC   H6Y 6063   2.915   4.811   9.632  0.3616 -0.5565 -2.1115
   70SLPC   C37 6064   2.740   4.787   9.518  0.5410  0.2309  0.2019
   70SLPC   H7X 6065   2.740   4.897   9.500 -0.4246 -0.1633 -2.8217
   70SLPC   H7Y 6066   2.635   4.751   9.523  0.8275 -0.5159  1.0569
   70SLPC   C38 6067   2.814   4.720   9.404 -0.5412 -0.2346  0.3928
   70SLPC   H8X 6068   2.833   4.614   9.431 -3.5660 -0.6523  1.3242
   70SLPC   H8Y 6069   2.912   4.771   9.389 -1.5551  1.0436 -2.8113
   70SLPC   C39 6070   2.741   4.739   9.274 -0.1826 -0.4804  0.0970
   70SLPC   H9X 6071   2.716   4.846   9.261 -0.3452 -0.6064 -0.6562
   70SLPC   H9Y 6072   2.638   4.698   9.283 -0.8101  1.2144  1.0947
   70SLPC  C310 6073   2.807   4.682   9.142 -0.3002 -0.7623  0.2579
   70SLPC  H10X 6074   2.739   4.707   9.058  0.1373  0.1379  0.1594
   70SLPC  H10Y 6075   2.814   4.571   9.156 -2.7082 -1.2585 -1.7796
   70SLPC  C311 6076   2.948   4.737   9.115  0.4505 -0.7414  0.9509
   70SLPC  H11X 6077   3.014   4.710   9.201 -0.6160 -0.8282  1.7617
   70SLPC  H11Y 6078   2.945   4.848   9.108  1.1001 -0.6723  1.5762
   70SLPC  C312 6079   3.016   4.681   8.987  0.5891 -0.1141  0.0433
   70SLPC  H12X 6080   2.962   4.723   8.900 -0.0864  0.3798  0.6921
   70SLPC  H12Y 6081   3.014   4.570   8.980  1.4968 -0.0235 -3.7659
   70SLPC  C313 6082   3.166   4.721   8.974 -0.6213 -0.8586 -0.5921
   70SLPC  H13X 6083   3.224   4.705   9.067 -2.6613  1.2824  1.1843
   70SLPC  H13Y 6084   3.157   4.831   8.961 -0.8099 -0.5087  2.0215
   70SLPC  C314 6085   3.237   4.662   8.854  0.0022  0.0363  0.2565
   70SLPC  H14X 6086   3.276   4.560   8.872 -0.8791 -0.5981 -1.1758
   70SLPC  H14Y 6087   3.323   4.724   8.821 -1.5159  0.3689 -3.5985
   70SLPC  C315 6088   3.144   4.654   8.733  0.1398  0.3529  0.1013
   70SLPC  H15X 6089   3.097   4.751   8.707  1.2078  1.2687  1.4543
   70SLPC  H15Y 6090   3.059   4.583   8.746 -0.1825  0.7644  0.2581
   70SLPC  C316 6091   3.221   4.597   8.611  0.7741 -0.2821 -0.7508
   70SLPC  H16X 6092   3.267   4.499   8.636 -1.4043 -1.4367 -0.9427
   70SLPC  H16Y 6093   3.302   4.666   8.581  0.3738  0.4360 -0.2075
   70SLPC  C317 6094   3.131   4.589   8.489  0.2337 -0.0549  0.2985
   70SLPC  H17X 6095   3.066   4.677   8.469 -0.3800 -0.7092 -0.7078
   70SLPC  H17Y 6096   3.061   4.503   8.494 -1.0144  1.0031  3.5010
   70SLPC  C318 6097   3.209   4.580   8.360  0.1652  0.1005 -0.3146
   70SLPC  H18X 6098   3.231   4.678   8.313  0.7596 -0.0244 -0.2992
   70SLPC  H18Y 6099   3.168   4.513   8.282  0.8155 -0.9248  0.2157
   70SLPC  H18Z 6100   3.308   4.536   8.382 -0.0145 -0.8810 -1.3817
   71SLPC     N 6101   2.040   4.854  10.753 -0.4182  0.1213  0.3897
   71SLPC   C13 6102   1.940   4.954  10.801  0.8539  0.1026  0.0867
   71SLPC  H13A 6103   1.993   5.047  10.807  0.6436  0.1346  2.2567
   71SLPC  H13B 6104   1.849   4.950  10.741  0.5920  0.7701  0.4392
   71SLPC  H13C 6105   1.916   4.931  10.903  1.1110  0.5969  0.2579
   71SLPC   C14 6106   1.956   4.732  10.732  0.2686 -0.2051 -0.5053
   71SLPC  H14A 6107   1.927   4.684  10.824  0.6576  0.5560  0.0262
   71SLPC  H14B 6108   1.875   4.751  10.663  0.3478 -0.6723 -0.7345
   71SLPC  H14C 6109   2.011   4.660  10.673  0.6924 -0.1311 -0.1992
   71SLPC   C15 6110   2.156   4.832  10.851  1.0658  0.2973 -0.4281
   71SLPC  H15A 6111   2.201   4.924  10.885  0.4164  0.6625 -0.5307
   71SLPC  H15B 6112   2.105   4.783  10.933 -0.0029 -0.9820 -1.7882
   71SLPC  H15C 6113   2.236   4.774  10.806  1.8627  1.7947 -0.9991
   71SLPC   C12 6114   2.093   4.900  10.619 -0.2395  0.7082  0.2963
   71SLPC  H12A 6115   2.158   4.984  10.637 -0.8429  1.1240  0.5502
   71SLPC  H12B 6116   2.016   4.938  10.552  0.8485  2.1792 -0.1582
   71SLPC   C11 6117   2.178   4.800  10.531 -0.0303 -0.0881  0.6770
   71SLPC  H11A 6118   2.214   4.852  10.439  2.1776 -3.4212 -0.5317
   71SLPC  H11B 6119   2.104   4.727  10.492  1.9796 -0.1043 -3.7146
   71SLPC     P 6120   2.315   4.585  10.592 -0.1921 -0.1939 -0.1319
   71SLPC   O13 6121   2.458   4.569  10.634  0.0080 -0.3240  0.1059
   71SLPC   O14 6122   2.209   4.515  10.673 -0.7336 -0.1340  0.0988
   71SLPC   O12 6123   2.288   4.739  10.596  0.3184  0.6322 -1.0750
   71SLPC   O11 6124   2.295   4.550  10.447  0.8454  0.1950 -0.2631
   71SLPC    C1 6125   2.370   4.596  10.334 -0.3494 -0.3433  0.3655
   71SLPC    HA 6126   2.301   4.633  10.256  3.2760  1.0509 -2.4561
   71SLPC    HB 6127   2.430   4.686  10.358  1.1177 -1.8556  2.9236
   71SLPC    C2 6128   2.461   4.491  10.270  0.0886 -0.3426  0.1985
   71SLPC    HS 6129   2.558   4.527  10.312 -0.9769  2.7239  0.2772
   71SLPC   O21 6130   2.450   4.501  10.130  0.2195  0.3891 -0.0128
   71SLPC   C21 6131   2.560   4.529  10.064  0.0168 -0.1138 -0.8970
   71SLPC   O22 6132   2.669   4.544  10.114 -0.3335 -0.2957  0.2058
   71SLPC   C22 6133   2.537   4.523   9.914  0.3547 -0.4760 -0.2617
   71SLPC   H2R 6134   2.441   4.579   9.914  0.9258  0.5345 -0.9475
   71SLPC   H2S 6135   2.608   4.583   9.854  1.5989 -2.8216 -1.2616
   71SLPC    C3 6136   2.433   4.346  10.312  0.5221 -0.5009  0.3262
   71SLPC    HX 6137   2.334   4.317  10.271 -1.1979  0.1535  3.6642
   71SLPC    HY 6138   2.427   4.326  10.422  2.9157 -1.2454  0.4000
   71SLPC   O31 6139   2.526   4.253  10.256 -0.5304 -0.3056  0.1894
   71SLPC   C31 6140   2.642   4.220  10.313  0.2365 -0.4230  0.1890
   71SLPC   O32 6141   2.678   4.272  10.418 -0.1510 -0.1171  0.1836
   71SLPC   C32 6142   2.706   4.105  10.240 -0.6532  0.1109 -0.8852
   71SLPC   H2X 6143   2.655   4.089  10.144  1.0494 -2.4491 -1.4541
   71SLPC   H2Y 6144   2.700   4.017  10.308  0.7697 -0.2899 -1.2377
   71SLPC   C23 6145   2.521   4.383   9.854  0.9416  0.0136 -0.0911
   71SLPC   H3R 6146   2.462   4.305   9.907 -2.7170 -1.1629 -5.0732
   71SLPC   H3S 6147   2.619   4.338   9.829  0.2524 -1.1489 -0.8348
   71SLPC   C24 6148   2.455   4.405   9.714  0.1388 -0.2991  0.2938
   71SLPC   H4R 6149   2.347   4.420   9.735 -0.2171  0.0129 -1.5770
   71SLPC   H4S 6150   2.452   4.306   9.663  2.6431 -0.5590  0.5295
   71SLPC   C25 6151   2.502   4.517   9.616 -0.4222  0.1267 -0.1716
   71SLPC   H5R 6152   2.610   4.495   9.606 -0.4235 -3.2841  4.3760
   71SLPC   H5S 6153   2.489   4.617   9.663  1.2630 -0.1610  1.0316
   71SLPC   C26 6154   2.433   4.515   9.477  0.2648  0.1938  0.5099
   71SLPC   H6R 6155   2.466   4.610   9.428  0.8560 -1.2271 -2.0482
   71SLPC   H6S 6156   2.323   4.518   9.492  0.0394  0.3207 -0.9432
   71SLPC   C27 6157   2.457   4.390   9.392  0.2375  0.2520 -1.1514
   71SLPC   H7R 6158   2.375   4.394   9.317 -0.7310 -2.3802 -0.3256
   71SLPC   H7S 6159   2.461   4.299   9.455  0.8054  2.3366  2.0835
   71SLPC   C28 6160   2.597   4.398   9.317  0.2320 -0.1535 -0.4590
   71SLPC   H8R 6161   2.681   4.420   9.386 -0.2709  1.0569 -0.2226
   71SLPC   H8S 6162   2.599   4.485   9.249  0.6785  0.0613 -0.1769
   71SLPC   C29 6163   2.650   4.266   9.255  0.2905 -0.8734 -0.0870
   71SLPC   H9R 6164   2.697   4.204   9.333  1.5314 -1.0328 -0.9331
   71SLPC  C210 6165   2.634   4.226   9.136  0.8231  0.0119  0.2398
   71SLPC  H10R 6166   2.672   4.125   9.113 -0.1683 -0.1364 -0.8451
   71SLPC  C211 6167   2.560   4.301   9.021 -0.4545 -0.7485 -0.3142
   71SLPC  H11R 6168   2.601   4.403   9.005  0.4923 -1.1167 -0.3012
   71SLPC  H11S 6169   2.455   4.319   9.052 -0.4214  2.6085 -1.7285
   71SLPC  C212 6170   2.560   4.218   8.889 -0.1637 -0.2672 -0.7748
   71SLPC  H12R 6171   2.538   4.111   8.901  0.3286 -0.3474 -0.5573
   71SLPC  C213 6172   2.628   4.259   8.779  0.3559  0.0870  0.0865
   71SLPC  H13R 6173   2.646   4.190   8.695 -0.2579 -0.4585  0.3927
   71SLPC  C214 6174   2.699   4.390   8.765  0.0789  0.3586 -0.3162
   71SLPC  H14R 6175   2.803   4.382   8.803  0.0893  1.6726 -0.0269
   71SLPC  H14S 6176   2.650   4.474   8.819  0.7634  0.5164  0.0718
   71SLPC  C215 6177   2.705   4.432   8.616 -0.3778 -0.0559  0.6122
   71SLPC  H15R 6178   2.606   4.418   8.568 -0.1544  0.4481 -0.0112
   71SLPC  H15S 6179   2.771   4.359   8.564 -0.1139 -0.9944  2.1892
   71SLPC  C216 6180   2.761   4.579   8.600 -0.4652 -0.0700  0.9718
   71SLPC  H16R 6181   2.866   4.580   8.636 -0.4391 -1.1989  0.9613
   71SLPC  H16S 6182   2.698   4.646   8.661  0.7366  2.4350 -0.3590
   71SLPC  C217 6183   2.746   4.626   8.456  0.7003  0.2281 -0.5012
   71SLPC  H17R 6184   2.820   4.564   8.401 -1.0780 -1.9446 -0.5733
   71SLPC  H17S 6185   2.788   4.729   8.445  0.2447  0.5389  0.5700
   71SLPC  C218 6186   2.606   4.624   8.396 -0.5585  0.3665  0.4704
   71SLPC  H18R 6187   2.601   4.703   8.319  1.3361  0.1073  0.0473
   71SLPC  H18S 6188   2.525   4.643   8.470 -0.4335 -0.9105  0.9786
   71SLPC  H18T 6189   2.576   4.530   8.344  0.6510  0.4642 -0.4204
   71SLPC   C33 6190   2.852   4.149  10.211  0.1882 -0.2811 -0.2872
   71SLPC   H3X 6191   2.906   4.182  10.303 -1.7131  0.3723  0.6412
   71SLPC   H3Y 6192   2.844   4.239  10.147 -1.6186 -0.7534 -0.7794
   71SLPC   C34 6193   2.923   4.042  10.128 -0.6838  0.4021 -0.1726
   71SLPC   H4X 6194   2.871   4.036  10.030  0.5497  2.6963 -1.0566
   71SLPC   H4Y 6195   2.916   3.941  10.172  2.1531 -0.8464 -2.2244
   71SLPC   C35 6196   3.075   4.075  10.114 -0.0425 -0.2124  0.1688
   71SLPC   H5X 6197   3.120   4.061  10.215  4.5688 -1.2069 -1.7954
   71SLPC   H5Y 6198   3.085   4.181  10.081  0.6530  0.0419  1.1323
   71SLPC   C36 6199   3.142   3.996  10.006 -0.0242 -0.2140 -0.2879
   71SLPC   H6X 6200   3.099   3.893  10.009  1.7280 -1.0825 -2.2247
   71SLPC   H6Y 6201   3.248   3.985  10.038 -0.6956 -2.1393  1.5683
   71SLPC   C37 6202   3.124   4.041   9.863  0.1443 -0.0277 -0.1569
   71SLPC   H7X 6203   3.177   4.137   9.845 -0.6693  0.3546 -0.5458
   71SLPC   H7Y 6204   3.018   4.070   9.847 -0.2220 -0.5961  1.1079
   71SLPC   C38 6205   3.168   3.934   9.764 -0.2362  0.0342 -0.5398
   71SLPC   H8X 6206   3.089   3.856   9.767 -0.3189  0.1295  1.9401
   71SLPC   H8Y 6207   3.261   3.881   9.795 -1.5585  0.1060  4.2252
   71SLPC   C39 6208   3.164   3.990   9.626  0.2312 -0.0981  0.0998
   71SLPC   H9X 6209   3.226   4.082   9.615 -0.8663  0.6994  0.3629
   71SLPC   H9Y 6210   3.067   4.026   9.584 -1.1076 -2.8367  0.6624
   71SLPC  C310 6211   3.214   3.892   9.520  0.4595 -1.2862  0.5127
   71SLPC  H10X 6212   3.175   3.790   9.536  1.1412 -2.6661 -4.6949
   71SLPC  H10Y 6213   3.325   3.892   9.527  0.4124 -0.7504  1.3387
   71SLPC  C311 6214   3.190   3.941   9.377  0.3790 -0.1039 -0.5698
   71SLPC  H11X 6215   3.233   4.044   9.367 -0.8388  0.7416  2.0130
   71SLPC  H11Y 6216   3.081   3.945   9.360  0.0674 -0.8482  1.1367
   71SLPC  C312 6217   3.257   3.840   9.285  0.1281  0.3549 -0.3018
   71SLPC  H12X 6218   3.211   3.742   9.307 -1.7379  1.2328 -0.1538
   71SLPC  H12Y 6219   3.365   3.832   9.312 -0.2582  0.0883  1.2476
   71SLPC  C313 6220   3.249   3.865   9.144 -0.3320  1.0376 -0.3412
   71SLPC  H13X 6221   3.314   3.950   9.116 -0.1083  0.1855 -2.6879
   71SLPC  H13Y 6222   3.152   3.885   9.094 -0.0369  0.5475 -1.1278
   71SLPC  C314 6223   3.297   3.728   9.076  0.3791  0.5132  0.0963
   71SLPC  H14X 6224   3.252   3.641   9.129 -0.4011  1.1090  0.4435
   71SLPC  H14Y 6225   3.407   3.729   9.088  0.3882  0.6069 -0.0052
   71SLPC  C315 6226   3.266   3.705   8.930  1.1679 -0.1732 -0.2680
   71SLPC  H15X 6227   3.294   3.794   8.870  2.2285  0.3184  0.8979
   71SLPC  H15Y 6228   3.155   3.695   8.920  0.7957 -1.1358  3.2517
   71SLPC  C316 6229   3.334   3.589   8.861 -0.3198 -0.2902 -0.5442
   71SLPC  H16X 6230   3.295   3.564   8.760  1.6313  2.3707 -2.0780
   71SLPC  H16Y 6231   3.331   3.506   8.935 -0.6325  1.1273  1.0918
   71SLPC  C317 6232   3.492   3.603   8.838 -0.4408  0.2878  0.4653
   71SLPC  H17X 6233   3.540   3.629   8.935 -0.3679  2.1713 -0.0336
   71SLPC  H17Y 6234   3.506   3.687   8.767  0.0289  1.8448  2.3208
   71SLPC  C318 6235   3.553   3.475   8.774  0.4266 -0.4306  0.4990
   71SLPC  H18X 6236   3.662   3.495   8.771  0.2546  0.5221  0.0557
   71SLPC  H18Y 6237   3.511   3.458   8.673 -1.4118  0.6309  1.0393
   71SLPC  H18Z 6238   3.538   3.379   8.828  0.9774 -0.6930  0.1895
   72SLPC     N 6239   4.781   1.904  11.126 -0.2438  0.5589 -0.0899
   72SLPC   C13 6240   4.924   1.854  11.152  0.4693 -0.8208 -0.8491
   72SLPC  H13A 6241   4.916   1.777  11.227 -0.6728 -1.8894 -2.0210
   72SLPC  H13B 6242   4.966   1.804  11.066  3.7425 -0.2500  0.2895
   72SLPC  H13C 6243   4.990   1.935  11.178  0.5957 -1.7405  2.0836
   72SLPC   C14 6244   4.735   1.958  11.259 -0.5177 -0.4719 -0.4754
   72SLPC  H14A 6245   4.725   1.873  11.325 -0.1493  1.0799  1.6928
   72SLPC  H14B 6246   4.806   2.034  11.288  0.3670 -0.8264 -1.6296
   72SLPC  H14C 6247   4.637   2.003  11.253  1.1033  3.3888 -1.2795
   72SLPC   C15 6248   4.694   1.790  11.086  0.4913  0.2943  0.4316
   72SLPC  H15A 6249   4.590   1.813  11.100  0.1852 -0.7691 -0.0344
   72SLPC  H15B 6250   4.726   1.750  10.992 -0.0126 -0.5921  0.6329
   72SLPC  H15C 6251   4.714   1.707  11.152 -1.6720 -0.0410  0.7351
   72SLPC   C12 6252   4.762   2.020  11.019 -0.5861  0.2364 -0.1817
   72SLPC  H12A 6253   4.783   2.113  11.070  0.4851  0.4525 -0.9672
   72SLPC  H12B 6254   4.658   2.012  10.991 -0.6989 -0.7702  0.4596
   72SLPC   C11 6255   4.841   2.011  10.881  0.0085 -0.4254 -0.5376
   72SLPC  H11A 6256   4.946   2.038  10.907  0.5958 -1.4929 -1.6773
   72SLPC  H11B 6257   4.807   2.091  10.812  2.2120 -0.7041 -2.0559
   72SLPC     P 6258   4.712   1.847  10.726  0.0451  0.0975  0.1158
   72SLPC   O13 6259   4.738   1.715  10.666  0.5016 -0.0595  0.5008
   72SLPC   O14 6260   4.585   1.859  10.801  0.1989  0.3701  0.4713
   72SLPC   O12 6261   4.836   1.876  10.821 -0.3484  0.2005  0.4304
   72SLPC   O11 6262   4.719   1.955  10.614 -0.6381 -0.2215 -0.1078
   72SLPC    C1 6263   4.839   1.966  10.535  0.1449 -0.1682  0.5759
   72SLPC    HA 6264   4.929   1.982  10.597  1.6552 -1.7564 -1.0985
   72SLPC    HB 6265   4.852   1.875  10.472  2.2773  1.1743 -1.0804
   72SLPC    C2 6266   4.814   2.068  10.418 -0.0068  0.0034  0.5013
   72SLPC    HS 6267   4.758   2.151  10.467 -2.4205 -1.1472 -0.1708
   72SLPC   O21 6268   4.738   2.009  10.313  0.2696  0.0787 -0.0734
   72SLPC   C21 6269   4.687   2.094  10.227 -0.0073  0.4254 -0.4493
   72SLPC   O22 6270   4.673   2.214  10.250  0.5125 -0.2073  0.3490
   72SLPC   C22 6271   4.643   2.009  10.106 -0.0306 -0.4333  0.0776
   72SLPC   H2R 6272   4.738   1.997  10.049  1.5704 -0.8215  2.6717
   72SLPC   H2S 6273   4.621   1.907  10.144  2.7574 -1.1508 -0.0162
   72SLPC    C3 6274   4.951   2.125  10.367  0.3022 -0.0512  0.0651
   72SLPC    HX 6275   4.994   2.184  10.451 -1.3718 -0.6543  1.3975
   72SLPC    HY 6276   4.929   2.193  10.283 -0.1008  0.2809  0.4382
   72SLPC   O31 6277   5.044   2.020  10.325 -0.2800  0.6193 -0.0889
   72SLPC   C31 6278   5.051   1.998  10.191 -0.4799  0.1734  0.1356
   72SLPC   O32 6279   4.989   2.048  10.100 -0.2711  0.0771 -0.4073
   72SLPC   C32 6280   5.166   1.895  10.179  0.3535  0.1522  0.0503
   72SLPC   H2X 6281   5.141   1.810  10.246  0.8939  0.3358  0.4889
   72SLPC   H2Y 6282   5.250   1.952  10.224  0.1556 -0.9482  1.9001
   72SLPC   C23 6283   4.534   2.066  10.002 -0.2498 -0.1534 -0.4016
   72SLPC   H3R 6284   4.442   2.098  10.055  1.6928  1.2609  2.3762
   72SLPC   H3S 6285   4.490   1.991   9.933 -2.9692  2.1397 -1.3218
   72SLPC   C24 6286   4.586   2.179   9.920  0.9804 -0.1658  0.5493
   72SLPC   H4R 6287   4.619   2.260   9.988  1.9773 -0.0209 -0.0837
   72SLPC   H4S 6288   4.498   2.216   9.863 -1.0553 -1.5733  2.5967
   72SLPC   C25 6289   4.697   2.139   9.823 -0.1939  0.6754 -0.0044
   72SLPC   H5R 6290   4.648   2.068   9.752  0.3469 -0.0247  0.3099
   72SLPC   H5S 6291   4.780   2.090   9.878  1.2302  2.1097 -0.7806
   72SLPC   C26 6292   4.758   2.264   9.755  0.3969  0.6775 -0.3340
   72SLPC   H6R 6293   4.846   2.229   9.696  0.0783  0.4791 -0.6985
   72SLPC   H6S 6294   4.794   2.324   9.841  0.6163  0.3332 -0.1881
   72SLPC   C27 6295   4.666   2.328   9.655 -0.7880 -0.2148 -0.0405
   72SLPC   H7R 6296   4.717   2.418   9.615 -1.6460  0.4653  0.3659
   72SLPC   H7S 6297   4.585   2.380   9.710  0.4107 -1.2753  2.9271
   72SLPC   C28 6298   4.616   2.245   9.541 -0.0487 -0.0419  0.5888
   72SLPC   H8R 6299   4.551   2.165   9.582  0.9193 -2.1576 -1.7580
   72SLPC   H8S 6300   4.698   2.187   9.494 -0.6327 -0.8020  0.5024
   72SLPC   C29 6301   4.537   2.333   9.448  0.6924 -0.3386  0.5139
   72SLPC   H9R 6302   4.448   2.377   9.496  1.1752 -1.0803  2.1470
   72SLPC  C210 6303   4.569   2.361   9.317 -0.0019 -0.4945  0.0798
   72SLPC  H10R 6304   4.494   2.421   9.263  0.3884  2.1040  2.2406
   72SLPC  C211 6305   4.685   2.312   9.234  0.5492  0.6636 -0.1933
   72SLPC  H11R 6306   4.641   2.243   9.158 -0.8279  1.8833 -0.5267
   72SLPC  H11S 6307   4.760   2.258   9.296  0.0783 -0.2621 -0.4148
   72SLPC  C212 6308   4.755   2.428   9.164 -0.7669 -0.4176 -0.5300
   72SLPC  H12R 6309   4.777   2.516   9.226  2.3123 -1.0018 -0.6152
   72SLPC  C213 6310   4.808   2.425   9.040 -0.0371  0.0548 -0.6555
   72SLPC  H13R 6311   4.853   2.515   8.996  0.8891 -0.5166 -0.9085
   72SLPC  C214 6312   4.812   2.301   8.952 -0.6843 -0.6125  0.4134
   72SLPC  H14R 6313   4.784   2.208   9.006 -1.4504  0.1653  1.4021
   72SLPC  H14S 6314   4.908   2.292   8.898 -0.4220 -0.8606  0.9200
   72SLPC  C215 6315   4.693   2.314   8.852 -0.8999 -0.4143  0.7324
   72SLPC  H15R 6316   4.592   2.330   8.895 -1.3278  0.1964 -0.4717
   72SLPC  H15S 6317   4.683   2.218   8.797 -1.5797 -0.5342  1.0571
   72SLPC  C216 6318   4.707   2.434   8.760  0.1244 -0.2068 -0.2233
   72SLPC  H16R 6319   4.790   2.424   8.686 -0.4150  3.6443 -1.5859
   72SLPC  H16S 6320   4.717   2.530   8.816  1.3142  1.3393 -2.8912
   72SLPC  C217 6321   4.576   2.443   8.679 -0.0017  0.1891  0.0651
   72SLPC  H17R 6322   4.487   2.420   8.743 -1.0577  1.4150 -0.8984
   72SLPC  H17S 6323   4.578   2.362   8.603  0.4318 -1.3257  1.6324
   72SLPC  C218 6324   4.537   2.569   8.614  0.9713 -0.0422 -0.6250
   72SLPC  H18R 6325   4.509   2.656   8.677 -1.2581 -0.3790 -1.0754
   72SLPC  H18S 6326   4.458   2.562   8.536  0.3257  1.5634 -0.1631
   72SLPC  H18T 6327   4.623   2.604   8.552 -0.0434 -0.4521 -2.3377
   72SLPC   C33 6328   5.201   1.837  10.035  0.0047 -0.5097  0.3826
   72SLPC   H3X 6329   5.110   1.814   9.976  0.5103 -1.7895  0.0800
   72SLPC   H3Y 6330   5.261   1.745  10.047  3.6968  1.2600 -2.4525
   72SLPC   C34 6331   5.281   1.929   9.948  0.1409 -0.1935  0.0516
   72SLPC   H4X 6332   5.371   1.968  10.001  0.7467 -1.5383  0.0667
   72SLPC   H4Y 6333   5.216   2.014   9.917  1.3420  1.7316  2.4587
   72SLPC   C35 6334   5.340   1.852   9.828 -0.3009 -0.0073 -0.3112
   72SLPC   H5X 6335   5.260   1.822   9.757  0.0113 -0.6083 -0.4120
   72SLPC   H5Y 6336   5.396   1.762   9.861  0.5054  0.3937 -0.5659
   72SLPC   C36 6337   5.432   1.949   9.757 -0.0181  0.3719  0.4621
   72SLPC   H6X 6338   5.496   2.011   9.824  3.2723 -2.3774  0.1732
   72SLPC   H6Y 6339   5.362   2.018   9.705  0.5071  0.2676 -0.4059
   72SLPC   C37 6340   5.520   1.880   9.651  0.7172 -0.0905 -0.5693
   72SLPC   H7X 6341   5.554   1.788   9.703  0.4492 -0.8161 -1.6625
   72SLPC   H7Y 6342   5.602   1.951   9.629  0.0969  0.5916 -0.7265
   72SLPC   C38 6343   5.434   1.835   9.527 -0.6031  0.0360  0.8552
   72SLPC   H8X 6344   5.387   1.927   9.485 -2.3231 -0.1391  2.2926
   72SLPC   H8Y 6345   5.346   1.775   9.557 -1.9730  0.4745 -1.9659
   72SLPC   C39 6346   5.511   1.770   9.418  0.1502 -0.8133 -0.1264
   72SLPC   H9X 6347   5.535   1.665   9.446  0.5415 -0.6169  0.2930
   72SLPC   H9Y 6348   5.603   1.833   9.417 -0.8396  0.6890 -0.5015
   72SLPC  C310 6349   5.439   1.764   9.282  0.4056 -0.0021  0.0414
   72SLPC  H10X 6350   5.372   1.852   9.270 -1.9865 -1.7269 -0.1493
   72SLPC  H10Y 6351   5.365   1.681   9.274  0.4701 -0.2449  1.6005
   72SLPC  C311 6352   5.531   1.749   9.166 -0.4219  0.1435  0.2142
   72SLPC  H11X 6353   5.573   1.646   9.164 -0.3853  0.1436  0.9058
   72SLPC  H11Y 6354   5.618   1.817   9.171 -1.5125  1.5942  0.3043
   72SLPC  C312 6355   5.461   1.785   9.038 -0.6056 -0.4745 -0.1476
   72SLPC  H12X 6356   5.539   1.810   8.963 -0.5992  1.3180  0.3984
   72SLPC  H12Y 6357   5.385   1.867   9.042 -1.0289 -0.8150 -0.9396
   72SLPC  C313 6358   5.379   1.667   8.980 -0.4527  0.2022  0.3260
   72SLPC  H13X 6359   5.309   1.700   8.900 -1.9572  2.6715  2.5038
   72SLPC  H13Y 6360   5.302   1.633   9.053 -0.5679 -0.7423 -0.2106
   72SLPC  C314 6361   5.475   1.554   8.938 -0.3419 -0.0058  0.4482
   72SLPC  H14X 6362   5.510   1.504   9.032 -2.1689 -0.2403  1.0500
   72SLPC  H14Y 6363   5.556   1.607   8.884 -1.1932  0.7797 -0.0707
   72SLPC  C315 6364   5.412   1.451   8.843 -0.1941  0.1199  0.3040
   72SLPC  H15X 6365   5.304   1.473   8.832 -0.2197  1.0126  1.9186
   72SLPC  H15Y 6366   5.405   1.353   8.896  1.4361  0.6527  1.6142
   72SLPC  C316 6367   5.486   1.434   8.708 -0.7088 -0.0414 -0.3341
   72SLPC  H16X 6368   5.585   1.390   8.735 -0.3754  1.0630  0.3127
   72SLPC  H16Y 6369   5.508   1.537   8.674  0.3418 -0.4712 -1.0314
   72SLPC  C317 6370   5.395   1.351   8.614 -0.0633 -0.1020 -0.0115
   72SLPC  H17X 6371   5.290   1.385   8.624 -0.2184 -0.9686  1.7731
   72SLPC  H17Y 6372   5.394   1.245   8.647  1.1493  0.0537  0.5945
   72SLPC  C318 6373   5.436   1.357   8.471 -0.0659 -0.0660  0.1648
   72SLPC  H18X 6374   5.415   1.461   8.438 -1.0864 -0.7241 -1.3744
   72SLPC  H18Y 6375   5.398   1.285   8.395 -0.6855  1.3114 -0.8561
   72SLPC  H18Z 6376   5.547   1.347   8.477 -0.2659 -1.7852  4.2884
   73SLPC     N 6377   3.337   1.923  10.955 -0.3402 -0.5157 -0.1375
   73SLPC   C13 6378   3.461   1.989  11.003  0.0232 -0.3423 -0.5322
   73SLPC  H13A 6379   3.448   2.048  11.092 -0.6552  0.3696 -1.0929
   73SLPC  H13B 6380   3.532   1.915  11.038 -1.5684 -0.0382  4.0813
   73SLPC  H13C 6381   3.513   2.049  10.930 -0.4525  0.7396  0.0089
   73SLPC   C14 6382   3.244   2.022  10.905 -0.9181 -0.3767  0.5331
   73SLPC  H14A 6383   3.282   2.098  10.838 -0.8126  2.1468  3.2361
   73SLPC  H14B 6384   3.156   1.979  10.858  1.0285 -2.2883 -1.6011
   73SLPC  H14C 6385   3.213   2.088  10.984 -2.3411 -1.3365  0.8234
   73SLPC   C15 6386   3.272   1.862  11.075 -0.5265  0.0686  0.4842
   73SLPC  H15A 6387   3.241   1.923  11.159  0.3381 -0.8727  1.5182
   73SLPC  H15B 6388   3.182   1.817  11.034 -0.5329 -0.9967  1.6063
   73SLPC  H15C 6389   3.333   1.778  11.103 -0.9833 -0.9482 -1.4296
   73SLPC   C12 6390   3.354   1.818  10.845  0.0073 -0.6271 -0.0021
   73SLPC  H12A 6391   3.418   1.744  10.891  2.5856  1.1953 -0.5044
   73SLPC  H12B 6392   3.404   1.871  10.766  0.0351  1.0531  1.0857
   73SLPC   C11 6393   3.227   1.742  10.790 -0.3341  0.2185  0.1619
   73SLPC  H11A 6394   3.258   1.685  10.699 -1.3075  1.4558 -0.9954
   73SLPC  H11B 6395   3.155   1.815  10.747 -0.0080  0.1646 -0.4974
   73SLPC     P 6396   3.219   1.523  10.917 -0.0646 -0.0277  0.0347
   73SLPC   O13 6397   3.370   1.529  10.923  0.0941  0.1472 -0.6603
   73SLPC   O14 6398   3.148   1.470  11.036  0.4648  0.2835  0.3593
   73SLPC   O12 6399   3.166   1.663  10.890  0.2208  0.0707  0.2753
   73SLPC   O11 6400   3.186   1.437  10.786  0.0070 -0.3688  0.0115
   73SLPC    C1 6401   3.205   1.295  10.786 -0.3781 -0.2689  0.2403
   73SLPC    HA 6402   3.307   1.268  10.749 -1.2945  0.2810 -2.9807
   73SLPC    HB 6403   3.179   1.243  10.880  3.7039 -0.4719  1.4810
   73SLPC    C2 6404   3.114   1.236  10.678  0.0596  0.5693  1.3695
   73SLPC    HS 6405   3.150   1.132  10.664 -1.5810 -0.2027  2.5270
   73SLPC   O21 6406   3.117   1.301  10.542  0.8622  0.0338  0.5943
   73SLPC   C21 6407   3.225   1.307  10.472  0.0235 -0.1465  0.3679
   73SLPC   O22 6408   3.325   1.246  10.493 -0.0451  0.1138 -0.2099
   73SLPC   C22 6409   3.208   1.409  10.358 -0.0563 -0.6493 -0.1351
   73SLPC   H2R 6410   3.101   1.397  10.332 -1.0098  3.7020  0.9926
   73SLPC   H2S 6411   3.225   1.505  10.412  2.6755 -1.7200  1.1019
   73SLPC    C3 6412   2.965   1.242  10.727  0.1862 -0.6221  0.4493
   73SLPC    HX 6413   2.941   1.344  10.765  2.6589  0.1730  0.0746
   73SLPC    HY 6414   2.967   1.177  10.818 -1.0948  2.1920  2.6548
   73SLPC   O31 6415   2.863   1.202  10.637  0.0743  0.5132 -0.1670
   73SLPC   C31 6416   2.750   1.168  10.693 -0.1312  0.8375 -0.6868
   73SLPC   O32 6417   2.726   1.154  10.812 -0.2085  0.1707 -0.3131
   73SLPC   C32 6418   2.643   1.171  10.580  0.4209 -0.0699  0.3069
   73SLPC   H2X 6419   2.695   1.196  10.485  2.3607 -0.0365  1.3330
   73SLPC   H2Y 6420   2.576   1.258  10.596 -0.4301 -0.1564 -2.2623
   73SLPC   C23 6421   3.293   1.398  10.236 -0.0162  0.4741 -0.1585
   73SLPC   H3R 6422   3.254   1.464  10.156  1.2104 -0.5547 -1.6749
   73SLPC   H3S 6423   3.284   1.293  10.199  0.9584  0.2472  0.1968
   73SLPC   C24 6424   3.439   1.425  10.252 -0.6500  0.1796  0.0286
   73SLPC   H4R 6425   3.491   1.329  10.274 -0.2198  0.8690  2.3177
   73SLPC   H4S 6426   3.450   1.498  10.336 -1.7686  0.0783  0.2694
   73SLPC   C25 6427   3.493   1.491  10.126 -0.3772  0.3272 -0.0797
   73SLPC   H5R 6428   3.590   1.534  10.160 -1.3446 -0.5867  4.5599
   73SLPC   H5S 6429   3.426   1.577  10.102 -0.8119 -0.1567 -0.6093
   73SLPC   C26 6430   3.505   1.390  10.007 -0.4780  0.2908 -0.1851
   73SLPC   H6R 6431   3.442   1.299  10.019  0.3887 -0.3573 -0.4693
   73SLPC   H6S 6432   3.613   1.364  10.001 -0.4402  0.0328  1.2588
   73SLPC   C27 6433   3.465   1.451   9.870 -0.2946 -0.5469  0.5459
   73SLPC   H7R 6434   3.371   1.507   9.892  0.9600  0.7069  3.2595
   73SLPC   H7S 6435   3.430   1.371   9.802 -1.1141 -0.4061  0.7849
   73SLPC   C28 6436   3.570   1.539   9.811  0.1962 -0.0831 -0.1163
   73SLPC   H8R 6437   3.575   1.624   9.882 -1.9666  1.0018 -1.1499
   73SLPC   H8S 6438   3.526   1.583   9.719  0.8386  0.2844 -0.2524
   73SLPC   C29 6439   3.706   1.478   9.781  0.1546  0.0656  0.0895
   73SLPC   H9R 6440   3.765   1.456   9.872  0.9028 -0.9346 -0.6120
   73SLPC  C210 6441   3.751   1.450   9.656  0.4547  0.0488 -0.3496
   73SLPC  H10R 6442   3.853   1.408   9.661  0.4492  0.1884  2.4528
   73SLPC  C211 6443   3.682   1.458   9.528 -0.0109  0.3208  0.1051
   73SLPC  H11R 6444   3.735   1.545   9.482 -1.2566  0.4159 -1.2326
   73SLPC  H11S 6445   3.575   1.483   9.541 -0.3762 -1.4969  0.8401
   73SLPC  C212 6446   3.705   1.331   9.449  0.1369  0.2980 -0.9450
   73SLPC  H12R 6447   3.675   1.234   9.491  1.2972  0.0600 -0.6369
   73SLPC  C213 6448   3.768   1.323   9.331 -0.3568  0.3265  0.4331
   73SLPC  H13R 6449   3.772   1.229   9.273 -1.0487  0.7811 -0.3687
   73SLPC  C214 6450   3.827   1.441   9.257 -0.2421  0.0292 -0.2716
   73SLPC  H14R 6451   3.898   1.492   9.325  0.8218 -2.3766  0.5334
   73SLPC  H14S 6452   3.755   1.517   9.220 -1.3546 -0.4449  0.8342
   73SLPC  C215 6453   3.921   1.398   9.141 -0.4745 -0.5708  0.0789
   73SLPC  H15R 6454   3.976   1.306   9.172 -2.4264 -1.5453  0.8409
   73SLPC  H15S 6455   3.984   1.488   9.131 -0.8124 -0.2716  0.6154
   73SLPC  C216 6456   3.856   1.368   9.010 -0.2319 -0.8523 -0.6404
   73SLPC  H16R 6457   3.763   1.312   9.033 -0.1424  0.0007  2.2787
   73SLPC  H16S 6458   3.922   1.304   8.947 -0.3955 -1.5989 -0.0764
   73SLPC  C217 6459   3.808   1.491   8.932  0.3866  0.2235 -0.5727
   73SLPC  H17R 6460   3.887   1.567   8.912 -0.3140  0.4802 -2.7328
   73SLPC  H17S 6461   3.722   1.534   8.988 -0.5053 -1.5768 -0.4846
   73SLPC  C218 6462   3.745   1.463   8.797  0.0421 -0.4330  0.4557
   73SLPC  H18R 6463   3.811   1.407   8.727 -0.9637 -0.4735 -0.5016
   73SLPC  H18S 6464   3.731   1.561   8.746 -1.0654  0.5625  2.5696
   73SLPC  H18T 6465   3.640   1.426   8.798 -0.0630 -0.2456 -0.8427
   73SLPC   C33 6466   2.551   1.045  10.562 -0.0101 -0.1746  0.0964
   73SLPC   H3X 6467   2.547   0.972  10.645  2.0628 -0.3546  0.0937
   73SLPC   H3Y 6468   2.603   0.984  10.485 -0.4455 -0.2705 -0.1282
   73SLPC   C34 6469   2.409   1.075  10.516 -0.2420  0.2413 -0.5181
   73SLPC   H4X 6470   2.352   1.127  10.596 -0.3926 -2.0594  0.9719
   73SLPC   H4Y 6471   2.352   0.983  10.493  3.0615 -2.1810  0.3013
   73SLPC   C35 6472   2.404   1.167  10.388 -0.5824  0.8523 -0.4560
   73SLPC   H5X 6473   2.467   1.257  10.377  0.5439 -0.1011 -2.2443
   73SLPC   H5Y 6474   2.300   1.207  10.389 -1.3945 -1.1395 -0.8622
   73SLPC   C36 6475   2.425   1.078  10.264  0.3086  0.1377  0.4376
   73SLPC   H6X 6476   2.353   0.993  10.257 -0.9772  1.0814  1.7470
   73SLPC   H6Y 6477   2.523   1.025  10.269  1.0744  1.5963  3.5923
   73SLPC   C37 6478   2.425   1.164  10.136 -0.2914  0.3167  0.0140
   73SLPC   H7X 6479   2.492   1.251  10.153 -0.8515  0.6890  0.3450
   73SLPC   H7Y 6480   2.340   1.232  10.113  1.9021  2.6747 -1.5981
   73SLPC   C38 6481   2.463   1.078  10.009  0.2819 -0.2889  0.2279
   73SLPC   H8X 6482   2.368   1.034   9.972  1.2328 -2.4119  0.1721
   73SLPC   H8Y 6483   2.537   1.001  10.041  0.3624 -0.6858 -0.8756
   73SLPC   C39 6484   2.534   1.162   9.903 -0.3149 -0.7417 -0.0117
   73SLPC   H9X 6485   2.609   1.238   9.933  0.3374 -1.5775  0.5047
   73SLPC   H9Y 6486   2.449   1.215   9.855 -0.6658 -0.9703  0.3586
   73SLPC  C310 6487   2.606   1.070   9.798  1.1260  0.8557 -0.3796
   73SLPC  H10X 6488   2.544   0.978   9.787 -0.1502  1.5079  1.0279
   73SLPC  H10Y 6489   2.699   1.031   9.846  0.8526 -1.2793 -1.4248
   73SLPC  C311 6490   2.626   1.139   9.666 -0.2843 -0.6253 -0.0514
   73SLPC  H11X 6491   2.680   1.233   9.689 -0.9008 -0.7680  2.3401
   73SLPC  H11Y 6492   2.537   1.161   9.603  0.9460  1.7083 -1.0648
   73SLPC  C312 6493   2.721   1.054   9.578  0.0942 -0.3789  0.0209
   73SLPC  H12X 6494   2.678   0.956   9.548 -0.4379  0.1833 -1.1400
   73SLPC  H12Y 6495   2.806   1.029   9.645  0.9196  2.1267  0.0311
   73SLPC  C313 6496   2.756   1.122   9.450  0.3999 -0.2664 -0.7585
   73SLPC  H13X 6497   2.801   1.221   9.471 -0.9868  0.2875 -0.2740
   73SLPC  H13Y 6498   2.664   1.139   9.390 -0.7931 -2.8416  0.1854
   73SLPC  C314 6499   2.867   1.055   9.369 -0.9846  0.4809  0.1738
   73SLPC  H14X 6500   2.828   0.959   9.329  0.9019 -0.9992  1.6649
   73SLPC  H14Y 6501   2.956   1.029   9.430 -0.3184 -0.3512 -1.0891
   73SLPC  C315 6502   2.919   1.158   9.269 -0.0413  0.2787 -0.0006
   73SLPC  H15X 6503   2.971   1.240   9.323 -0.4331  0.5016  0.0506
   73SLPC  H15Y 6504   2.830   1.204   9.220  0.7378  1.7527 -0.0932
   73SLPC  C316 6505   3.013   1.105   9.161  0.1320  0.3745 -0.4007
   73SLPC  H16X 6506   2.960   1.040   9.087  3.1544 -1.1135 -1.4156
   73SLPC  H16Y 6507   3.099   1.044   9.197 -1.5053 -0.1018  3.1177
   73SLPC  C317 6508   3.061   1.219   9.072 -0.7179 -0.4183  1.0173
   73SLPC  H17X 6509   3.107   1.291   9.142 -0.1283 -0.3366  0.5566
   73SLPC  H17Y 6510   2.974   1.271   9.025 -0.4052  0.1972  1.1081
   73SLPC  C318 6511   3.170   1.168   8.969  0.0442 -0.5799 -0.2188
   73SLPC  H18X 6512   3.191   1.257   8.905 -0.0393 -0.3453  0.0735
   73SLPC  H18Y 6513   3.135   1.082   8.908 -2.7444 -1.5005  2.3953
   73SLPC  H18Z 6514   3.263   1.152   9.028  0.4962  1.7811 -0.1992
   74SLPC     N 6515   4.366   1.037  10.886 -0.0110  0.3218 -0.0829
   74SLPC   C13 6516   4.412   0.910  10.950  0.6299 -0.1887 -0.5675
   74SLPC  H13A 6517   4.378   0.918  11.052  0.3970  1.3264 -0.7405
   74SLPC  H13B 6518   4.383   0.817  10.904  1.3142 -0.9596  0.5294
   74SLPC  H13C 6519   4.520   0.904  10.949  0.6829 -0.8665  2.1369
   74SLPC   C14 6520   4.452   1.150  10.938  0.1119 -0.3068 -0.1773
   74SLPC  H14A 6521   4.460   1.164  11.045 -2.3084  0.8779 -0.0748
   74SLPC  H14B 6522   4.553   1.129  10.906  0.5109  0.3166  0.6107
   74SLPC  H14C 6523   4.421   1.241  10.888  0.1863 -1.2228 -1.9530
   74SLPC   C15 6524   4.231   1.068  10.925  0.5608  0.5889 -0.2148
   74SLPC  H15A 6525   4.166   0.983  10.911  1.9218 -0.3037 -1.4088
   74SLPC  H15B 6526   4.225   1.085  11.032 -3.3054  0.7747 -0.3461
   74SLPC  H15C 6527   4.197   1.158  10.878  2.4260  0.7966 -1.2646
   74SLPC   C12 6528   4.374   1.011  10.737 -0.4118  0.4440  0.1154
   74SLPC  H12A 6529   4.322   1.099  10.701  1.0103  0.1650 -2.9452
   74SLPC  H12B 6530   4.326   0.926  10.690  1.1477 -0.3469 -0.0989
   74SLPC   C11 6531   4.510   1.013  10.674 -0.6394 -0.2711  0.1622
   74SLPC  H11A 6532   4.487   0.985  10.569 -2.0989 -2.0998  0.9025
   74SLPC  H11B 6533   4.574   0.931  10.715 -0.9851 -0.5150  0.2133
   74SLPC     P 6534   4.543   1.250  10.582 -0.1353 -0.3499  0.4001
   74SLPC   O13 6535   4.402   1.240  10.536 -0.8234  0.2409  0.0623
   74SLPC   O14 6536   4.582   1.382  10.642  0.4286  0.0030  0.1190
   74SLPC   O12 6537   4.586   1.136  10.688 -0.0900 -0.3269  0.0811
   74SLPC   O11 6538   4.637   1.216  10.460  0.3764  0.2806 -0.2043
   74SLPC    C1 6539   4.779   1.225  10.478 -0.5553  0.3358 -0.2955
   74SLPC    HA 6540   4.810   1.288  10.564  1.6887  0.8523 -1.4188
   74SLPC    HB 6541   4.808   1.119  10.494 -1.5480  0.1537  0.3976
   74SLPC    C2 6542   4.843   1.275  10.341  0.1845 -0.9699  0.1297
   74SLPC    HS 6543   4.808   1.380  10.325  1.6034 -0.8382 -2.8188
   74SLPC   O21 6544   4.815   1.183  10.231  0.2231 -0.4230 -0.4848
   74SLPC   C21 6545   4.817   1.231  10.116 -0.1685 -0.2342 -0.3281
   74SLPC   O22 6546   4.805   1.346  10.082  0.3108  0.0300 -0.3954
   74SLPC   C22 6547   4.851   1.111  10.019 -0.2952  0.3197  0.3333
   74SLPC   H2R 6548   4.936   1.055  10.065 -1.7689  0.3396  3.3265
   74SLPC   H2S 6549   4.763   1.043  10.021  0.9705 -1.5214 -1.7477
   74SLPC    C3 6550   5.000   1.288  10.363 -0.6761  0.3524 -0.0007
   74SLPC    HX 6551   5.030   1.184  10.341 -1.0128  0.0761  0.7922
   74SLPC    HY 6552   5.024   1.323  10.466  0.2268  0.8436 -0.3682
   74SLPC   O31 6553   5.060   1.376  10.272  0.6148  0.2696  0.4539
   74SLPC   C31 6554   5.128   1.331  10.172 -0.2488  0.1697  0.5652
   74SLPC   O32 6555   5.146   1.216  10.135  0.0164  0.4944  0.2854
   74SLPC   C32 6556   5.196   1.452  10.110 -0.1470 -0.6712 -0.7177
   74SLPC   H2X 6557   5.205   1.528  10.191  0.5191  1.2747 -2.5090
   74SLPC   H2Y 6558   5.123   1.484  10.033 -3.3633  0.0256  2.3520
   74SLPC   C23 6559   4.885   1.151   9.874 -0.2720 -0.3970 -0.1865
   74SLPC   H3R 6560   4.958   1.236   9.877 -1.1800  0.3725  1.4213
   74SLPC   H3S 6561   4.796   1.181   9.814  1.0226  0.2494 -1.8886
   74SLPC   C24 6562   4.961   1.035   9.806 -0.9443 -0.2522  0.1613
   74SLPC   H4R 6563   4.897   0.945   9.795 -1.4156  0.1949 -0.8549
   74SLPC   H4S 6564   5.047   1.008   9.871 -0.6244  1.1339  0.3518
   74SLPC   C25 6565   5.031   1.063   9.665 -0.3308  0.2631 -0.2358
   74SLPC   H5R 6566   4.950   1.098   9.597 -0.5136 -0.8002 -0.5834
   74SLPC   H5S 6567   5.069   0.962   9.636  0.2938  0.3962  0.1052
   74SLPC   C26 6568   5.151   1.166   9.676  0.5888 -0.1391  0.4301
   74SLPC   H6R 6569   5.220   1.130   9.756 -1.5410 -1.0477  1.9361
   74SLPC   H6S 6570   5.103   1.260   9.710  0.6498  0.2052 -0.4131
   74SLPC   C27 6571   5.228   1.184   9.541  0.9981  0.0284  0.7242
   74SLPC   H7R 6572   5.275   1.086   9.517  2.0732  0.8136 -0.5483
   74SLPC   H7S 6573   5.318   1.249   9.552  2.2830 -1.7007  0.8366
   74SLPC   C28 6574   5.135   1.231   9.425  0.2706  0.6628 -0.1798
   74SLPC   H8R 6575   5.060   1.309   9.451  1.1360  1.5941 -0.4284
   74SLPC   H8S 6576   5.079   1.147   9.379  1.7829 -0.0477 -0.7838
   74SLPC   C29 6577   5.206   1.301   9.318  0.2370  0.4594  0.1033
   74SLPC   H9R 6578   5.311   1.320   9.344 -0.1807  1.4034  1.1701
   74SLPC  C210 6579   5.153   1.325   9.195 -0.2522  0.1625  0.7159
   74SLPC  H10R 6580   5.211   1.386   9.124  0.3922  1.0783  1.9988
   74SLPC  C211 6581   5.015   1.297   9.140  0.5936 -0.2173  0.1906
   74SLPC  H11R 6582   4.988   1.387   9.080  1.0768 -0.9811 -1.2087
   74SLPC  H11S 6583   4.936   1.295   9.218  1.2162 -2.0952  0.8301
   74SLPC  C212 6584   5.007   1.171   9.056  0.0026  0.1957 -0.1002
   74SLPC  H12R 6585   4.983   1.077   9.107  2.7141 -0.3970  0.2084
   74SLPC  C213 6586   5.015   1.157   8.921  0.0864  0.4122 -0.1731
   74SLPC  H13R 6587   5.008   1.054   8.882 -0.4978 -0.4625  2.0616
   74SLPC  C214 6588   5.038   1.259   8.814 -0.3316 -1.0124  0.5453
   74SLPC  H14R 6589   5.106   1.215   8.738 -1.8127 -1.8032 -0.3687
   74SLPC  H14S 6590   5.096   1.347   8.849 -0.0529 -2.3681  3.8731
   74SLPC  C215 6591   4.921   1.325   8.739  0.2058  0.1350 -0.2308
   74SLPC  H15R 6592   4.943   1.413   8.675 -1.0625  1.4846  1.1295
   74SLPC  H15S 6593   4.850   1.361   8.816  0.6581  2.2447 -0.7417
   74SLPC  C216 6594   4.840   1.219   8.660  0.1223  0.2480  0.7135
   74SLPC  H16R 6595   4.805   1.138   8.726 -2.2260  0.9235  0.3864
   74SLPC  H16S 6596   4.907   1.174   8.584  0.4568  0.9011  0.6110
   74SLPC  C217 6597   4.714   1.283   8.602  0.0044 -0.1044  0.7277
   74SLPC  H17R 6598   4.746   1.341   8.512 -1.3051 -2.0001 -1.0661
   74SLPC  H17S 6599   4.670   1.361   8.668  1.7716  2.1635 -0.5915
   74SLPC  C218 6600   4.613   1.179   8.560  0.0110 -0.5348 -0.0328
   74SLPC  H18R 6601   4.572   1.136   8.654  0.0921 -0.0365  0.2314
   74SLPC  H18S 6602   4.654   1.106   8.488 -1.6035  0.4433 -2.0561
   74SLPC  H18T 6603   4.523   1.225   8.513 -0.1479 -2.3812 -1.6638
   74SLPC   C33 6604   5.332   1.437  10.037 -0.0159  0.4131 -0.1583
   74SLPC   H3X 6605   5.391   1.357  10.087 -0.2079  1.5149  1.9733
   74SLPC   H3Y 6606   5.394   1.530  10.031  1.3007 -0.4791 -0.8707
   74SLPC   C34 6607   5.306   1.379   9.900 -0.2504  0.2475  1.1325
   74SLPC   H4X 6608   5.217   1.424   9.851 -0.6881 -1.0666  0.6590
   74SLPC   H4Y 6609   5.286   1.269   9.896 -1.9521  0.5102  1.5175
   74SLPC   C35 6610   5.425   1.399   9.798 -0.2996 -0.0559  0.2002
   74SLPC   H5X 6611   5.437   1.510   9.801 -0.8713  0.0250 -0.4160
   74SLPC   H5Y 6612   5.411   1.362   9.695 -0.8409 -0.3921  0.3883
   74SLPC   C36 6613   5.547   1.314   9.838  0.0067  0.6438  0.1861
   74SLPC   H6X 6614   5.516   1.223   9.894 -0.2002  0.9959  0.6376
   74SLPC   H6Y 6615   5.612   1.371   9.907  1.4623 -0.1924 -0.4468
   74SLPC   C37 6616   5.634   1.263   9.718 -0.0398 -0.2242  0.3934
   74SLPC   H7X 6617   5.670   1.336   9.643 -1.2160  0.5231  0.5231
   74SLPC   H7Y 6618   5.568   1.199   9.656 -2.1861 -0.3138  2.6014
   74SLPC   C38 6619   5.754   1.195   9.769 -0.7475  0.1560  0.0501
   74SLPC   H8X 6620   5.722   1.124   9.848 -0.7697  0.2016  0.0822
   74SLPC   H8Y 6621   5.809   1.271   9.830  0.4093  0.1658 -0.9642
   74SLPC   C39 6622   5.849   1.136   9.662  0.3823 -0.0231  0.2804
   74SLPC   H9X 6623   5.939   1.098   9.715  1.0268  1.5797  0.3934
   74SLPC   H9Y 6624   5.892   1.216   9.599  2.4419 -1.1517  0.1701
   74SLPC  C310 6625   5.792   1.027   9.574  0.1859  0.7993 -0.4971
   74SLPC  H10X 6626   5.869   1.006   9.497  0.8805 -1.9313  0.7907
   74SLPC  H10Y 6627   5.697   1.057   9.524 -0.7875 -0.2864  0.6184
   74SLPC  C311 6628   5.755   0.893   9.649  0.6688 -0.4045 -0.4082
   74SLPC  H11X 6629   5.689   0.842   9.576 -0.1262  0.3890 -0.2636
   74SLPC  H11Y 6630   5.708   0.932   9.742 -0.8100 -1.3509 -0.7375
   74SLPC  C312 6631   5.874   0.803   9.683 -0.4068  0.3073 -0.0356
   74SLPC  H12X 6632   5.952   0.858   9.739 -0.4634 -0.2736  0.6336
   74SLPC  H12Y 6633   5.914   0.771   9.584 -3.0267 -1.3457 -0.6567
   74SLPC  C313 6634   5.847   0.679   9.772  0.5625 -0.5537 -0.1785
   74SLPC  H13X 6635   5.749   0.635   9.746 -0.7001  0.8708  1.8092
   74SLPC  H13Y 6636   5.829   0.716   9.876 -0.8018 -1.8541  0.0716
   74SLPC  C314 6637   5.963   0.584   9.786 -0.0382 -0.3670  0.1366
   74SLPC  H14X 6638   6.060   0.637   9.796 -0.5436  0.7495 -0.5964
   74SLPC  H14Y 6639   5.973   0.542   9.684 -0.3663  0.5828 -0.3001
   74SLPC  C315 6640   5.949   0.468   9.889 -0.7762 -0.5541 -0.0059
   74SLPC  H15X 6641   5.953   0.508   9.992  2.0714  0.8568 -0.5710
   74SLPC  H15Y 6642   6.036   0.400   9.876 -0.0938  0.2909  0.1027
   74SLPC  C316 6643   5.815   0.411   9.868  0.0004  0.1862 -0.2074
   74SLPC  H16X 6644   5.800   0.406   9.758  0.1105  1.8677 -0.3253
   74SLPC  H16Y 6645   5.732   0.477   9.902 -0.1507  0.4041 -0.9821
   74SLPC  C317 6646   5.806   0.273   9.924 -0.1636  0.3134  0.4353
   74SLPC  H17X 6647   5.862   0.201   9.862 -0.2769  2.8336 -2.9117
   74SLPC  H17Y 6648   5.705   0.230   9.902  0.0066 -0.0525  0.3659
   74SLPC  C318 6649   5.855   0.240  10.068  0.2967 -0.4287 -0.3508
   74SLPC  H18X 6650   5.856   0.130  10.086 -2.8679 -0.3738  0.8903
   74SLPC  H18Y 6651   5.796   0.290  10.149  1.4660  0.2632  0.1021
   74SLPC  H18Z 6652   5.959   0.278  10.075 -0.6613  2.0711  2.8370
   75SLPC     N 6653   4.847   5.306   6.248  0.2368  0.2634 -0.7361
   75SLPC   C13 6654   4.828   5.400   6.132  0.3691  0.1334 -0.5106
   75SLPC  H13A 6655   4.857   5.499   6.161  0.4395 -0.4778  1.7187
   75SLPC  H13B 6656   4.883   5.368   6.045 -2.1925 -0.6867 -1.9367
   75SLPC  H13C 6657   4.725   5.401   6.099 -0.6565  0.9342  2.4157
   75SLPC   C14 6658   4.982   5.330   6.310 -0.2780 -0.1194 -0.0221
   75SLPC  H14A 6659   5.064   5.324   6.241  1.3292  0.7637  1.7337
   75SLPC  H14B 6660   4.991   5.431   6.349 -1.8671 -0.2882  0.8773
   75SLPC  H14C 6661   4.995   5.273   6.400  0.8300  1.9942  1.2258
   75SLPC   C15 6662   4.861   5.165   6.200  0.0685  0.0961  0.3786
   75SLPC  H15A 6663   4.769   5.133   6.154  0.7642 -0.0349 -1.0097
   75SLPC  H15B 6664   4.935   5.156   6.121 -0.8697 -1.1186 -0.3996
   75SLPC  H15C 6665   4.877   5.098   6.282 -0.7234 -1.5572 -0.7614
   75SLPC   C12 6666   4.741   5.329   6.345  0.1876  0.3320  0.0407
   75SLPC  H12A 6667   4.644   5.299   6.309 -0.1954  1.3825  0.1758
   75SLPC  H12B 6668   4.742   5.437   6.352  0.1739  0.5981 -3.0472
   75SLPC   C11 6669   4.752   5.273   6.487 -0.4552  0.3349  0.7491
   75SLPC  H11A 6670   4.683   5.329   6.554  1.1589  1.0914  1.8527
   75SLPC  H11B 6671   4.849   5.301   6.534 -0.0361 -0.4206  0.3541
   75SLPC     P 6672   4.611   5.054   6.510  0.2844  0.2846  0.3823
   75SLPC   O13 6673   4.500   5.149   6.519  0.4307  0.1921  0.2420
   75SLPC   O14 6674   4.601   4.949   6.405  0.1714  0.8162  0.3190
   75SLPC   O12 6675   4.749   5.129   6.488  0.6631 -0.2754  0.5632
   75SLPC   O11 6676   4.636   4.981   6.642  0.0880  0.7426 -0.1248
   75SLPC    C1 6677   4.694   5.055   6.753 -0.1430 -0.4707 -0.2726
   75SLPC    HA 6678   4.798   5.021   6.777 -0.4938 -0.8906  0.7276
   75SLPC    HB 6679   4.701   5.163   6.731 -0.8115 -0.7556 -2.0609
   75SLPC    C2 6680   4.622   5.030   6.892 -0.7239 -0.0124  0.4062
   75SLPC    HS 6681   4.666   5.088   6.975 -0.0736 -1.3681  1.0349
   75SLPC   O21 6682   4.632   4.885   6.916  0.1822  0.2399 -0.1061
   75SLPC   C21 6683   4.733   4.842   6.979 -0.7728 -0.1096  0.0036
   75SLPC   O22 6684   4.828   4.910   7.020  0.0541  0.0010  0.2601
   75SLPC   C22 6685   4.714   4.688   6.982  0.1597  0.0534  0.2373
   75SLPC   H2R 6686   4.695   4.667   6.875 -0.2865 -0.2070  0.3598
   75SLPC   H2S 6687   4.804   4.634   7.018 -0.3200 -0.8642  0.0938
   75SLPC    C3 6688   4.472   5.067   6.886 -0.5525  0.2421  0.0440
   75SLPC    HX 6689   4.432   5.052   6.784  0.9933  0.2444 -0.5850
   75SLPC    HY 6690   4.460   5.176   6.907 -1.7062  0.1412 -0.0451
   75SLPC   O31 6691   4.409   4.994   6.986 -0.8022 -0.7129  0.1635
   75SLPC   C31 6692   4.300   4.922   6.958  0.0104  1.0581  0.2990
   75SLPC   O32 6693   4.239   4.919   6.852 -0.1328  0.1847 -0.5628
   75SLPC   C32 6694   4.253   4.853   7.087  0.0471  0.5924 -0.1584
   75SLPC   H2X 6695   4.273   4.916   7.177 -0.4117  1.3256 -0.5550
   75SLPC   H2Y 6696   4.301   4.753   7.092 -0.3504  0.2697 -2.0138
   75SLPC   C23 6697   4.594   4.628   7.059  1.1081  0.0333  0.2848
   75SLPC   H3R 6698   4.581   4.526   7.017 -2.6359  0.9403 -1.1234
   75SLPC   H3S 6699   4.510   4.692   7.027  1.2658  0.9408  1.6266
   75SLPC   C24 6700   4.613   4.609   7.206 -0.3020  0.4759  1.0904
   75SLPC   H4R 6701   4.626   4.707   7.256 -0.7317  2.0925 -1.7259
   75SLPC   H4S 6702   4.708   4.555   7.223  0.8538  2.2024  0.3826
   75SLPC   C25 6703   4.499   4.530   7.278 -0.7057 -0.9034  0.0609
   75SLPC   H5R 6704   4.512   4.422   7.254 -4.4367 -1.6854  1.0242
   75SLPC   H5S 6705   4.398   4.555   7.240 -0.3849  1.8615  0.8003
   75SLPC   C26 6706   4.485   4.549   7.429 -0.0734 -0.2801 -0.8377
   75SLPC   H6R 6707   4.399   4.485   7.460  1.0651 -1.3813  0.1654
   75SLPC   H6S 6708   4.461   4.657   7.442  1.7992  0.0318  0.4120
   75SLPC   C27 6709   4.603   4.509   7.518 -0.0581  0.1674  0.0916
   75SLPC   H7R 6710   4.681   4.575   7.474  0.0757 -0.4693 -0.6394
   75SLPC   H7S 6711   4.617   4.403   7.489 -2.2933 -0.6718  1.8378
   75SLPC   C28 6712   4.596   4.521   7.671  0.5277 -0.2281 -0.3183
   75SLPC   H8R 6713   4.607   4.626   7.707  1.5282 -0.7696  1.0426
   75SLPC   H8S 6714   4.681   4.455   7.696  0.0873 -0.3925  0.7795
   75SLPC   C29 6715   4.461   4.464   7.716  0.1914 -0.1053 -0.2021
   75SLPC   H9R 6716   4.364   4.509   7.689 -0.2814 -0.8706  0.1677
   75SLPC  C210 6717   4.447   4.364   7.809  0.2784 -0.3011  0.0664
   75SLPC  H10R 6718   4.349   4.352   7.858  0.5955 -0.8777  0.5657
   75SLPC  C211 6719   4.558   4.295   7.880  0.6650  0.8278  0.5085
   75SLPC  H11R 6720   4.652   4.297   7.821 -0.5104  2.6420 -1.4484
   75SLPC  H11S 6721   4.535   4.187   7.896 -2.8223  1.8511  3.8478
   75SLPC  C212 6722   4.592   4.360   8.014  0.2631  0.0078 -0.0621
   75SLPC  H12R 6723   4.652   4.452   8.003  0.6820 -0.0302  1.5566
   75SLPC  C213 6724   4.534   4.339   8.133 -0.2616 -0.3911 -0.6199
   75SLPC  H13R 6725   4.569   4.383   8.228 -1.5128 -0.0464 -0.3034
   75SLPC  C214 6726   4.426   4.235   8.146  0.2642  0.5132 -0.2691
   75SLPC  H14R 6727   4.419   4.162   8.063 -2.3847  0.7833 -0.3736
   75SLPC  H14S 6728   4.331   4.293   8.149  0.3196  0.5798  0.4471
   75SLPC  C215 6729   4.434   4.135   8.267 -0.9154 -1.0964 -0.2738
   75SLPC  H15R 6730   4.530   4.078   8.267  0.2033  0.6591 -2.1021
   75SLPC  H15S 6731   4.346   4.067   8.258 -0.6723 -1.3238 -1.0376
   75SLPC  C216 6732   4.414   4.193   8.409 -0.1531  0.0113 -0.1963
   75SLPC  H16R 6733   4.324   4.257   8.407 -1.5837 -1.9125 -1.2935
   75SLPC  H16S 6734   4.511   4.242   8.433 -0.4005 -0.4670  2.0011
   75SLPC  C217 6735   4.394   4.084   8.528  0.2066  0.2019 -0.2855
   75SLPC  H17R 6736   4.306   4.017   8.511 -0.1089 -0.5188  3.2499
   75SLPC  H17S 6737   4.364   4.138   8.621 -1.9675  1.9365 -1.8706
   75SLPC  C218 6738   4.526   4.015   8.567 -0.9204 -0.6142 -0.0433
   75SLPC  H18R 6739   4.607   4.084   8.598 -1.5017 -0.2421  0.6933
   75SLPC  H18S 6740   4.571   3.962   8.480  2.2518 -0.0612  1.1337
   75SLPC  H18T 6741   4.510   3.940   8.647 -0.5692 -1.0956 -0.4182
   75SLPC   C33 6742   4.100   4.817   7.089 -0.8523  0.1269 -0.1100
   75SLPC   H3X 6743   4.046   4.910   7.065 -0.0733  0.4037 -0.8393
   75SLPC   H3Y 6744   4.065   4.748   7.010 -0.8318 -1.0496  0.8779
   75SLPC   C34 6745   4.053   4.764   7.225  0.2098  0.6664 -0.3463
   75SLPC   H4X 6746   4.107   4.815   7.307 -0.4188 -0.3637  0.7381
   75SLPC   H4Y 6747   4.078   4.655   7.230  1.3701  0.7581 -2.5130
   75SLPC   C35 6748   3.900   4.781   7.238 -0.3555 -0.0168 -0.0539
   75SLPC   H5X 6749   3.848   4.699   7.184 -0.0185 -0.6778  0.5942
   75SLPC   H5Y 6750   3.874   4.886   7.214 -0.8934  0.2987  1.7444
   75SLPC   C36 6751   3.850   4.757   7.382  0.3636  0.0970 -0.6251
   75SLPC   H6X 6752   3.740   4.771   7.371  0.2950 -0.7195 -1.0110
   75SLPC   H6Y 6753   3.891   4.827   7.459 -0.4427 -1.0612  0.9221
   75SLPC   C37 6754   3.870   4.614   7.425 -0.7427  0.4546  0.1702
   75SLPC   H7X 6755   3.979   4.617   7.450 -0.1953  1.9446 -2.0897
   75SLPC   H7Y 6756   3.850   4.550   7.337 -0.1665  3.5903 -2.4104
   75SLPC   C38 6757   3.774   4.568   7.537 -0.3127 -0.5859  0.2019
   75SLPC   H8X 6758   3.789   4.458   7.538 -2.7165 -0.9851  2.2941
   75SLPC   H8Y 6759   3.670   4.606   7.532  0.6735  2.2971 -0.0821
   75SLPC   C39 6760   3.822   4.616   7.672 -1.5041  0.1762  0.2672
   75SLPC   H9X 6761   3.796   4.721   7.702  3.0324  1.0522  1.9124
   75SLPC   H9Y 6762   3.932   4.608   7.676 -1.3715  0.6994 -1.4443
   75SLPC  C310 6763   3.752   4.528   7.786 -0.6515  0.0675  0.2807
   75SLPC  H10X 6764   3.823   4.443   7.771 -2.0412 -1.0826 -0.0894
   75SLPC  H10Y 6765   3.645   4.505   7.762 -0.5585 -1.2883  1.0465
   75SLPC  C311 6766   3.744   4.599   7.923 -0.2864 -0.2940  0.8170
   75SLPC  H11X 6767   3.685   4.693   7.914  0.8242  0.3303 -0.1600
   75SLPC  H11Y 6768   3.838   4.644   7.961  1.0798 -2.2943  0.0030
   75SLPC  C312 6769   3.689   4.516   8.038  0.0691 -0.3789  0.1604
   75SLPC  H12X 6770   3.755   4.431   8.064 -0.0472 -1.0730 -1.7031
   75SLPC  H12Y 6771   3.590   4.473   8.015  0.1552 -1.6636  2.0037
   75SLPC  C313 6772   3.683   4.595   8.170  0.6192 -0.4741  0.5745
   75SLPC  H13X 6773   3.585   4.647   8.171  0.3973 -0.8933  1.0224
   75SLPC  H13Y 6774   3.765   4.670   8.162 -0.3361  0.4309 -1.1034
   75SLPC  C314 6775   3.697   4.498   8.293  0.1189  0.0297 -0.8704
   75SLPC  H14X 6776   3.789   4.437   8.282  1.1299  1.0170  1.2862
   75SLPC  H14Y 6777   3.611   4.428   8.294 -0.1671  0.2361  2.7486
   75SLPC  C315 6778   3.697   4.579   8.430  0.2827  0.3918  0.2913
   75SLPC  H15X 6779   3.600   4.632   8.436  0.1071  0.1171 -0.0768
   75SLPC  H15Y 6780   3.775   4.658   8.424  0.0101  0.6201 -0.3289
   75SLPC  C316 6781   3.725   4.487   8.550  0.1337 -0.6511  0.1429
   75SLPC  H16X 6782   3.834   4.470   8.547  0.6385  1.5187  2.4660
   75SLPC  H16Y 6783   3.685   4.383   8.541  3.6177 -2.2391  1.2597
   75SLPC  C317 6784   3.688   4.561   8.689  0.3318 -0.4346  0.0488
   75SLPC  H17X 6785   3.578   4.552   8.683  0.5987 -4.0279 -2.7218
   75SLPC  H17Y 6786   3.721   4.667   8.689 -0.3383 -0.1199  3.2265
   75SLPC  C318 6787   3.743   4.487   8.813  0.2922 -0.2277  0.0203
   75SLPC  H18X 6788   3.659   4.418   8.836 -0.6174  0.9244  0.2768
   75SLPC  H18Y 6789   3.766   4.555   8.898 -1.8023 -0.1502  0.5939
   75SLPC  H18Z 6790   3.838   4.432   8.797  1.6066  1.9205  0.0899
   76SLPC     N 6791   0.321   3.920   6.147 -0.0710 -0.2706 -0.0506
   76SLPC   C13 6792   0.175   3.922   6.171  0.2445  0.5567  0.0524
   76SLPC  H13A 6793   0.139   3.821   6.183  1.5850  0.0867  0.4156
   76SLPC  H13B 6794   0.140   3.980   6.255 -0.9061 -0.0446  0.0044
   76SLPC  H13C 6795   0.122   3.966   6.089 -0.2714 -0.4530 -0.1680
   76SLPC   C14 6796   0.360   4.057   6.095 -0.7723 -0.7304 -1.0915
   76SLPC  H14A 6797   0.333   4.122   6.177  2.0148 -0.9510  0.1166
   76SLPC  H14B 6798   0.467   4.065   6.082 -0.4792 -2.7068 -0.3581
   76SLPC  H14C 6799   0.307   4.094   6.008  1.6061  1.1185 -1.8541
   76SLPC   C15 6800   0.358   3.821   6.042 -0.0308  0.2168  0.1348
   76SLPC  H15A 6801   0.314   3.838   5.945  0.0136  1.3779  0.2975
   76SLPC  H15B 6802   0.465   3.835   6.030 -0.0988  3.1496  1.9001
   76SLPC  H15C 6803   0.339   3.723   6.083  0.5923  0.5690  1.3437
   76SLPC   C12 6804   0.399   3.893   6.273 -1.0126  0.4399  0.5577
   76SLPC  H12A 6805   0.504   3.895   6.250 -0.8620  2.2485  1.2818
   76SLPC  H12B 6806   0.365   3.798   6.312  0.9535 -0.5012  0.1141
   76SLPC   C11 6807   0.380   3.992   6.391 -0.5502 -0.2237 -0.4227
   76SLPC  H11A 6808   0.430   3.946   6.479  0.2798  1.5682  0.1116
   76SLPC  H11B 6809   0.272   4.006   6.412 -0.5086  2.0554 -1.3702
   76SLPC     P 6810   0.572   4.181   6.399 -0.3283 -0.3901  0.3167
   76SLPC   O13 6811   0.667   4.072   6.413 -0.4919  0.0810  0.6346
   76SLPC   O14 6812   0.601   4.295   6.315 -0.6380 -0.3176  0.4798
   76SLPC   O12 6813   0.426   4.128   6.362  0.0496 -0.0393 -0.1749
   76SLPC   O11 6814   0.550   4.233   6.542 -0.2891 -0.2852  0.4769
   76SLPC    C1 6815   0.419   4.255   6.598 -0.3916 -0.0839  0.6750
   76SLPC    HA 6816   0.384   4.360   6.591 -1.5418 -0.5258 -0.4418
   76SLPC    HB 6817   0.337   4.192   6.558  0.9209 -1.7653  0.5015
   76SLPC    C2 6818   0.409   4.233   6.755  0.0186 -1.0716 -0.1563
   76SLPC    HS 6819   0.308   4.249   6.797  0.8064  2.0748  0.7469
   76SLPC   O21 6820   0.504   4.312   6.829 -0.2635 -0.5748 -0.2843
   76SLPC   C21 6821   0.458   4.420   6.896  0.0091 -0.7675  0.7427
   76SLPC   O22 6822   0.347   4.467   6.880  0.2237  0.0140  0.3254
   76SLPC   C22 6823   0.570   4.479   6.984  0.2480  0.1987 -0.3431
   76SLPC   H2R 6824   0.664   4.430   6.950 -0.1196 -0.8480  0.1201
   76SLPC   H2S 6825   0.579   4.586   6.955 -1.1000 -0.2079 -2.4846
   76SLPC    C3 6826   0.441   4.086   6.781 -0.2111  0.6743 -0.4531
   76SLPC    HX 6827   0.533   4.053   6.729 -0.7149  1.4805 -1.9219
   76SLPC    HY 6828   0.371   4.017   6.729  1.0448 -0.5284 -0.5975
   76SLPC   O31 6829   0.461   4.056   6.919 -0.5567 -0.2352  0.5755
   76SLPC   C31 6830   0.420   3.937   6.968  0.1812 -1.0544  0.5143
   76SLPC   O32 6831   0.372   3.847   6.902  0.2466  0.3327  0.0483
   76SLPC   C32 6832   0.446   3.935   7.120 -0.5800  0.7967 -0.1647
   76SLPC   H2X 6833   0.430   4.036   7.165  0.8053  0.2206  1.7474
   76SLPC   H2Y 6834   0.553   3.911   7.137 -0.3764  1.7687  0.0133
   76SLPC   C23 6835   0.534   4.459   7.134 -0.1418 -0.7142  0.2423
   76SLPC   H3R 6836   0.524   4.354   7.166  1.1721 -0.2801  2.2640
   76SLPC   H3S 6837   0.430   4.498   7.147  0.2808  0.7168 -0.4821
   76SLPC   C24 6838   0.640   4.540   7.220 -0.5750  0.1135  0.5454
   76SLPC   H4R 6839   0.621   4.644   7.184 -2.7130 -0.7168 -0.9451
   76SLPC   H4S 6840   0.738   4.503   7.183 -0.5632  1.3340 -0.7323
   76SLPC   C25 6841   0.635   4.510   7.371  0.3094 -0.3357  0.2684
   76SLPC   H5R 6842   0.613   4.403   7.392  0.8096 -0.4871  0.0468
   76SLPC   H5S 6843   0.544   4.560   7.410 -0.4535 -1.4175 -0.0724
   76SLPC   C26 6844   0.748   4.566   7.461  0.0823  0.5799 -0.4034
   76SLPC   H6R 6845   0.768   4.672   7.434 -0.4452  0.1482 -2.6912
   76SLPC   H6S 6846   0.844   4.514   7.439  0.0499 -0.1846  1.1217
   76SLPC   C27 6847   0.725   4.570   7.615 -0.3373 -0.1024 -1.0534
   76SLPC   H7R 6848   0.649   4.649   7.632 -0.3907 -0.2433 -0.6073
   76SLPC   H7S 6849   0.824   4.590   7.662 -0.0045 -1.0176 -1.3389
   76SLPC   C28 6850   0.660   4.457   7.680 -0.3459  0.3469 -0.6381
   76SLPC   H8R 6851   0.625   4.499   7.777 -1.2503  2.5712 -1.8586
   76SLPC   H8S 6852   0.565   4.439   7.624  0.4725 -0.3497 -1.8343
   76SLPC   C29 6853   0.751   4.335   7.679  0.8686  0.7697 -0.0575
   76SLPC   H9R 6854   0.782   4.298   7.580 -1.4541  0.5591 -0.7622
   76SLPC  C210 6855   0.797   4.268   7.786 -0.3724 -0.6944 -0.4557
   76SLPC  H10R 6856   0.872   4.190   7.769  1.4491  0.9181 -0.0610
   76SLPC  C211 6857   0.771   4.320   7.922  0.5775 -0.2704  0.0495
   76SLPC  H11R 6858   0.663   4.344   7.931  0.0158 -1.8218 -1.8237
   76SLPC  H11S 6859   0.828   4.411   7.952 -2.0363  1.5883 -0.3079
   76SLPC  C212 6860   0.797   4.214   8.027  0.0401  0.1177 -0.5837
   76SLPC  H12R 6861   0.861   4.130   7.997  1.7774  1.2528 -0.2074
   76SLPC  C213 6862   0.754   4.210   8.155  0.0008  0.1866 -0.5401
   76SLPC  H13R 6863   0.798   4.137   8.225 -0.1943  1.7982  1.3711
   76SLPC  C214 6864   0.665   4.309   8.225  0.3578  0.2946 -1.0498
   76SLPC  H14R 6865   0.586   4.250   8.278  2.0557 -1.4711 -0.3510
   76SLPC  H14S 6866   0.621   4.380   8.152  0.7167  3.2231  1.4227
   76SLPC  C215 6867   0.726   4.398   8.326 -0.5379  0.2327 -0.6723
   76SLPC  H15R 6868   0.644   4.456   8.373 -1.4551 -2.2450  1.0221
   76SLPC  H15S 6869   0.799   4.469   8.282 -0.3044  0.2591 -0.2402
   76SLPC  C216 6870   0.798   4.321   8.448 -0.7051  0.0894  0.0571
   76SLPC  H16R 6871   0.877   4.272   8.387 -0.9360  3.2395 -3.0689
   76SLPC  H16S 6872   0.732   4.242   8.489  0.3221 -0.6087  0.4104
   76SLPC  C217 6873   0.866   4.408   8.550 -0.7193 -0.6881  0.1785
   76SLPC  H17R 6874   0.788   4.478   8.587 -0.6506 -0.3950 -0.2252
   76SLPC  H17S 6875   0.948   4.474   8.515 -1.3735  1.1439  1.9090
   76SLPC  C218 6876   0.914   4.323   8.669  0.0569 -0.5546  0.2497
   76SLPC  H18R 6877   0.975   4.379   8.743  0.4922 -2.0386  1.0644
   76SLPC  H18S 6878   0.954   4.227   8.631 -1.1536 -1.0539  0.1900
   76SLPC  H18T 6879   0.820   4.305   8.726 -0.0279  0.1817  0.3495
   76SLPC   C33 6880   0.366   3.831   7.203 -0.6318  0.1515 -0.0272
   76SLPC   H3X 6881   0.259   3.828   7.172 -0.5170  1.1252 -0.5506
   76SLPC   H3Y 6882   0.364   3.854   7.311 -1.5170  4.6510 -0.8235
   76SLPC   C34 6883   0.422   3.690   7.185 -0.5769 -0.1919  0.4249
   76SLPC   H4X 6884   0.530   3.694   7.210  0.3316  0.8228 -3.0970
   76SLPC   H4Y 6885   0.420   3.663   7.078  0.6199  1.5530 -0.0796
   76SLPC   C35 6886   0.354   3.582   7.266 -0.1568  0.5378 -0.3850
   76SLPC   H5X 6887   0.383   3.482   7.228 -0.4192 -0.4223  1.8094
   76SLPC   H5Y 6888   0.246   3.607   7.262  0.2207  2.8423  1.5419
   76SLPC   C36 6889   0.388   3.581   7.419  0.0450 -0.6028  0.1521
   76SLPC   H6X 6890   0.347   3.671   7.470  1.9010  1.0478 -1.0862
   76SLPC   H6Y 6891   0.498   3.584   7.435  0.1038  0.0887 -0.3093
   76SLPC   C37 6892   0.325   3.458   7.476 -0.7080 -0.4165  0.4946
   76SLPC   H7X 6893   0.367   3.374   7.416 -0.3630  1.3456 -1.8930
   76SLPC   H7Y 6894   0.215   3.454   7.459 -0.4375  0.1585 -1.7061
   76SLPC   C38 6895   0.361   3.437   7.626  1.3059 -0.0338  0.3123
   76SLPC   H8X 6896   0.470   3.431   7.647  1.3104  0.7669  0.5482
   76SLPC   H8Y 6897   0.311   3.345   7.661  0.7079  1.0081  2.3348
   76SLPC   C39 6898   0.295   3.548   7.715 -0.3799  0.3629 -0.8670
   76SLPC   H9X 6899   0.187   3.544   7.690  0.0993 -1.4257 -3.0140
   76SLPC   H9Y 6900   0.331   3.650   7.693  2.4991 -0.6521 -1.2429
   76SLPC  C310 6901   0.319   3.538   7.864 -0.1178 -0.3919 -0.3917
   76SLPC  H10X 6902   0.299   3.639   7.905 -0.8056 -0.8995  0.5585
   76SLPC  H10Y 6903   0.423   3.528   7.903 -1.2541  0.7924  3.2690
   76SLPC  C311 6904   0.221   3.445   7.932 -0.6433 -0.3726  0.2904
   76SLPC  H11X 6905   0.241   3.345   7.890  4.1813  1.1085 -1.6117
   76SLPC  H11Y 6906   0.117   3.475   7.906 -0.8578 -1.7570 -0.5613
   76SLPC  C312 6907   0.237   3.440   8.089 -0.3633 -1.0528 -0.9346
   76SLPC  H12X 6908   0.346   3.432   8.110 -0.1154  0.4890 -1.4754
   76SLPC  H12Y 6909   0.185   3.346   8.117  1.6421 -1.6695  1.1167
   76SLPC  C313 6910   0.175   3.549   8.180 -0.2934  0.0373  0.8273
   76SLPC  H13X 6911   0.064   3.539   8.187 -0.2690 -1.1280 -0.2061
   76SLPC  H13Y 6912   0.204   3.649   8.142 -0.0305 -0.1384  0.5689
   76SLPC  C314 6913   0.233   3.538   8.324  0.3566  0.2794 -0.0824
   76SLPC  H14X 6914   0.339   3.506   8.332  0.1755  0.0802  2.3373
   76SLPC  H14Y 6915   0.179   3.456   8.376  1.7754  1.2629  3.1492
   76SLPC  C315 6916   0.206   3.657   8.414  0.9448 -0.3382 -0.2840
   76SLPC  H15X 6917   0.229   3.628   8.519 -0.9524 -0.4326  0.1471
   76SLPC  H15Y 6918   0.097   3.678   8.405  0.7491 -0.9105  0.5759
   76SLPC  C316 6919   0.288   3.777   8.371  0.0621 -0.5287  0.1307
   76SLPC  H16X 6920   0.263   3.848   8.452  2.3775  0.7646 -0.2042
   76SLPC  H16Y 6921   0.254   3.829   8.279  1.6499  1.8969  0.8270
   76SLPC  C317 6922   0.430   3.752   8.356 -0.2239 -0.3926 -0.4131
   76SLPC  H17X 6923   0.445   3.690   8.265  0.4728 -0.0012 -0.5720
   76SLPC  H17Y 6924   0.472   3.700   8.445 -0.9421  1.5355  1.1374
   76SLPC  C318 6925   0.521   3.875   8.347 -0.0223  0.1538  0.1542
   76SLPC  H18X 6926   0.629   3.855   8.333 -0.2026 -1.7182  1.1189
   76SLPC  H18Y 6927   0.529   3.918   8.449  0.9766 -1.9136  1.0110
   76SLPC  H18Z 6928   0.487   3.941   8.264 -1.6595  0.1061  0.7460
   77SLPC     N 6929   4.951   2.939   6.282  0.0354 -0.5051  0.4351
   77SLPC   C13 6930   4.915   2.887   6.141 -0.2637  0.0663 -0.8209
   77SLPC  H13A 6931   4.813   2.853   6.130 -0.6956  1.0996 -0.1155
   77SLPC  H13B 6932   4.930   2.973   6.076 -0.4861  1.3368  0.7546
   77SLPC  H13C 6933   4.981   2.813   6.097  1.2997  0.9316 -0.0410
   77SLPC   C14 6934   4.878   3.068   6.321 -0.2794  0.8000  0.4796
   77SLPC  H14A 6935   4.910   3.152   6.261 -0.4257 -0.9052 -2.1379
   77SLPC  H14B 6936   4.771   3.057   6.306 -0.6890  1.7194  2.3298
   77SLPC  H14C 6937   4.891   3.087   6.427 -2.9260 -1.0709  1.2590
   77SLPC   C15 6938   5.097   2.971   6.298  0.1145  1.3515 -0.0557
   77SLPC  H15A 6939   5.110   2.988   6.404 -0.4884  0.4559  0.1735
   77SLPC  H15B 6940   5.163   2.891   6.269 -0.0492  2.0427 -2.5764
   77SLPC  H15C 6941   5.124   3.061   6.244  0.6017  0.1555 -1.9089
   77SLPC   C12 6942   4.920   2.829   6.385 -1.0528  0.2690 -0.0031
   77SLPC  H12A 6943   4.984   2.747   6.357 -0.2842  1.9602 -3.7828
   77SLPC  H12B 6944   4.814   2.815   6.373 -0.9805  1.3242 -2.2995
   77SLPC   C11 6945   4.937   2.883   6.525  0.9621  0.9302  0.3075
   77SLPC  H11A 6946   4.895   2.800   6.586 -0.0547 -0.2643 -1.9035
   77SLPC  H11B 6947   4.872   2.972   6.543 -0.9595 -0.1798 -0.7507
   77SLPC     P 6948   5.169   2.786   6.636  0.0509 -0.2468 -0.0072
   77SLPC   O13 6949   5.185   2.671   6.542  0.4303 -0.0965 -0.1557
   77SLPC   O14 6950   5.299   2.849   6.674  0.5722 -0.5440  0.3551
   77SLPC   O12 6951   5.073   2.895   6.576 -0.4402 -0.4944  0.6848
   77SLPC   O11 6952   5.093   2.735   6.765  0.2446 -0.2456  0.1176
   77SLPC    C1 6953   5.023   2.820   6.848  0.2780 -0.4494  0.4362
   77SLPC    HA 6954   5.086   2.908   6.871  1.3256 -1.2199  0.6034
   77SLPC    HB 6955   4.931   2.853   6.795  1.9348  1.3834 -1.4695
   77SLPC    C2 6956   4.982   2.760   6.986 -0.3750 -0.4953  0.7680
   77SLPC    HS 6957   4.911   2.827   7.040 -2.4173 -2.2045  0.3550
   77SLPC   O21 6958   5.097   2.727   7.057  0.1060 -0.2121 -0.1144
   77SLPC   C21 6959   5.177   2.826   7.105  0.5377 -0.1483 -0.2165
   77SLPC   O22 6960   5.142   2.944   7.115  0.0673  0.0948 -0.4761
   77SLPC   C22 6961   5.311   2.770   7.155  0.2147 -0.6980 -0.0417
   77SLPC   H2R 6962   5.298   2.674   7.210 -1.0347  1.3624  3.5439
   77SLPC   H2S 6963   5.372   2.749   7.064 -2.4661  0.4280 -2.2550
   77SLPC    C3 6964   4.893   2.637   6.965 -0.6034 -0.1094 -0.5061
   77SLPC    HX 6965   4.955   2.554   6.927 -1.8477 -1.3838  0.1567
   77SLPC    HY 6966   4.815   2.660   6.889 -0.6175 -0.7952 -0.7001
   77SLPC   O31 6967   4.836   2.610   7.096 -0.0983  0.5259 -0.4942
   77SLPC   C31 6968   4.822   2.479   7.129  0.0310  0.1480 -0.6077
   77SLPC   O32 6969   4.823   2.385   7.054  0.0322  0.0479 -0.2581
   77SLPC   C32 6970   4.835   2.472   7.281 -0.4909  0.8613  0.7586
   77SLPC   H2X 6971   4.746   2.525   7.320 -2.1737 -0.4761 -1.1062
   77SLPC   H2Y 6972   4.930   2.525   7.307  0.8173 -1.0523  0.0609
   77SLPC   C23 6973   5.388   2.859   7.258 -0.5039  1.1904  0.4563
   77SLPC   H3R 6974   5.398   2.964   7.224 -3.0632  1.0710 -0.9620
   77SLPC   H3S 6975   5.493   2.825   7.270 -0.5395  1.4699  1.6843
   77SLPC   C24 6976   5.304   2.870   7.389  0.3448  0.1978 -0.1992
   77SLPC   H4R 6977   5.276   2.764   7.405 -0.4800  0.1652 -1.6331
   77SLPC   H4S 6978   5.216   2.934   7.366  0.3195  0.5110  0.7463
   77SLPC   C25 6979   5.369   2.934   7.514  0.6209  0.2156 -0.5563
   77SLPC   H5R 6980   5.476   2.901   7.513  0.9522  1.1032  1.4031
   77SLPC   H5S 6981   5.326   2.895   7.608  0.5956  1.3794 -0.0613
   77SLPC   C26 6982   5.346   3.086   7.523  0.4201  0.0782  0.8362
   77SLPC   H6R 6983   5.348   3.126   7.419  2.4186  1.4143  1.3344
   77SLPC   H6S 6984   5.425   3.132   7.586  0.0174  0.1442  1.3002
   77SLPC   C27 6985   5.211   3.132   7.584  0.4948 -0.1079 -0.5976
   77SLPC   H7R 6986   5.231   3.119   7.693  1.1975  1.4002 -0.5213
   77SLPC   H7S 6987   5.125   3.067   7.561  2.0164 -1.9833 -1.2849
   77SLPC   C28 6988   5.172   3.272   7.543  0.0472  0.0474  0.3622
   77SLPC   H8R 6989   5.256   3.344   7.555  0.5854 -0.3436 -0.8361
   77SLPC   H8S 6990   5.111   3.320   7.622  0.4857  0.7755  0.2688
   77SLPC   C29 6991   5.107   3.272   7.407  0.3585 -0.6354 -0.4942
   77SLPC   H9R 6992   5.023   3.203   7.394 -0.0906 -0.2710  0.3402
   77SLPC  C210 6993   5.143   3.363   7.312 -0.5617  0.2405  0.0796
   77SLPC  H10R 6994   5.086   3.365   7.218  0.2836  0.0557 -0.4493
   77SLPC  C211 6995   5.253   3.464   7.323 -0.6798  0.3913  0.3749
   77SLPC  H11R 6996   5.342   3.409   7.361 -0.7542  0.3795  0.5352
   77SLPC  H11S 6997   5.239   3.535   7.406  0.4303  0.9395  0.1060
   77SLPC  C212 6998   5.279   3.536   7.190 -0.2123  0.2205 -0.4371
   77SLPC  H12R 6999   5.228   3.494   7.102  0.7427  2.7425 -2.2969
   77SLPC  C213 7000   5.365   3.638   7.168  0.2811  0.0916 -0.8957
   77SLPC  H13R 7001   5.373   3.687   7.069 -1.1918  0.6043 -0.7873
   77SLPC  C214 7002   5.452   3.697   7.277 -0.2793  0.0414 -0.2684
   77SLPC  H14R 7003   5.426   3.647   7.373  1.6551 -1.1453 -0.3160
   77SLPC  H14S 7004   5.438   3.808   7.282  0.3921  0.1336 -0.3064
   77SLPC  C215 7005   5.603   3.674   7.265 -0.1384  0.0754 -0.0342
   77SLPC  H15R 7006   5.633   3.723   7.169 -0.5440  2.4274  0.9789
   77SLPC  H15S 7007   5.628   3.566   7.269  0.5365  0.1697 -1.0230
   77SLPC  C216 7008   5.694   3.740   7.373 -0.4402  0.6502  0.1679
   77SLPC  H16R 7009   5.675   3.848   7.388 -0.5082  0.5197  1.1163
   77SLPC  H16S 7010   5.798   3.743   7.334 -0.6633  0.9512 -0.4081
   77SLPC  C217 7011   5.706   3.670   7.507 -0.2498 -0.1448 -0.7543
   77SLPC  H17R 7012   5.732   3.565   7.481 -1.1351 -0.6962  0.4509
   77SLPC  H17S 7013   5.605   3.662   7.553  0.5001  0.0572  1.0077
   77SLPC  C218 7014   5.797   3.733   7.608  0.2357  0.3738 -0.1259
   77SLPC  H18R 7015   5.799   3.666   7.696  0.1775 -0.1664 -0.5315
   77SLPC  H18S 7016   5.764   3.836   7.635  0.4300 -0.2450  2.7325
   77SLPC  H18T 7017   5.899   3.731   7.562 -0.3573 -1.1069 -1.4544
   77SLPC   C33 7018   4.851   2.320   7.330 -0.0009  0.6794  0.8332
   77SLPC   H3X 7019   4.933   2.273   7.273 -0.8307 -0.1464  0.2890
   77SLPC   H3Y 7020   4.760   2.263   7.300  0.0980 -1.3671  4.0185
   77SLPC   C34 7021   4.863   2.300   7.483 -0.2692  0.1962  0.2141
   77SLPC   H4X 7022   4.775   2.345   7.533  0.1134  0.7699  0.3828
   77SLPC   H4Y 7023   4.955   2.350   7.519  1.2689 -2.6458  0.4948
   77SLPC   C35 7024   4.856   2.155   7.524  0.9104  1.3404  0.4537
   77SLPC   H5X 7025   4.931   2.104   7.460 -1.8142 -0.3061 -1.7130
   77SLPC   H5Y 7026   4.762   2.122   7.474  2.2835 -1.9862 -0.1965
   77SLPC   C36 7027   4.852   2.123   7.672 -0.5252 -0.3205  0.1582
   77SLPC   H6X 7028   4.830   2.015   7.691  1.0281 -0.3340  2.1287
   77SLPC   H6Y 7029   4.766   2.171   7.725 -0.9774 -0.3389 -0.5432
   77SLPC   C37 7030   4.987   2.150   7.737  0.2267 -0.2649  0.3365
   77SLPC   H7X 7031   5.023   2.248   7.698  0.1236 -0.2828  0.1970
   77SLPC   H7Y 7032   5.057   2.081   7.685 -1.0241 -0.1041 -1.6819
   77SLPC   C38 7033   4.995   2.142   7.895 -0.0535 -0.0327  0.6096
   77SLPC   H8X 7034   4.944   2.235   7.929 -0.5163 -0.0136 -0.1159
   77SLPC   H8Y 7035   5.101   2.166   7.919 -0.0425  1.6090 -0.8411
   77SLPC   C39 7036   4.921   2.026   7.944  0.4249 -0.3712  0.0359
   77SLPC   H9X 7037   4.960   1.935   7.894 -0.5858  0.0395 -1.5756
   77SLPC   H9Y 7038   4.812   2.020   7.919  0.1753  0.6686  0.7994
   77SLPC  C310 7039   4.962   2.008   8.091 -0.1697  0.1733  0.5595
   77SLPC  H10X 7040   4.932   2.099   8.146 -1.1712  1.7774 -2.4299
   77SLPC  H10Y 7041   5.071   1.985   8.085  0.2867  1.4355  2.9051
   77SLPC  C311 7042   4.899   1.896   8.162 -0.7474 -0.0718 -0.8310
   77SLPC  H11X 7043   4.924   1.795   8.125  2.1581 -0.3780  1.4940
   77SLPC  H11Y 7044   4.789   1.907   8.162 -0.9065 -0.7488  2.1876
   77SLPC  C312 7045   4.935   1.885   8.316  0.4254  0.1521 -0.3091
   77SLPC  H12X 7046   4.879   1.803   8.366  1.8942  0.1576  1.4620
   77SLPC  H12Y 7047   4.915   1.980   8.371 -1.5454 -0.1354 -0.4621
   77SLPC  C313 7048   5.082   1.849   8.340  0.2603 -0.7357  0.2578
   77SLPC  H13X 7049   5.151   1.912   8.281  0.0087 -0.1131  0.6231
   77SLPC  H13Y 7050   5.089   1.746   8.299 -0.6603 -0.0322 -1.7467
   77SLPC  C314 7051   5.115   1.845   8.491 -0.0663 -0.2971 -0.7146
   77SLPC  H14X 7052   5.211   1.791   8.506  0.8280  1.3268 -0.3917
   77SLPC  H14Y 7053   5.046   1.794   8.562  2.0958 -2.7909 -0.2585
   77SLPC  C315 7054   5.144   1.985   8.549  0.4108 -0.9335 -0.1749
   77SLPC  H15X 7055   5.055   2.052   8.543  0.6729 -0.5349  0.3714
   77SLPC  H15Y 7056   5.230   2.029   8.496  0.5569  1.2520  1.7423
   77SLPC  C316 7057   5.198   1.970   8.690  0.2129  0.0477 -0.2145
   77SLPC  H16X 7058   5.282   1.898   8.693  1.1378  1.0345 -1.4464
   77SLPC  H16Y 7059   5.116   1.933   8.754  0.0465 -2.6247 -1.8504
   77SLPC  C317 7060   5.246   2.099   8.750 -0.0057  0.3036  0.5188
   77SLPC  H17X 7061   5.316   2.146   8.678  0.1859  0.6219  0.9112
   77SLPC  H17Y 7062   5.296   2.073   8.846  0.8392  1.6831  0.4871
   77SLPC  C318 7063   5.135   2.197   8.788  0.3056  0.6204  0.4275
   77SLPC  H18X 7064   5.088   2.243   8.698  0.3398 -0.5907 -0.2287
   77SLPC  H18Y 7065   5.188   2.276   8.846 -1.3345  2.3492 -0.3187
   77SLPC  H18Z 7066   5.059   2.148   8.853  0.5025  2.4417  2.1295
   78SLPC     N 7067   6.010   1.192   6.084  0.5317 -0.4912  0.7947
   78SLPC   C13 7068   5.876   1.122   6.075 -0.3600  0.0709  0.8290
   78SLPC  H13A 7069   5.895   1.033   6.016  0.4205  0.1633  0.9342
   78SLPC  H13B 7070   5.841   1.108   6.176  1.7960 -1.1453  1.4706
   78SLPC  H13C 7071   5.804   1.186   6.026  0.9849  1.5533  0.7162
   78SLPC   C14 7072   6.053   1.204   5.937 -0.5138 -0.1521 -0.1215
   78SLPC  H14A 7073   5.972   1.254   5.885  0.2125 -0.8397 -2.0153
   78SLPC  H14B 7074   6.144   1.261   5.925 -0.2259 -0.8175 -1.2976
   78SLPC  H14C 7075   6.059   1.107   5.889 -0.1858 -1.7454  2.9036
   78SLPC   C15 7076   6.119   1.110   6.140  0.2341 -0.2006 -0.7150
   78SLPC  H15A 7077   6.213   1.116   6.087  0.4041 -0.2236 -0.4166
   78SLPC  H15B 7078   6.129   1.148   6.241 -0.2957  0.0945 -0.7642
   78SLPC  H15C 7079   6.076   1.011   6.147  1.8024 -0.9023 -0.7027
   78SLPC   C12 7080   6.004   1.332   6.149 -0.4587 -0.5561 -0.4484
   78SLPC  H12A 7081   5.968   1.397   6.071  2.0003  0.5640 -0.7479
   78SLPC  H12B 7082   6.106   1.360   6.170 -1.4499  1.6254  2.0638
   78SLPC   C11 7083   5.941   1.343   6.287 -0.4777  0.3507 -0.0565
   78SLPC  H11A 7084   5.967   1.443   6.327 -1.8416  0.8207 -0.3123
   78SLPC  H11B 7085   5.979   1.268   6.360  1.7663  0.8731 -0.5914
   78SLPC     P 7086   5.711   1.429   6.228  0.4120 -0.5485  0.2629
   78SLPC   O13 7087   5.774   1.495   6.111  0.4415 -0.2140  0.0110
   78SLPC   O14 7088   5.578   1.368   6.212  0.1533 -0.0531  0.1836
   78SLPC   O12 7089   5.799   1.318   6.281 -1.0188  0.2908 -0.0720
   78SLPC   O11 7090   5.699   1.521   6.354  0.3165 -0.3367  0.3867
   78SLPC    C1 7091   5.684   1.475   6.489 -0.1087  0.0956  0.6700
   78SLPC    HA 7092   5.599   1.406   6.500  0.0734  0.0384  1.8926
   78SLPC    HB 7093   5.774   1.416   6.517 -0.3362 -0.0853  1.0306
   78SLPC    C2 7094   5.655   1.598   6.584 -0.4797  0.0885 -0.4937
   78SLPC    HS 7095   5.579   1.649   6.521 -0.6624 -0.5200 -0.7774
   78SLPC   O21 7096   5.779   1.676   6.594 -0.4404  0.1866  0.3698
   78SLPC   C21 7097   5.763   1.802   6.607  0.1224 -0.8160  0.3563
   78SLPC   O22 7098   5.664   1.866   6.582 -0.2965 -0.2283  0.0651
   78SLPC   C22 7099   5.898   1.867   6.648 -0.6617 -0.2305 -0.7708
   78SLPC   H2R 7100   5.980   1.792   6.637 -0.9113 -0.2980 -2.4857
   78SLPC   H2S 7101   5.911   1.958   6.586  0.2174 -0.3174 -0.7336
   78SLPC    C3 7102   5.602   1.569   6.725 -0.3906  0.2182  0.6749
   78SLPC    HX 7103   5.687   1.513   6.770 -0.1386 -0.5173 -0.6841
   78SLPC    HY 7104   5.516   1.500   6.728  0.7416 -1.3269 -0.8380
   78SLPC   O31 7105   5.579   1.690   6.811 -0.1321  0.1987  0.1172
   78SLPC   C31 7106   5.465   1.753   6.794 -0.4781 -0.3558  0.1808
   78SLPC   O32 7107   5.373   1.719   6.723 -0.1723 -0.6124  0.0614
   78SLPC   C32 7108   5.459   1.877   6.885 -0.0961  0.0478  0.4725
   78SLPC   H2X 7109   5.497   1.953   6.815 -0.0229 -1.7737 -1.5773
   78SLPC   H2Y 7110   5.519   1.859   6.977 -0.2181  2.5758  1.1294
   78SLPC   C23 7111   5.910   1.921   6.794  0.5838 -0.5359  0.4235
   78SLPC   H3R 7112   5.819   1.976   6.826 -1.2334 -3.7312  1.1260
   78SLPC   H3S 7113   5.989   1.998   6.810 -1.1646  2.0862 -2.3969
   78SLPC   C24 7114   5.928   1.811   6.901 -0.0409 -0.2726  0.0569
   78SLPC   H4R 7115   6.035   1.813   6.928 -0.1241 -0.0111  0.3769
   78SLPC   H4S 7116   5.890   1.712   6.869 -0.6753  0.2040 -0.7129
   78SLPC   C25 7117   5.834   1.817   7.023  0.6411 -0.6867 -0.4638
   78SLPC   H5R 7118   5.736   1.842   6.977  1.3803 -0.2297 -1.8579
   78SLPC   H5S 7119   5.882   1.893   7.088  1.7908 -1.4239 -0.4169
   78SLPC   C26 7120   5.824   1.687   7.108 -0.1614 -0.0972 -0.4988
   78SLPC   H6R 7121   5.919   1.645   7.149 -0.4674  2.7451  3.7088
   78SLPC   H6S 7122   5.780   1.612   7.040 -1.0760  0.3919 -0.4563
   78SLPC   C27 7123   5.738   1.710   7.231 -0.2261  0.0426 -0.0472
   78SLPC   H7R 7124   5.661   1.778   7.188 -0.0531 -0.0081 -0.4348
   78SLPC   H7S 7125   5.793   1.772   7.304 -1.0900  1.6790 -0.7231
   78SLPC   C28 7126   5.679   1.578   7.291 -0.6633 -0.6590 -0.2316
   78SLPC   H8R 7127   5.765   1.515   7.320 -0.4021  0.9984  2.9966
   78SLPC   H8S 7128   5.618   1.541   7.205 -1.2502  0.7169 -0.4318
   78SLPC   C29 7129   5.583   1.597   7.409 -1.2845 -0.9532 -0.1728
   78SLPC   H9R 7130   5.479   1.570   7.385 -0.9274 -1.1855 -1.5296
   78SLPC  C210 7131   5.625   1.609   7.537 -0.6232  0.4847  0.0242
   78SLPC  H10R 7132   5.548   1.611   7.615 -1.8095  2.3912 -1.1119
   78SLPC  C211 7133   5.769   1.619   7.582 -0.1516  0.2030 -0.0318
   78SLPC  H11R 7134   5.834   1.651   7.499  0.6283  2.5508  1.4003
   78SLPC  H11S 7135   5.800   1.517   7.614 -3.3492 -0.9688 -0.2716
   78SLPC  C212 7136   5.790   1.710   7.701 -0.6457 -1.1053  0.1502
   78SLPC  H12R 7137   5.830   1.806   7.666 -0.3404 -1.3994 -0.3145
   78SLPC  C213 7138   5.762   1.676   7.829 -0.5231  0.5032 -0.5317
   78SLPC  H13R 7139   5.786   1.741   7.915  1.6138 -1.1209  0.1786
   78SLPC  C214 7140   5.711   1.538   7.874  0.0773 -0.2048 -0.5358
   78SLPC  H14R 7141   5.757   1.451   7.823  2.8029  1.4042 -0.9936
   78SLPC  H14S 7142   5.601   1.525   7.866  0.0682 -1.0076  0.6157
   78SLPC  C215 7143   5.761   1.516   8.019 -0.3661 -0.0365 -0.7481
   78SLPC  H15R 7144   5.738   1.609   8.076  1.5531  1.6645 -2.5920
   78SLPC  H15S 7145   5.872   1.517   8.024 -0.3843 -1.5729  1.1170
   78SLPC  C216 7146   5.711   1.385   8.094  1.2134 -1.0862 -0.6535
   78SLPC  H16R 7147   5.707   1.293   8.030 -0.5004 -1.6946  0.2530
   78SLPC  H16S 7148   5.608   1.403   8.132  0.5415 -2.8250 -1.5283
   78SLPC  C217 7149   5.805   1.354   8.212 -0.3562 -0.2929  0.0102
   78SLPC  H17R 7150   5.903   1.316   8.176 -0.2409 -1.2050  1.2129
   78SLPC  H17S 7151   5.755   1.278   8.275  1.2767 -0.6868  0.8804
   78SLPC  C218 7152   5.834   1.467   8.308  0.0467 -0.6143 -0.4052
   78SLPC  H18R 7153   5.875   1.554   8.253 -1.8415  1.0216  0.6718
   78SLPC  H18S 7154   5.909   1.439   8.384  0.0418 -1.4683 -0.7005
   78SLPC  H18T 7155   5.735   1.504   8.343  0.1611 -0.6019 -0.1016
   78SLPC   C33 7156   5.306   1.905   6.923 -0.1598  0.2639 -0.5429
   78SLPC   H3X 7157   5.238   1.875   6.840 -3.0315 -0.5585  1.9500
   78SLPC   H3Y 7158   5.295   2.015   6.934 -2.9352  0.0408 -0.5141
   78SLPC   C34 7159   5.267   1.840   7.058  0.5629  0.0480  0.4188
   78SLPC   H4X 7160   5.305   1.737   7.074  1.2258  0.6405  3.1214
   78SLPC   H4Y 7161   5.156   1.838   7.061  0.5553 -0.5122  0.0219
   78SLPC   C35 7162   5.314   1.926   7.171  0.0974 -0.1653  0.8822
   78SLPC   H5X 7163   5.254   2.019   7.180  0.7052  0.2337  0.9158
   78SLPC   H5Y 7164   5.410   1.975   7.146 -0.7775  1.3963  0.4675
   78SLPC   C36 7165   5.325   1.850   7.306  0.5124 -0.0137  0.0986
   78SLPC   H6X 7166   5.401   1.768   7.304  0.3142 -0.2244  0.8125
   78SLPC   H6Y 7167   5.237   1.796   7.347 -0.7947  1.1076 -1.1705
   78SLPC   C37 7168   5.354   1.951   7.415  0.3161 -0.0520  0.2292
   78SLPC   H7X 7169   5.278   2.032   7.404  1.8068  1.4567  0.7724
   78SLPC   H7Y 7170   5.451   2.003   7.404 -0.3879  1.3708  0.5797
   78SLPC   C38 7171   5.369   1.901   7.567 -0.1295 -0.6025  0.4730
   78SLPC   H8X 7172   5.447   1.822   7.569  2.1181  1.1351 -4.2737
   78SLPC   H8Y 7173   5.273   1.845   7.581  0.9972 -3.1053 -1.0717
   78SLPC   C39 7174   5.403   2.009   7.666 -0.1585 -0.4966 -0.8145
   78SLPC   H9X 7175   5.319   2.080   7.680  2.5977  2.5017  2.3240
   78SLPC   H9Y 7176   5.489   2.066   7.626 -0.5391  1.0180  0.4422
   78SLPC  C310 7177   5.448   1.951   7.806 -0.0720 -0.7637 -0.2566
   78SLPC  H10X 7178   5.543   2.004   7.829  0.4535 -1.7564 -0.0561
   78SLPC  H10Y 7179   5.480   1.846   7.787  2.0051 -0.0564 -0.9421
   78SLPC  C311 7180   5.346   1.964   7.921 -1.4620 -0.5671 -0.1046
   78SLPC  H11X 7181   5.254   1.902   7.921 -1.6106 -0.3729 -1.6827
   78SLPC  H11Y 7182   5.311   2.069   7.935 -1.5924 -0.1622 -2.9773
   78SLPC  C312 7183   5.427   1.935   8.051 -0.0930  0.6606 -0.9257
   78SLPC  H12X 7184   5.367   1.987   8.129 -0.2504 -0.5883 -0.1812
   78SLPC  H12Y 7185   5.525   1.988   8.049 -0.1821  0.8241 -1.0253
   78SLPC  C313 7186   5.435   1.789   8.091  0.5032 -0.1090  0.0916
   78SLPC  H13X 7187   5.484   1.747   8.001 -2.4825  0.8135 -2.1299
   78SLPC  H13Y 7188   5.332   1.749   8.103  0.1735  1.4210  3.4466
   78SLPC  C314 7189   5.539   1.763   8.204  0.3261 -0.8648  0.4706
   78SLPC  H14X 7190   5.631   1.819   8.176 -1.0033  1.0478 -0.2093
   78SLPC  H14Y 7191   5.567   1.659   8.232  1.3228 -0.9618 -0.7835
   78SLPC  C315 7192   5.483   1.833   8.325 -0.8768  0.3605 -1.0259
   78SLPC  H15X 7193   5.386   1.789   8.357  0.3804 -1.2404  0.8106
   78SLPC  H15Y 7194   5.467   1.943   8.313  2.5017  0.9260 -1.3577
   78SLPC  C316 7195   5.594   1.822   8.444  0.4496 -0.3622  0.4177
   78SLPC  H16X 7196   5.686   1.880   8.419  0.2762  0.9853  2.6477
   78SLPC  H16Y 7197   5.627   1.716   8.437 -2.7959 -1.3812 -1.8707
   78SLPC  C317 7198   5.550   1.870   8.580  0.3342 -0.9737 -0.5338
   78SLPC  H17X 7199   5.476   1.803   8.629  0.9511 -0.1795  1.5893
   78SLPC  H17Y 7200   5.508   1.972   8.568 -0.3314 -1.1642  0.1083
   78SLPC  C318 7201   5.666   1.882   8.676 -0.5514 -0.0363 -0.2476
   78SLPC  H18X 7202   5.752   1.944   8.642 -1.1416  0.0179 -1.7314
   78SLPC  H18Y 7203   5.708   1.780   8.681 -0.1639  0.1643  0.9579
   78SLPC  H18Z 7204   5.626   1.912   8.775  1.3657  1.7128  0.0612
   79SLPC     N 7205   1.386   4.652   5.966 -0.0426  0.1103  0.5040
   79SLPC   C13 7206   1.306   4.530   5.922  0.6158  0.0959  0.3160
   79SLPC  H13A 7207   1.365   4.441   5.936  1.1852  0.3258 -0.5623
   79SLPC  H13B 7208   1.218   4.515   5.982 -0.3734 -3.7634 -1.7891
   79SLPC  H13C 7209   1.274   4.539   5.819  2.7157  0.8185 -0.3306
   79SLPC   C14 7210   1.304   4.775   5.929  0.8999 -0.0235  0.2046
   79SLPC  H14A 7211   1.279   4.757   5.826 -0.6039 -3.6139  1.0705
   79SLPC  H14B 7212   1.215   4.787   5.988 -0.5910  0.2065 -1.9721
   79SLPC  H14C 7213   1.373   4.858   5.940  1.1268 -0.1521 -0.2423
   79SLPC   C15 7214   1.505   4.666   5.883 -0.1561  0.7819 -0.3175
   79SLPC  H15A 7215   1.565   4.750   5.915  0.5383 -0.2176  1.1082
   79SLPC  H15B 7216   1.560   4.575   5.902 -0.9920  0.7139  2.1684
   79SLPC  H15C 7217   1.478   4.697   5.783  0.5527  0.8512 -0.4932
   79SLPC   C12 7218   1.414   4.648   6.117  0.0878  0.7313 -0.3498
   79SLPC  H12A 7219   1.481   4.565   6.135  1.4138  1.5713 -1.2227
   79SLPC  H12B 7220   1.323   4.630   6.172  0.2472  3.2315  0.8412
   79SLPC   C11 7221   1.488   4.766   6.179  0.4059  0.2400 -0.1057
   79SLPC  H11A 7222   1.483   4.736   6.285  0.8897 -0.7641 -0.3535
   79SLPC  H11B 7223   1.439   4.862   6.152  0.6646 -0.3940 -3.2572
   79SLPC     P 7224   1.750   4.717   6.195  0.1198 -0.1896 -0.0198
   79SLPC   O13 7225   1.756   4.575   6.175 -0.0522  0.0461 -0.4739
   79SLPC   O14 7226   1.866   4.802   6.165  0.0548 -0.0565 -0.8739
   79SLPC   O12 7227   1.623   4.783   6.126  0.7647  0.0327 -0.0960
   79SLPC   O11 7228   1.721   4.739   6.349  0.4319 -0.9280  0.1817
   79SLPC    C1 7229   1.720   4.876   6.399  0.0430  0.4647  0.2961
   79SLPC    HA 7230   1.733   4.953   6.320 -1.1660 -0.6585 -1.0597
   79SLPC    HB 7231   1.616   4.891   6.435 -0.2074  0.3087 -0.3387
   79SLPC    C2 7232   1.814   4.895   6.517 -0.2000 -0.0028 -0.0160
   79SLPC    HS 7233   1.911   4.844   6.495 -0.4992 -0.8583  0.5808
   79SLPC   O21 7234   1.755   4.835   6.632  0.2312 -0.3365 -0.4408
   79SLPC   C21 7235   1.831   4.766   6.717  0.3927 -0.6074 -0.4507
   79SLPC   O22 7236   1.947   4.733   6.697 -0.0968  0.1110  0.9491
   79SLPC   C22 7237   1.746   4.726   6.839 -0.0399  0.3987  0.7678
   79SLPC   H2R 7238   1.694   4.820   6.871 -0.7999  0.7125 -1.2830
   79SLPC   H2S 7239   1.674   4.645   6.816 -0.3576  0.5086  1.3317
   79SLPC    C3 7240   1.838   5.040   6.541  0.2740  0.5563  0.2196
   79SLPC    HX 7241   1.739   5.086   6.561  0.3176  1.7055 -1.9248
   79SLPC    HY 7242   1.883   5.084   6.450  2.5554 -0.8788  0.5636
   79SLPC   O31 7243   1.913   5.073   6.660 -0.7271  0.0636  0.6957
   79SLPC   C31 7244   2.043   5.084   6.651 -0.2127  0.9144  0.3297
   79SLPC   O32 7245   2.108   5.051   6.552 -0.1914  0.5681 -0.5309
   79SLPC   C32 7246   2.112   5.123   6.785 -0.3487 -0.5156  0.0057
   79SLPC   H2X 7247   2.130   5.233   6.777  0.8860 -0.8101 -2.3361
   79SLPC   H2Y 7248   2.215   5.081   6.784  0.0330  0.3980 -0.0580
   79SLPC   C23 7249   1.823   4.681   6.966 -0.4100  0.2187  0.7017
   79SLPC   H3R 7250   1.893   4.765   6.986 -1.3093  1.8535 -2.3762
   79SLPC   H3S 7251   1.875   4.583   6.956  0.7225  0.6191  2.2317
   79SLPC   C24 7252   1.731   4.671   7.083 -0.3482  0.0645  0.1043
   79SLPC   H4R 7253   1.650   4.598   7.060  0.2393 -0.1436 -1.4038
   79SLPC   H4S 7254   1.676   4.767   7.092  0.1562  0.7869 -3.2618
   79SLPC   C25 7255   1.807   4.633   7.209 -0.2481 -0.5651  0.5928
   79SLPC   H5R 7256   1.891   4.707   7.212  0.8512 -1.6766 -1.2484
   79SLPC   H5S 7257   1.851   4.533   7.188  0.9314 -0.2569  1.4548
   79SLPC   C26 7258   1.727   4.636   7.340 -0.1303  0.6488  0.2120
   79SLPC   H6R 7259   1.655   4.551   7.343 -1.0982  1.4725  2.4335
   79SLPC   H6S 7260   1.655   4.719   7.346 -2.1632 -0.9464 -0.8170
   79SLPC   C27 7261   1.814   4.624   7.468 -0.4217  0.1802  0.2414
   79SLPC   H7R 7262   1.885   4.709   7.477  0.1151 -0.1595 -0.6256
   79SLPC   H7S 7263   1.869   4.529   7.452  0.5966  0.8507 -0.3939
   79SLPC   C28 7264   1.737   4.600   7.607 -0.1261  0.3947  1.0794
   79SLPC   H8R 7265   1.660   4.524   7.581  1.1865 -0.0280 -2.1132
   79SLPC   H8S 7266   1.693   4.697   7.637 -0.1294  2.5761 -4.6943
   79SLPC   C29 7267   1.842   4.538   7.701  0.0066 -0.1658  0.5941
   79SLPC   H9R 7268   1.945   4.569   7.678 -0.0582  1.7148  2.5696
   79SLPC  C210 7269   1.820   4.456   7.804 -0.1972  0.2705  0.0505
   79SLPC  H10R 7270   1.909   4.417   7.856  0.0251  0.8985  0.1524
   79SLPC  C211 7271   1.691   4.402   7.847  1.3143  1.1253 -0.6029
   79SLPC  H11R 7272   1.681   4.294   7.825  0.7617  1.4693 -2.1097
   79SLPC  H11S 7273   1.605   4.443   7.790  0.3547 -2.3188 -1.9261
   79SLPC  C212 7274   1.675   4.431   7.995  0.5613  0.0660 -0.5087
   79SLPC  H12R 7275   1.626   4.527   8.016  1.4274  0.4175 -0.0544
   79SLPC  C213 7276   1.700   4.348   8.094  0.9024 -0.0035 -0.1608
   79SLPC  H13R 7277   1.694   4.395   8.193 -0.5352  1.0345 -0.6992
   79SLPC  C214 7278   1.744   4.205   8.077 -0.0383  0.2975 -0.0401
   79SLPC  H14R 7279   1.855   4.201   8.067 -0.1972 -1.0296 -1.5519
   79SLPC  H14S 7280   1.716   4.156   7.982  3.2091 -0.7844 -0.5554
   79SLPC  C215 7281   1.688   4.118   8.186 -0.6276  0.4753 -0.1673
   79SLPC  H15R 7282   1.727   4.015   8.170 -2.0550 -0.1470  0.2592
   79SLPC  H15S 7283   1.577   4.113   8.184 -0.6004 -2.2351  1.0101
   79SLPC  C216 7284   1.730   4.160   8.327 -0.4447  0.1717 -0.3952
   79SLPC  H16R 7285   1.669   4.104   8.401  1.9616 -0.9267  0.8757
   79SLPC  H16S 7286   1.700   4.266   8.344 -3.2505 -0.6270  0.2142
   79SLPC  C217 7287   1.878   4.141   8.364 -0.4863  0.0860 -0.0846
   79SLPC  H17R 7288   1.883   4.141   8.475 -0.8177  2.1183 -0.0323
   79SLPC  H17S 7289   1.927   4.235   8.330 -2.6663  0.5896 -2.1297
   79SLPC  C218 7290   1.931   4.002   8.319 -1.0903 -0.0334  0.1374
   79SLPC  H18R 7291   1.858   3.926   8.354 -1.1585  0.2193  0.5631
   79SLPC  H18S 7292   2.026   3.987   8.374 -1.6361 -1.7491  0.6789
   79SLPC  H18T 7293   1.947   3.983   8.211 -0.9809 -2.6976  0.5710
   79SLPC   C33 7294   2.028   5.071   6.899  0.7360 -0.3746 -0.9625
   79SLPC   H3X 7295   2.014   4.962   6.882  0.1862 -0.2461 -1.3296
   79SLPC   H3Y 7296   1.932   5.126   6.905  1.6524  1.1714  2.7605
   79SLPC   C34 7297   2.081   5.076   7.040  0.6464 -0.2807 -0.7063
   79SLPC   H4X 7298   2.142   5.168   7.051 -0.9494  0.5868  1.7489
   79SLPC   H4Y 7299   2.148   4.992   7.065  0.1339 -1.0274 -1.7874
   79SLPC   C35 7300   1.969   5.075   7.151 -0.6726  0.0442  0.3096
   79SLPC   H5X 7301   1.898   4.995   7.120 -0.5790  0.5442 -1.2998
   79SLPC   H5Y 7302   1.916   5.172   7.134 -0.3092 -0.0842 -1.8918
   79SLPC   C36 7303   2.010   5.051   7.294  0.5406  0.1158 -0.7037
   79SLPC   H6X 7304   2.032   5.149   7.342 -1.4139 -0.4977  1.6443
   79SLPC   H6Y 7305   2.102   4.990   7.291  0.4960 -0.3304  3.1880
   79SLPC   C37 7306   1.893   4.985   7.370 -0.1761  0.8307  0.1851
   79SLPC   H7X 7307   1.880   4.877   7.349  2.4140  0.2040  1.4490
   79SLPC   H7Y 7308   1.793   5.032   7.357  0.2271  2.2123  1.7572
   79SLPC   C38 7309   1.902   5.000   7.525 -0.6978 -0.8131 -0.1455
   79SLPC   H8X 7310   1.812   4.963   7.578 -0.3313  1.0303  1.8802
   79SLPC   H8Y 7311   1.907   5.110   7.535  0.5025 -0.8025 -0.6719
   79SLPC   C39 7312   2.031   4.940   7.584  0.3824 -0.3860 -0.6523
   79SLPC   H9X 7313   2.108   5.008   7.541  1.5388 -1.0406  0.3198
   79SLPC   H9Y 7314   2.052   4.836   7.554  1.7911  0.3567 -2.3882
   79SLPC  C310 7315   2.044   4.949   7.736 -0.0424  0.0979  0.8232
   79SLPC  H10X 7316   2.016   5.052   7.769  1.5720  0.6796  0.4973
   79SLPC  H10Y 7317   2.147   4.930   7.774 -0.1598  1.1884  1.7180
   79SLPC  C311 7318   1.963   4.838   7.808  0.2160 -0.0637 -0.3811
   79SLPC  H11X 7319   1.996   4.738   7.773 -0.3813  0.1021 -1.4412
   79SLPC  H11Y 7320   1.859   4.856   7.773  0.7259  0.1782 -1.8222
   79SLPC  C312 7321   1.978   4.830   7.963 -0.1445 -0.7176 -0.4080
   79SLPC  H12X 7322   2.085   4.824   7.992  0.2496 -0.4806 -1.7462
   79SLPC  H12Y 7323   1.940   4.731   7.999  2.0906 -2.2811 -2.0926
   79SLPC  C313 7324   1.913   4.945   8.033 -0.0496  0.3583 -0.0424
   79SLPC  H13X 7325   1.806   4.952   8.004  0.1947  0.7367 -0.8820
   79SLPC  H13Y 7326   1.956   5.040   7.995 -0.5775  0.1031 -1.3172
   79SLPC  C314 7327   1.918   4.941   8.184 -0.1458  0.1051 -0.3618
   79SLPC  H14X 7328   2.023   4.933   8.221 -1.5924 -1.5493  4.1003
   79SLPC  H14Y 7329   1.877   4.844   8.219  1.7921 -1.0494 -1.1244
   79SLPC  C315 7330   1.850   5.072   8.237 -0.6888  0.0591  0.2490
   79SLPC  H15X 7331   1.767   5.109   8.173 -1.2040  1.7824  1.8357
   79SLPC  H15Y 7332   1.921   5.157   8.231 -0.3621 -0.2006  0.4220
   79SLPC  C316 7333   1.802   5.059   8.383  0.3639 -0.0237 -0.3273
   79SLPC  H16X 7334   1.895   5.047   8.442  1.0166 -0.7732 -1.4697
   79SLPC  H16Y 7335   1.743   4.967   8.402  0.5072 -0.1785 -0.6295
   79SLPC  C317 7336   1.727   5.188   8.430  0.1411  0.0450 -0.2642
   79SLPC  H17X 7337   1.630   5.187   8.376  1.1706  0.8716 -2.2157
   79SLPC  H17Y 7338   1.785   5.278   8.400  1.2999 -0.1039  1.3434
   79SLPC  C318 7339   1.711   5.196   8.581 -0.5818  0.1027  0.4016
   79SLPC  H18X 7340   1.706   5.090   8.617  1.6070 -0.8850 -1.9153
   79SLPC  H18Y 7341   1.631   5.267   8.611  1.5280  2.6774  0.2468
   79SLPC  H18Z 7342   1.804   5.236   8.626  1.3507 -0.5068 -2.7695
   80SLPC     N 7343   4.559   3.858   6.302 -0.0617  0.0146  0.4099
   80SLPC   C13 7344   4.639   3.909   6.191  0.3225  1.1159  0.6378
   80SLPC  H13A 7345   4.588   3.944   6.103 -0.0254 -0.7384  0.0601
   80SLPC  H13B 7346   4.696   3.995   6.223 -0.6964  0.7171  3.8021
   80SLPC  H13C 7347   4.712   3.836   6.160  2.0255  2.6321  0.9024
   80SLPC   C14 7348   4.480   3.973   6.357  0.6755 -0.1203 -0.2566
   80SLPC  H14A 7349   4.408   4.019   6.291  0.2411  1.0679  0.9858
   80SLPC  H14B 7350   4.438   3.947   6.453  1.9883 -1.1115  0.0851
   80SLPC  H14C 7351   4.541   4.056   6.391 -0.4873 -0.2760  2.4552
   80SLPC   C15 7352   4.644   3.805   6.406  0.2917 -0.7929 -0.2833
   80SLPC  H15A 7353   4.589   3.798   6.499 -0.0252 -2.8549 -0.5612
   80SLPC  H15B 7354   4.680   3.706   6.380 -0.7367 -1.3482  0.3105
   80SLPC  H15C 7355   4.729   3.867   6.430 -0.9771  0.2073  1.9489
   80SLPC   C12 7356   4.461   3.749   6.247 -0.7494  0.0698 -0.2557
   80SLPC  H12A 7357   4.385   3.791   6.183 -0.3791  2.0811  0.5398
   80SLPC  H12B 7358   4.412   3.717   6.338 -1.7357  0.7021 -0.5547
   80SLPC   C11 7359   4.536   3.629   6.176  0.3240 -0.7831  0.3176
   80SLPC  H11A 7360   4.584   3.654   6.080  0.9541  2.0479  1.2839
   80SLPC  H11B 7361   4.450   3.562   6.156 -0.7070  1.3563 -2.9753
   80SLPC     P 7362   4.614   3.427   6.327  0.1505  0.1345 -0.1363
   80SLPC   O13 7363   4.474   3.377   6.310  0.1381 -0.0697  0.2747
   80SLPC   O14 7364   4.731   3.347   6.288 -0.3193 -0.2612  0.0700
   80SLPC   O12 7365   4.627   3.568   6.264  0.2550  0.4529 -0.6836
   80SLPC   O11 7366   4.621   3.461   6.486 -0.2085  0.1061  0.0797
   80SLPC    C1 7367   4.754   3.491   6.543 -0.1190  0.2899 -0.3587
   80SLPC    HA 7368   4.834   3.510   6.468 -2.1067 -1.1524 -3.0207
   80SLPC    HB 7369   4.731   3.567   6.620 -0.4495 -0.7023  0.5407
   80SLPC    C2 7370   4.794   3.376   6.633 -0.8459 -0.3390 -0.2790
   80SLPC    HS 7371   4.863   3.317   6.569 -0.5029  0.3542 -0.5536
   80SLPC   O21 7372   4.689   3.291   6.678  0.4942  0.1102  0.3535
   80SLPC   C21 7373   4.711   3.200   6.769 -1.0692  0.6054 -0.0315
   80SLPC   O22 7374   4.820   3.157   6.802  0.5356 -0.4134 -0.2174
   80SLPC   C22 7375   4.584   3.146   6.829 -1.4022  0.1090 -0.1112
   80SLPC   H2R 7376   4.524   3.236   6.854  0.6165  1.3192  0.6079
   80SLPC   H2S 7377   4.533   3.077   6.759 -1.4043  0.4967 -0.4942
   80SLPC    C3 7378   4.886   3.431   6.756  1.0836  0.2682  0.2519
   80SLPC    HX 7379   4.953   3.507   6.710 -0.2352  2.3845  1.6550
   80SLPC    HY 7380   4.945   3.347   6.799 -0.7616 -1.3720 -0.2728
   80SLPC   O31 7381   4.803   3.494   6.849 -0.1392 -0.0585 -0.5393
   80SLPC   C31 7382   4.810   3.625   6.875  0.6845 -0.2042  0.5321
   80SLPC   O32 7383   4.878   3.705   6.812  0.0311  0.4533 -0.4018
   80SLPC   C32 7384   4.699   3.667   6.966  0.3685  0.6240  0.5122
   80SLPC   H2X 7385   4.618   3.705   6.900 -0.6220 -0.6116  0.9554
   80SLPC   H2Y 7386   4.742   3.754   7.021  0.8403  0.9524 -0.3607
   80SLPC   C23 7387   4.604   3.060   6.961  0.1770 -0.2247  0.3466
   80SLPC   H3R 7388   4.684   2.983   6.954 -0.1578 -0.7491  1.8421
   80SLPC   H3S 7389   4.515   2.997   6.980  0.0173  0.7964  3.5494
   80SLPC   C24 7390   4.609   3.143   7.085 -0.0210  0.2068 -0.4738
   80SLPC   H4R 7391   4.521   3.210   7.081 -1.5909 -1.7589 -0.5253
   80SLPC   H4S 7392   4.689   3.220   7.089 -1.1077  1.4217 -1.2493
   80SLPC   C25 7393   4.614   3.073   7.223 -0.8241 -0.3230  0.0737
   80SLPC   H5R 7394   4.516   3.026   7.246 -1.8841  1.1190 -1.2403
   80SLPC   H5S 7395   4.642   3.153   7.295  0.7865 -0.1477 -0.7038
   80SLPC   C26 7396   4.709   2.949   7.237  0.2336  0.0789 -0.2851
   80SLPC   H6R 7397   4.815   2.975   7.213 -0.1041  1.1914 -0.6229
   80SLPC   H6S 7398   4.679   2.879   7.156 -1.5697 -1.3353  1.5146
   80SLPC   C27 7399   4.696   2.869   7.367  0.3816 -0.4832 -0.1587
   80SLPC   H7R 7400   4.716   2.763   7.341  1.7162 -0.0821 -0.7968
   80SLPC   H7S 7401   4.591   2.877   7.403  0.6657 -2.9397  1.4432
   80SLPC   C28 7402   4.798   2.921   7.475 -0.5271  0.3453 -0.1859
   80SLPC   H8R 7403   4.757   3.021   7.500 -1.6877 -0.4544  1.1747
   80SLPC   H8S 7404   4.897   2.933   7.425  1.0017  1.4243  2.8312
   80SLPC   C29 7405   4.807   2.823   7.591 -0.0842  0.4439  0.0747
   80SLPC   H9R 7406   4.813   2.716   7.568 -2.1061  0.4891 -0.8111
   80SLPC  C210 7407   4.812   2.853   7.723 -0.2137  0.4084 -0.9257
   80SLPC  H10R 7408   4.823   2.765   7.788 -1.2452 -1.1669 -2.7649
   80SLPC  C211 7409   4.795   2.993   7.785 -0.2744 -0.3563  0.4080
   80SLPC  H11R 7410   4.779   2.992   7.895 -1.6730 -3.8290  0.3010
   80SLPC  H11S 7411   4.698   3.028   7.743 -0.4874 -0.1646  1.0618
   80SLPC  C212 7412   4.899   3.103   7.748  0.3491 -0.6937 -0.4317
   80SLPC  H12R 7413   4.930   3.111   7.642  1.9890  2.3856  0.1579
   80SLPC  C213 7414   4.963   3.176   7.840 -0.3411 -0.5711  0.1309
   80SLPC  H13R 7415   5.023   3.260   7.802 -1.6698 -0.2180 -1.2938
   80SLPC  C214 7416   4.955   3.180   7.989  0.0623 -0.2485  0.1884
   80SLPC  H14R 7417   4.911   3.090   8.036  1.3098 -0.6514  0.6338
   80SLPC  H14S 7418   4.897   3.270   8.020 -2.0209 -0.7052 -2.0558
   80SLPC  C215 7419   5.098   3.161   8.063  0.4186 -0.5200  0.3991
   80SLPC  H15R 7420   5.143   3.068   8.024 -0.9928 -1.2439  0.4121
   80SLPC  H15S 7421   5.080   3.137   8.170  0.3998  3.5220  1.4614
   80SLPC  C216 7422   5.181   3.296   8.062  0.7921  0.6399  0.3970
   80SLPC  H16R 7423   5.108   3.378   8.079  0.8230  0.3211  2.2344
   80SLPC  H16S 7424   5.232   3.298   7.963 -1.6110 -2.0575 -1.0463
   80SLPC  C217 7425   5.287   3.300   8.173  0.1238  0.3459 -0.0650
   80SLPC  H17R 7426   5.258   3.263   8.274  0.1279  3.5641  1.2093
   80SLPC  H17S 7427   5.320   3.405   8.184 -0.2238  0.4508 -0.0147
   80SLPC  C218 7428   5.411   3.214   8.136  0.7231  0.2623 -0.0343
   80SLPC  H18R 7429   5.443   3.253   8.037 -0.5397 -0.5499 -0.7946
   80SLPC  H18S 7430   5.400   3.104   8.120  2.1524  0.2622 -1.1975
   80SLPC  H18T 7431   5.490   3.218   8.214  0.4719  0.3318  0.2173
   80SLPC   C33 7432   4.650   3.562   7.069  0.3273  0.0766  0.0012
   80SLPC   H3X 7433   4.642   3.465   7.014  1.7757  0.0048 -0.1173
   80SLPC   H3Y 7434   4.547   3.581   7.106  1.2062  1.0411  2.0989
   80SLPC   C34 7435   4.744   3.508   7.177 -0.1246 -0.0431  0.1844
   80SLPC   H4X 7436   4.850   3.509   7.143  1.0503  0.4184  3.5574
   80SLPC   H4Y 7437   4.729   3.398   7.190  2.6818 -0.7610 -1.7248
   80SLPC   C35 7438   4.725   3.586   7.308  0.4603  0.1517  0.2905
   80SLPC   H5X 7439   4.622   3.618   7.336  0.5868  0.7128  0.1367
   80SLPC   H5Y 7440   4.785   3.679   7.315 -1.6215  1.6277 -0.4490
   80SLPC   C36 7441   4.778   3.493   7.426 -0.1838  0.0775 -0.4254
   80SLPC   H6X 7442   4.887   3.484   7.407 -0.1679  2.3406 -1.8545
   80SLPC   H6Y 7443   4.734   3.394   7.400  0.9464 -0.3726 -0.6454
   80SLPC   C37 7444   4.737   3.535   7.568  0.4917 -0.5471  0.0874
   80SLPC   H7X 7445   4.627   3.550   7.566  0.7475  1.5286 -0.5436
   80SLPC   H7Y 7446   4.785   3.632   7.592 -0.9213 -0.1558  1.5529
   80SLPC   C38 7447   4.768   3.421   7.670  0.1079  0.4888  0.7912
   80SLPC   H8X 7448   4.870   3.380   7.655 -0.3922  0.0898 -2.0562
   80SLPC   H8Y 7449   4.696   3.340   7.647 -0.6555 -0.1738  4.7170
   80SLPC   C39 7450   4.757   3.455   7.820 -0.4544  0.2608 -0.5526
   80SLPC   H9X 7451   4.771   3.364   7.881 -0.1360  0.8507  0.2603
   80SLPC   H9Y 7452   4.656   3.493   7.847 -2.0847 -1.6851 -3.3084
   80SLPC  C310 7453   4.865   3.556   7.863  0.0110 -0.1707 -0.1746
   80SLPC  H10X 7454   4.838   3.650   7.811 -1.6438  0.4799  1.7534
   80SLPC  H10Y 7455   4.963   3.515   7.830 -0.6163 -0.1139 -2.2653
   80SLPC  C311 7456   4.862   3.578   8.009 -0.0461  0.5387 -0.5944
   80SLPC  H11X 7457   4.875   3.489   8.075 -1.2948 -0.1770 -1.2627
   80SLPC  H11Y 7458   4.761   3.607   8.046 -0.4617  0.3035 -1.5068
   80SLPC  C312 7459   4.967   3.683   8.047  0.7013  0.6190  0.1318
   80SLPC  H12X 7460   4.944   3.769   7.980 -0.1761 -0.9508 -1.6993
   80SLPC  H12Y 7461   5.066   3.640   8.019  0.0288 -0.7975 -0.1775
   80SLPC  C313 7462   4.963   3.705   8.198  0.1125 -0.2385  1.0154
   80SLPC  H13X 7463   4.894   3.628   8.240 -1.2248 -0.3339 -1.1969
   80SLPC  H13Y 7464   4.927   3.809   8.207 -0.2033 -0.0558 -1.6795
   80SLPC  C314 7465   5.105   3.686   8.259  0.1164 -0.0916  0.3999
   80SLPC  H14X 7466   5.181   3.755   8.217 -1.8844  2.2193  0.4010
   80SLPC  H14Y 7467   5.150   3.585   8.241 -0.0345 -0.0220 -0.4213
   80SLPC  C315 7468   5.102   3.699   8.418 -0.5105 -0.1153  0.0415
   80SLPC  H15X 7469   5.194   3.656   8.463 -0.6506 -0.4498  0.0103
   80SLPC  H15Y 7470   5.015   3.646   8.462 -0.9007  1.4657  1.2884
   80SLPC  C316 7471   5.088   3.846   8.457 -0.6341 -0.2692 -0.6103
   80SLPC  H16X 7472   4.997   3.875   8.400  0.2191 -1.9594 -2.9999
   80SLPC  H16Y 7473   5.172   3.907   8.417  0.3698 -0.7230  0.7726
   80SLPC  C317 7474   5.074   3.874   8.615  0.1517 -0.2953 -0.1789
   80SLPC  H17X 7475   5.171   3.835   8.653  0.7378 -1.5891 -2.7594
   80SLPC  H17Y 7476   4.995   3.800   8.639 -1.1811  0.4853 -1.8812
   80SLPC  C318 7477   5.044   4.016   8.656 -0.3111 -0.5642 -0.4724
   80SLPC  H18X 7478   5.129   4.079   8.621 -0.0068 -1.3770 -1.2209
   80SLPC  H18Y 7479   5.039   4.013   8.767 -0.6072 -3.5425 -0.4797
   80SLPC  H18Z 7480   4.955   4.059   8.606  0.2743  1.0760 -0.1681
   81SAPS     N 7481   3.018   0.104  11.158 -0.1812  0.2423 -0.5339
   81SAPS   HN1 7482   2.972   0.056  11.237  0.9910 -0.5380 -0.3029
   81SAPS   HN2 7483   2.974   0.198  11.168 -1.3986 -0.4801  1.2470
   81SAPS   HN3 7484   2.987   0.064  11.067  0.5027  1.7379 -1.4648
   81SAPS   C12 7485   3.168   0.128  11.163  0.9269 -0.0361  0.1107
   81SAPS  H12A 7486   3.196   0.166  11.260  1.4105  0.6984 -0.3038
   81SAPS   C13 7487   3.256  -0.001  11.160 -0.0647 -0.7530  0.4895
   81SAPS  O13A 7488   3.204  -0.114  11.131 -0.1100  0.0578 -0.5411
   81SAPS  O13B 7489   3.380   0.007  11.167 -0.2666 -0.0555 -0.1817
   81SAPS   C11 7490   3.204   0.223  11.043 -0.3471  0.6917 -0.1388
   81SAPS  H11A 7491   3.167   0.165  10.956 -1.3200  1.1595 -0.0521
   81SAPS  H11B 7492   3.314   0.218  11.025 -0.0035 -0.7418  1.9028
   81SAPS     P 7493   3.244   0.477  11.047 -0.7584 -0.0952 -0.1525
   81SAPS   O13 7494   3.151   0.594  11.043 -0.1794 -0.2770 -0.1387
   81SAPS   O14 7495   3.335   0.470  11.166 -0.4934 -0.0345  0.4528
   81SAPS   O12 7496   3.150   0.350  11.059  0.2508  0.6954  0.2763
   81SAPS   O11 7497   3.320   0.465  10.911 -0.3452  0.6500  0.3958
   81SAPS    C1 7498   3.252   0.452  10.785 -0.0822 -0.0347 -0.2491
   81SAPS    HA 7499   3.162   0.389  10.797 -0.1659 -0.0663 -0.9960
   81SAPS    HB 7500   3.229   0.556  10.755 -1.1271 -0.0292  0.5170
   81SAPS    C2 7501   3.347   0.394  10.682 -0.0801 -0.2181  0.2600
   81SAPS    HS 7502   3.426   0.468  10.656  0.3366 -0.1142  1.7091
   81SAPS   O21 7503   3.265   0.364  10.565 -0.3290  0.4581  0.2764
   81SAPS   C21 7504   3.229   0.474  10.494  0.0506  0.6763  0.3314
   81SAPS   O22 7505   3.279   0.584  10.519 -0.4571  0.3725 -0.2513
   81SAPS   C22 7506   3.137   0.435  10.373  0.1067 -0.1585 -0.2290
   81SAPS   H2R 7507   3.142   0.324  10.362 -1.8556 -0.3747  0.7117
   81SAPS   H2S 7508   3.035   0.459  10.411  0.4918  0.5297  0.4033
   81SAPS    C3 7509   3.405   0.258  10.726 -0.1516 -0.7238 -0.1551
   81SAPS    HX 7510   3.317   0.198  10.758 -0.0963 -1.1636 -0.8068
   81SAPS    HY 7511   3.479   0.262  10.809 -2.3550  1.7819  1.8708
   81SAPS   O31 7512   3.475   0.193  10.613 -0.2014  0.5736 -0.0389
   81SAPS   C31 7513   3.592   0.245  10.581  0.5661  0.7748  0.0852
   81SAPS   O32 7514   3.641   0.337  10.641 -0.1786 -0.5906  0.0604
   81SAPS   C32 7515   3.666   0.172  10.459 -0.1747  1.0313  1.2518
   81SAPS   H2X 7516   3.719   0.084  10.502 -0.6697 -0.0543 -0.2889
   81SAPS   H2Y 7517   3.732   0.244  10.406  1.5770 -1.8822 -0.7735
   81SAPS   C23 7518   3.183   0.521  10.254 -0.1021 -0.1031  0.0807
   81SAPS   H3R 7519   3.294   0.518  10.251 -0.0856  0.5189  0.0535
   81SAPS   H3S 7520   3.157   0.626  10.277 -0.2919 -0.4351  1.4547
   81SAPS   C24 7521   3.120   0.501  10.116  0.1731 -0.0852  0.4273
   81SAPS   H4R 7522   3.139   0.580  10.040 -1.4834 -2.8419 -3.1730
   81SAPS   H4S 7523   3.010   0.503  10.128 -0.5163 -3.1971 -3.3577
   81SAPS   C25 7524   3.154   0.362  10.064  1.0163 -0.2770  0.2974
   81SAPS   H5R 7525   3.145   0.282  10.138  1.8903  0.6336  1.4275
   81SAPS   C26 7526   3.183   0.338   9.933  0.3028  0.3353  0.6735
   81SAPS   H6R 7527   3.226   0.239   9.915  0.7137  0.5198  0.6362
   81SAPS   C27 7528   3.188   0.430   9.823 -0.0025 -0.1388 -0.3432
   81SAPS   H7R 7529   3.126   0.521   9.832  0.9461  0.4683  0.2167
   81SAPS   H7S 7530   3.153   0.388   9.726  2.1678 -0.6223 -0.9707
   81SAPS   C28 7531   3.336   0.458   9.828  0.4027 -0.1373  0.1208
   81SAPS   H8R 7532   3.377   0.495   9.923 -0.5854 -1.5042  1.1188
   81SAPS   C29 7533   3.427   0.422   9.730  0.1431 -1.1983 -0.2600
   81SAPS   H9R 7534   3.532   0.447   9.753  0.1223 -1.1123 -0.2579
   81SAPS  C210 7535   3.404   0.336   9.602 -0.5307  0.0564 -0.1564
   81SAPS  H10R 7536   3.501   0.287   9.577 -0.6708  1.0287 -2.9655
   81SAPS  H10S 7537   3.380   0.402   9.516 -2.0209 -1.2857 -0.8270
   81SAPS  C211 7538   3.300   0.224   9.594 -0.0430  0.2359 -0.3395
   81SAPS  H11R 7539   3.231   0.233   9.509  1.8130 -0.0404 -1.9507
   81SAPS  C212 7540   3.297   0.108   9.659  0.3436  0.5619  0.1297
   81SAPS  H12R 7541   3.206   0.050   9.642 -0.1484  1.3580  0.0073
   81SAPS  C213 7542   3.389   0.054   9.763 -0.2480  1.0193  0.3780
   81SAPS  H13R 7543   3.362   0.103   9.860  0.1250  1.6752  0.1568
   81SAPS  H13S 7544   3.489   0.097   9.744 -0.1495  0.1098 -1.2796
   81SAPS  C214 7545   3.402  -0.093   9.784  0.0193  0.0229 -0.2004
   81SAPS  H14R 7546   3.499  -0.140   9.764 -0.3976 -1.7763  1.6287
   81SAPS  C215 7547   3.303  -0.174   9.840 -0.1048  0.1645  0.1790
   81SAPS  H15R 7548   3.330  -0.280   9.854  0.6786  0.5883  2.2184
   81SAPS  C216 7549   3.167  -0.119   9.883 -0.5987  0.3198  0.2003
   81SAPS  H16R 7550   3.094  -0.132   9.800  0.0170  1.9125 -0.6425
   81SAPS  H16S 7551   3.165  -0.010   9.904 -0.8271  0.8088 -2.0731
   81SAPS  C217 7552   3.112  -0.203  10.003  0.3249  0.2920  0.5393
   81SAPS  H17R 7553   3.136  -0.311   9.992 -0.2310  0.2024  0.1699
   81SAPS  H17S 7554   3.001  -0.195   9.994  0.2974 -1.1536 -0.8191
   81SAPS  C218 7555   3.156  -0.154  10.136 -0.1566 -0.2187 -0.3968
   81SAPS  H18R 7556   3.266  -0.147  10.125 -0.2248  0.7818 -0.6107
   81SAPS  H18S 7557   3.132  -0.232  10.211  1.8083 -0.5161 -0.0430
   81SAPS  C219 7558   3.091  -0.018  10.170 -0.2868  0.0808  0.1545
   81SAPS  H19R 7559   2.985  -0.043  10.190  0.2237 -1.1728  1.4786
   81SAPS  H19S 7560   3.104   0.048  10.082  0.5205 -0.4911 -0.1617
   81SAPS  C220 7561   3.138   0.054  10.304  1.2105 -0.4693  0.1458
   81SAPS  H20R 7562   3.069   0.140  10.316 -1.2165 -2.2577 -0.4127
   81SAPS  H20S 7563   3.239   0.098  10.285  0.9955 -0.2377 -0.5124
   81SAPS  H20T 7564   3.129  -0.012  10.392 -1.8813  1.2092  1.2190
   81SAPS   C33 7565   3.568   0.113  10.351 -0.4459 -0.0610  0.3689
   81SAPS   H3X 7566   3.499   0.039  10.397  1.8930 -1.4701  1.7489
   81SAPS   H3Y 7567   3.631   0.043  10.292 -1.8548 -2.3994  1.4921
   81SAPS   C34 7568   3.499   0.213  10.262  0.8657 -0.4480 -0.3118
   81SAPS   H4X 7569   3.422   0.264  10.324 -0.4091  1.4798 -3.2522
   81SAPS   H4Y 7570   3.450   0.167  10.173 -1.0429  1.3668 -0.2675
   81SAPS   C35 7571   3.592   0.319  10.203 -0.3253 -0.4827  0.0243
   81SAPS   H5X 7572   3.631   0.370  10.293  1.6584 -1.2621 -0.3526
   81SAPS   H5Y 7573   3.537   0.391  10.138  0.5754  0.9715  0.8253
   81SAPS   C36 7574   3.704   0.256  10.122 -0.6348  0.5896  0.5916
   81SAPS   H6X 7575   3.755   0.190  10.196 -1.0285  1.1562  1.3807
   81SAPS   H6Y 7576   3.785   0.330  10.100  0.6743 -0.6979  0.9237
   81SAPS   C37 7577   3.667   0.190   9.991  0.5114  0.1387 -0.0559
   81SAPS   H7X 7578   3.635   0.267   9.918  2.7309  0.3539 -0.8917
   81SAPS   H7Y 7579   3.581   0.121  10.001  1.5738 -0.9102  3.2705
   81SAPS   C38 7580   3.777   0.109   9.930  0.1954  0.8553  0.0223
   81SAPS   H8X 7581   3.817   0.027   9.992 -3.1483 -1.1802 -0.2716
   81SAPS   H8Y 7582   3.859   0.184   9.920 -0.8846  1.8459 -2.0826
   81SAPS   C39 7583   3.756   0.061   9.789  0.4686  0.1916  0.1050
   81SAPS   H9X 7584   3.708   0.146   9.736  3.2368  0.6576 -1.8132
   81SAPS   H9Y 7585   3.692  -0.030   9.801  2.0552 -0.9549  0.2267
   81SAPS  C310 7586   3.890   0.018   9.719 -0.1174 -0.3280 -0.1627
   81SAPS  H10X 7587   3.960  -0.012   9.801  1.7706 -0.7298 -1.8496
   81SAPS  H10Y 7588   3.927   0.112   9.673 -0.9327 -0.4178 -1.0263
   81SAPS  C311 7589   3.873  -0.089   9.614  1.4581 -0.5338 -0.1585
   81SAPS  H11X 7590   3.826  -0.179   9.660 -0.4971  0.5409  0.0680
   81SAPS  H11Y 7591   3.974  -0.117   9.577  0.7508 -3.0183 -0.3680
   81SAPS  C312 7592   3.779  -0.062   9.501 -0.0942 -0.3602 -0.7024
   81SAPS  H12X 7593   3.676  -0.059   9.543 -0.1298  2.7771 -0.7505
   81SAPS  H12Y 7594   3.788  -0.148   9.432 -1.3932 -0.5976 -0.6109
   81SAPS  C313 7595   3.805   0.075   9.434  0.1016  0.7772  0.3994
   81SAPS  H13X 7596   3.912   0.081   9.405  0.0808  1.7338  0.4961
   81SAPS  H13Y 7597   3.783   0.157   9.505 -0.5375  2.0094 -1.1557
   81SAPS  C314 7598   3.718   0.081   9.306 -0.0296 -0.8496 -0.0719
   81SAPS  H14X 7599   3.735  -0.009   9.243 -1.9624 -3.7719  3.1972
   81SAPS  H14Y 7600   3.743   0.178   9.259 -1.5927 -0.5344 -0.3141
   81SAPS  C315 7601   3.569   0.102   9.329 -0.2962 -0.0990 -0.0807
   81SAPS  H15X 7602   3.546   0.199   9.378  3.4097  0.1147  1.5861
   81SAPS  H15Y 7603   3.528   0.026   9.399 -0.1193 -0.2007 -0.0857
   81SAPS  C316 7604   3.481   0.104   9.205  0.0005 -0.4893 -0.5273
   81SAPS  H16X 7605   3.390   0.162   9.227  0.9989  2.4601 -3.4639
   81SAPS  H16Y 7606   3.448  -0.002   9.194  0.9254 -0.5232 -3.9073
   81SAPS  C317 7607   3.537   0.171   9.081 -0.2928 -0.0086  0.1493
   81SAPS  H17X 7608   3.637   0.124   9.071  0.3653  1.4454 -0.3334
   81SAPS  H17Y 7609   3.561   0.275   9.112 -0.0918 -0.1972  0.6308
   81SAPS  C318 7610   3.465   0.153   8.946 -0.0314  0.4729  0.3760
   81SAPS  H18X 7611   3.535   0.173   8.862 -0.0267  2.6801  0.8474
   81SAPS  H18Y 7612   3.375   0.218   8.938 -1.9194 -1.9597  0.5298
   81SAPS  H18Z 7613   3.429   0.048   8.944  0.6568  0.2146  1.2460
   82SAPS     N 7614   1.227   4.724  10.986 -0.1795  0.1256  0.3144
   82SAPS   HN1 7615   1.159   4.798  10.960 -0.9364 -0.5270  0.4214
   82SAPS   HN2 7616   1.216   4.635  10.934  0.4796 -0.1430  0.6190
   82SAPS   HN3 7617   1.221   4.703  11.087  1.0872 -2.7229 -0.0851
   82SAPS   C12 7618   1.364   4.777  10.952  0.6828 -0.7323 -0.2886
   82SAPS  H12A 7619   1.389   4.867  11.006 -2.9651  0.0235  0.4289
   82SAPS   C13 7620   1.476   4.678  10.972  0.4910  0.7270 -0.0702
   82SAPS  O13A 7621   1.451   4.575  11.041 -0.7704  0.3797 -0.1480
   82SAPS  O13B 7622   1.593   4.721  10.957  0.5494  0.0411  0.1980
   82SAPS   C11 7623   1.363   4.828  10.798 -0.0302 -0.0472  0.7356
   82SAPS  H11A 7624   1.336   4.753  10.721 -3.4579 -0.0643  1.7635
   82SAPS  H11B 7625   1.458   4.876  10.765 -0.0557  1.2237  2.3673
   82SAPS     P 7626   1.295   5.084  10.778 -0.3420  0.0180  0.9581
   82SAPS   O13 7627   1.169   5.148  10.753 -0.0688 -0.2741 -0.2608
   82SAPS   O14 7628   1.364   5.117  10.905 -0.4376 -0.1135  0.0228
   82SAPS   O12 7629   1.274   4.931  10.772 -0.4402  1.2577  0.0268
   82SAPS   O11 7630   1.382   5.106  10.653 -0.0868  0.0426 -0.0831
   82SAPS    C1 7631   1.343   5.058  10.526  0.0455 -0.2429  0.5406
   82SAPS    HA 7632   1.404   4.970  10.498 -0.3406  0.3506 -2.6088
   82SAPS    HB 7633   1.238   5.024  10.525  1.0215 -3.6495 -0.6903
   82SAPS    C2 7634   1.360   5.156  10.412 -0.5831  0.4164 -0.4049
   82SAPS    HS 7635   1.465   5.193  10.418 -1.0431  1.5791  2.0640
   82SAPS   O21 7636   1.273   5.266  10.431  0.5662  0.1092 -0.3671
   82SAPS   C21 7637   1.287   5.375  10.359  0.2856  0.8097  1.1608
   82SAPS   O22 7638   1.380   5.394  10.282 -0.1928 -0.7057 -0.3229
   82SAPS   C22 7639   1.163   5.468  10.390 -0.3625 -0.1166 -0.2210
   82SAPS   H2R 7640   1.082   5.418  10.332 -0.0739  0.6796 -1.3500
   82SAPS   H2S 7641   1.149   5.465  10.500  1.5920 -2.0626  0.0531
   82SAPS    C3 7642   1.340   5.079  10.277  0.6988 -0.5094 -0.1789
   82SAPS    HX 7643   1.369   5.157  10.203  0.6823 -1.5226 -1.2908
   82SAPS    HY 7644   1.234   5.057  10.253  1.0436 -2.6913  0.1015
   82SAPS   O31 7645   1.420   4.959  10.276  0.7581  0.2000  0.0818
   82SAPS   C31 7646   1.527   4.960  10.194  0.4403 -0.2312  0.2129
   82SAPS   O32 7647   1.562   5.058  10.130  0.9456 -0.6700 -0.2178
   82SAPS   C32 7648   1.579   4.823  10.186  0.1231 -0.5909 -0.3517
   82SAPS   H2X 7649   1.631   4.796  10.281  1.9482 -0.2823 -1.2291
   82SAPS   H2Y 7650   1.659   4.810  10.110  0.0477 -0.0859 -0.5155
   82SAPS   C23 7651   1.177   5.619  10.351  0.2880  0.5541  0.5357
   82SAPS   H3R 7652   1.281   5.652  10.372 -0.9600  4.8899  1.0068
   82SAPS   H3S 7653   1.122   5.685  10.421  1.5536  2.1371  0.0990
   82SAPS   C24 7654   1.124   5.667  10.212  0.0060 -0.7819  0.2587
   82SAPS   H4R 7655   1.160   5.772  10.202  0.7635 -1.2321 -2.2902
   82SAPS   H4S 7656   1.013   5.665  10.219  0.0463 -2.0724  0.8645
   82SAPS   C25 7657   1.166   5.581  10.101  0.0413  0.2052  0.1306
   82SAPS   H5R 7658   1.244   5.509  10.127 -1.2801 -1.4339 -0.2504
   82SAPS   C26 7659   1.119   5.584   9.974  0.8466 -0.0066  0.1257
   82SAPS   H6R 7660   1.169   5.512   9.908  0.4551 -0.5981  0.4667
   82SAPS   C27 7661   1.006   5.669   9.926 -0.4568  0.4516 -0.6242
   82SAPS   H7R 7662   0.953   5.727  10.005  2.3146  3.2158 -0.5673
   82SAPS   H7S 7663   0.939   5.607   9.864 -1.2480  0.8264 -0.1572
   82SAPS   C28 7664   1.057   5.776   9.831 -0.5627 -0.2550 -0.2653
   82SAPS   H8R 7665   1.109   5.858   9.882  1.3774 -1.1041 -0.7770
   82SAPS   C29 7666   1.051   5.784   9.694  0.7089 -1.3744  0.2825
   82SAPS   H9R 7667   1.089   5.875   9.645 -2.2023 -0.2863 -0.1651
   82SAPS  C210 7668   0.989   5.683   9.597  0.4351 -0.8813  0.0831
   82SAPS  H10R 7669   0.903   5.719   9.536  0.1451  0.0163  1.0025
   82SAPS  H10S 7670   0.937   5.606   9.657 -0.7860  0.9254  1.4504
   82SAPS  C211 7671   1.092   5.608   9.527  0.6086 -0.5820 -0.2836
   82SAPS  H11R 7672   1.162   5.546   9.585  1.5010 -0.5927 -1.3510
   82SAPS  C212 7673   1.115   5.603   9.394  0.5114  0.2785 -0.0750
   82SAPS  H12R 7674   1.201   5.543   9.359  1.0871  0.3218  1.2129
   82SAPS  C213 7675   1.036   5.677   9.287  0.0957  0.1005  0.6515
   82SAPS  H13R 7676   0.927   5.657   9.298  0.5455 -2.8120  0.6912
   82SAPS  H13S 7677   1.044   5.635   9.184 -2.5843  1.1185 -0.0753
   82SAPS  C214 7678   1.070   5.824   9.294 -0.3546  0.8921 -0.5417
   82SAPS  H14R 7679   1.070   5.859   9.399  0.2917 -0.5401 -0.0394
   82SAPS  C215 7680   1.077   5.917   9.202  0.4575  0.8609  0.0385
   82SAPS  H15R 7681   1.107   6.016   9.239 -0.3444  0.9503  0.4678
   82SAPS  C216 7682   1.065   5.891   9.054 -0.0607 -0.1611 -0.6934
   82SAPS  H16R 7683   1.029   5.982   9.001  0.9847  2.1149  2.2272
   82SAPS  H16S 7684   0.990   5.812   9.034  0.4728 -0.8352 -0.0909
   82SAPS  C217 7685   1.192   5.840   8.983 -0.5981 -0.6239  0.3704
   82SAPS  H17R 7686   1.162   5.845   8.876 -0.4765  1.3041  0.3887
   82SAPS  H17S 7687   1.211   5.738   9.021 -1.2892 -1.4650 -1.4066
   82SAPS  C218 7688   1.314   5.927   8.987 -0.4537 -0.2545 -0.8243
   82SAPS  H18R 7689   1.402   5.872   8.948  0.7130  0.6349  0.4633
   82SAPS  H18S 7690   1.347   5.954   9.090 -0.6456 -1.3234 -0.4792
   82SAPS  C219 7691   1.303   6.054   8.892 -0.0299  0.5100 -0.5217
   82SAPS  H19R 7692   1.209   6.109   8.910  0.5161  2.0715 -2.1336
   82SAPS  H19S 7693   1.295   6.014   8.789  2.1138  1.1247 -0.9907
   82SAPS  C220 7694   1.411   6.163   8.915  0.9945 -0.3529 -0.5624
   82SAPS  H20R 7695   1.512   6.130   8.881 -0.2383 -1.9145 -3.0536
   82SAPS  H20S 7696   1.405   6.192   9.022 -1.5562  0.0219 -0.7389
   82SAPS  H20T 7697   1.375   6.257   8.867 -0.0993 -0.9381 -0.9050
   82SAPS   C33 7698   1.473   4.703  10.159  0.1698 -0.6233  0.0957
   82SAPS   H3X 7699   1.397   4.695  10.240  1.2827 -1.9646  1.0658
   82SAPS   H3Y 7700   1.542   4.617  10.173  1.9786  1.0280  2.0562
   82SAPS   C34 7701   1.410   4.704  10.023  0.0477 -0.2275  0.3215
   82SAPS   H4X 7702   1.347   4.795  10.006  1.6114  0.8559  0.0711
   82SAPS   H4Y 7703   1.342   4.618  10.004  1.1531 -0.8213 -1.1776
   82SAPS   C35 7704   1.515   4.679   9.907 -0.5795  0.2599 -0.3581
   82SAPS   H5X 7705   1.586   4.599   9.934 -0.8597  0.5075  1.2036
   82SAPS   H5Y 7706   1.591   4.761   9.908  0.7278 -0.8798  1.6920
   82SAPS   C36 7707   1.452   4.665   9.766 -0.1194 -0.6330  0.2638
   82SAPS   H6X 7708   1.394   4.755   9.735 -0.0916 -0.9719 -0.8476
   82SAPS   H6Y 7709   1.385   4.576   9.759  1.2481 -1.5527 -2.1773
   82SAPS   C37 7710   1.557   4.664   9.656 -0.1695  0.3406 -0.5850
   82SAPS   H7X 7711   1.618   4.571   9.651 -0.4262  0.2515 -3.0056
   82SAPS   H7Y 7712   1.628   4.748   9.674 -0.1624 -0.1271  2.0057
   82SAPS   C38 7713   1.489   4.683   9.524  0.0681 -0.1553  0.3765
   82SAPS   H8X 7714   1.439   4.782   9.533  1.6282  0.6422  0.7438
   82SAPS   H8Y 7715   1.414   4.605   9.502 -1.3263  0.7673  1.6928
   82SAPS   C39 7716   1.591   4.696   9.403 -1.1684  0.3839 -0.2933
   82SAPS   H9X 7717   1.653   4.604   9.393  1.2760  1.9344 -0.0799
   82SAPS   H9Y 7718   1.658   4.781   9.424  0.9190 -0.2742 -3.6076
   82SAPS  C310 7719   1.515   4.719   9.272 -0.4577 -0.2876 -0.0512
   82SAPS  H10X 7720   1.443   4.637   9.251  1.4463 -2.2656  0.8679
   82SAPS  H10Y 7721   1.595   4.711   9.196  2.2906  0.4691  2.5801
   82SAPS  C311 7722   1.449   4.858   9.267  0.6102 -0.3710  0.0798
   82SAPS  H11X 7723   1.518   4.944   9.279 -0.5551  0.4801  1.0173
   82SAPS  H11Y 7724   1.383   4.867   9.356  0.6816 -2.3899  0.3831
   82SAPS  C312 7725   1.365   4.883   9.140  0.1884 -0.5951  0.5722
   82SAPS  H12X 7726   1.299   4.968   9.167  0.5785 -0.0423 -0.1692
   82SAPS  H12Y 7727   1.296   4.798   9.120  0.2539 -0.1004 -2.0818
   82SAPS  C313 7728   1.452   4.908   9.008  0.8297 -0.1060 -0.5771
   82SAPS  H13X 7729   1.532   4.830   9.006  0.7970 -0.1322 -0.9357
   82SAPS  H13Y 7730   1.514   5.000   9.006 -0.4073  0.7541 -0.2314
   82SAPS  C314 7731   1.368   4.902   8.887 -0.5405 -0.1529  0.3678
   82SAPS  H14X 7732   1.388   4.990   8.822 -0.1471 -1.7805 -1.8208
   82SAPS  H14Y 7733   1.261   4.913   8.915 -0.9523 -0.1237 -1.1462
   82SAPS  C315 7734   1.371   4.775   8.799 -0.6969 -0.1225  0.4066
   82SAPS  H15X 7735   1.326   4.691   8.855 -0.8697  0.1308  0.6483
   82SAPS  H15Y 7736   1.475   4.748   8.768 -0.7438 -0.7565  0.7912
   82SAPS  C316 7737   1.283   4.799   8.680  0.1354 -0.0781  0.1039
   82SAPS  H16X 7738   1.310   4.890   8.623  0.8370  0.2312  0.9207
   82SAPS  H16Y 7739   1.176   4.811   8.710  0.2191 -1.1496  0.8919
   82SAPS  C317 7740   1.273   4.678   8.586 -0.1048  0.5114  0.2430
   82SAPS  H17X 7741   1.263   4.586   8.648 -0.3938  1.9039  2.3430
   82SAPS  H17Y 7742   1.366   4.676   8.525 -0.9202  0.4432 -1.0348
   82SAPS  C318 7743   1.159   4.676   8.482 -0.1564 -0.3995 -0.5838
   82SAPS  H18X 7744   1.166   4.591   8.411  0.5933 -0.0695 -0.9121
   82SAPS  H18Y 7745   1.154   4.764   8.414 -1.7017 -1.1253 -1.4486
   82SAPS  H18Z 7746   1.061   4.670   8.533  0.0322  0.5779 -0.0780
   83SAPS     N 7747   2.441   0.236  11.098 -0.1951 -0.0164 -1.1726
   83SAPS   HN1 7748   2.521   0.201  11.042  1.9874 -0.9870  2.2701
   83SAPS   HN2 7749   2.349   0.219  11.052 -0.6081  0.7055 -0.6412
   83SAPS   HN3 7750   2.451   0.338  11.112  0.7091 -0.3239  0.7469
   83SAPS   C12 7751   2.438   0.165  11.229 -0.2311  0.3413  0.0300
   83SAPS  H12A 7752   2.534   0.188  11.272 -0.8062 -0.1179  1.6338
   83SAPS   C13 7753   2.339   0.211  11.337 -1.0100  0.4875 -0.1621
   83SAPS  O13A 7754   2.294   0.326  11.341  0.4364 -0.3706  0.2188
   83SAPS  O13B 7755   2.334   0.130  11.437  0.1246 -0.4578 -0.1888
   83SAPS   C11 7756   2.413   0.014  11.196 -0.0074  0.1525 -0.7748
   83SAPS  H11A 7757   2.305   0.010  11.168 -0.2445  1.2719 -0.0742
   83SAPS  H11B 7758   2.429  -0.050  11.285 -1.5753  0.0922 -0.5053
   83SAPS     P 7759   2.593  -0.143  11.075 -0.1237  0.1012 -0.0200
   83SAPS   O13 7760   2.701  -0.108  10.981  0.4290  0.5231 -0.2834
   83SAPS   O14 7761   2.627  -0.178  11.212 -0.1825 -0.3021 -0.6827
   83SAPS   O12 7762   2.496  -0.024  11.090 -0.5542 -0.0735  0.0576
   83SAPS   O11 7763   2.502  -0.252  11.017  0.5502 -0.2482 -0.0116
   83SAPS    C1 7764   2.425  -0.214  10.900  0.0316  0.3284 -0.3559
   83SAPS    HA 7765   2.335  -0.150  10.915 -0.3522 -0.0807 -0.8796
   83SAPS    HB 7766   2.486  -0.159  10.825  1.3893  1.1014  1.2506
   83SAPS    C2 7767   2.388  -0.347  10.834  0.7811 -0.8997 -0.2902
   83SAPS    HS 7768   2.390  -0.426  10.912  0.4767 -0.3278  0.3106
   83SAPS   O21 7769   2.476  -0.373  10.729 -0.2892  0.2196  0.6241
   83SAPS   C21 7770   2.470  -0.499  10.682 -0.0523 -0.7729  1.2978
   83SAPS   O22 7771   2.405  -0.591  10.729 -0.3309 -0.1718 -0.3658
   83SAPS   C22 7772   2.551  -0.505  10.553 -0.0369 -0.0275  0.2372
   83SAPS   H2R 7773   2.501  -0.559  10.470  0.0555 -0.4184  0.4367
   83SAPS   H2S 7774   2.576  -0.404  10.514  0.6725 -0.0311  0.6685
   83SAPS    C3 7775   2.238  -0.351  10.796 -0.5431 -0.6667 -0.1957
   83SAPS    HX 7776   2.193  -0.318  10.892  0.4881 -0.9246  0.3847
   83SAPS    HY 7777   2.215  -0.457  10.771  0.4924 -0.9154 -0.1143
   83SAPS   O31 7778   2.207  -0.245  10.706  0.2960 -0.4807  0.4864
   83SAPS   C31 7779   2.184  -0.293  10.580 -0.1690 -0.0068 -0.5641
   83SAPS   O32 7780   2.179  -0.407  10.549  0.7599  0.1874 -0.1088
   83SAPS   C32 7781   2.193  -0.174  10.488 -0.1992 -0.2300 -0.5178
   83SAPS   H2X 7782   2.292  -0.126  10.501 -0.6060  0.5198 -0.0961
   83SAPS   H2Y 7783   2.100  -0.115  10.504  0.8698  1.2901  0.4507
   83SAPS   C23 7784   2.686  -0.571  10.568 -0.8540 -0.6669  0.2625
   83SAPS   H3R 7785   2.669  -0.680  10.581 -2.7521 -0.2139  2.0024
   83SAPS   H3S 7786   2.750  -0.529  10.648  0.9106 -1.7197 -0.5362
   83SAPS   C24 7787   2.770  -0.568  10.434  0.3398  0.0168 -0.5178
   83SAPS   H4R 7788   2.705  -0.592  10.347 -1.2673 -0.5171  0.7951
   83SAPS   H4S 7789   2.848  -0.646  10.447  1.6989  1.8027  3.5454
   83SAPS   C25 7790   2.837  -0.440  10.410 -0.2122  0.1599 -0.7935
   83SAPS   H5R 7791   2.871  -0.408  10.509  0.1035 -2.4020 -0.0039
   83SAPS   C26 7792   2.859  -0.358  10.305 -0.6207  0.6726 -0.3896
   83SAPS   H6R 7793   2.902  -0.262  10.339 -2.3543  1.0885  0.7774
   83SAPS   C27 7794   2.816  -0.387  10.168 -0.5357  0.4892  0.0196
   83SAPS   H7R 7795   2.804  -0.496  10.149 -0.4866  0.5562 -0.4014
   83SAPS   H7S 7796   2.884  -0.349  10.089 -2.1632  1.0851 -1.1316
   83SAPS   C28 7797   2.681  -0.331  10.138  0.1349 -0.7796  0.2555
   83SAPS   H8R 7798   2.617  -0.316  10.225  0.4048  5.2556 -0.1787
   83SAPS   C29 7799   2.643  -0.305  10.016 -0.1445  0.3842  0.1568
   83SAPS   H9R 7800   2.541  -0.266  10.004 -0.6394 -1.1095 -0.8826
   83SAPS  C210 7801   2.718  -0.324   9.882  0.2985  0.1673 -0.1495
   83SAPS  H10R 7802   2.645  -0.374   9.814  1.9998 -1.1195 -1.0976
   83SAPS  H10S 7803   2.806  -0.391   9.886  1.5322  1.7806  0.9738
   83SAPS  C211 7804   2.747  -0.196   9.804  0.2233  0.2154 -0.2823
   83SAPS  H11R 7805   2.786  -0.119   9.873  0.1224 -0.3127  0.3817
   83SAPS  C212 7806   2.723  -0.162   9.679  0.2511 -0.5330 -0.5465
   83SAPS  H12R 7807   2.752  -0.059   9.656  1.6347 -0.6319  0.6306
   83SAPS  C213 7808   2.656  -0.245   9.570  0.7464  0.7875  0.4655
   83SAPS  H13R 7809   2.580  -0.182   9.519  2.6239  0.5820 -2.8683
   83SAPS  H13S 7810   2.601  -0.328   9.620  2.4649  0.4172  1.8559
   83SAPS  C214 7811   2.759  -0.315   9.480  0.3046 -0.0909  0.7104
   83SAPS  H14R 7812   2.855  -0.344   9.525 -1.1120 -4.1640  1.4931
   83SAPS  C215 7813   2.746  -0.328   9.345  0.5899 -0.0732  0.1674
   83SAPS  H15R 7814   2.826  -0.384   9.295 -0.2733 -0.1858 -1.1356
   83SAPS  C216 7815   2.636  -0.282   9.257  0.3495 -1.0003  0.1950
   83SAPS  H16R 7816   2.553  -0.236   9.315  0.1982 -0.2186 -0.6091
   83SAPS  H16S 7817   2.601  -0.370   9.199 -2.1011 -0.0404  0.0678
   83SAPS  C217 7818   2.703  -0.172   9.164 -0.2396 -0.7474 -0.3575
   83SAPS  H17R 7819   2.773  -0.228   9.098  0.5219 -0.4469  0.1823
   83SAPS  H17S 7820   2.765  -0.100   9.221 -0.7371 -1.7695  1.5850
   83SAPS  C218 7821   2.591  -0.096   9.086 -0.8379  0.5238 -0.2289
   83SAPS  H18R 7822   2.528  -0.049   9.165  1.1026  1.6123  0.7694
   83SAPS  H18S 7823   2.540  -0.172   9.023  1.4739  0.1728 -1.7781
   83SAPS  C219 7824   2.650   0.017   8.993 -0.0115 -0.8152 -0.8488
   83SAPS  H19R 7825   2.741   0.058   9.042 -0.0822 -2.5840  0.8982
   83SAPS  H19S 7826   2.582   0.105   8.990 -0.2180 -0.9434 -0.1240
   83SAPS  C220 7827   2.669  -0.024   8.856 -0.6326 -0.1889  0.6773
   83SAPS  H20R 7828   2.574  -0.029   8.799 -0.0410 -0.8107 -0.2909
   83SAPS  H20S 7829   2.719  -0.123   8.850  0.3091  0.3333 -0.7984
   83SAPS  H20T 7830   2.749   0.037   8.809  0.9370 -2.5334  0.1391
   83SAPS   C33 7831   2.183  -0.213  10.344  0.6337 -0.0990  0.0751
   83SAPS   H3X 7832   2.147  -0.127  10.284 -1.0270  0.0419  1.2137
   83SAPS   H3Y 7833   2.115  -0.300  10.335 -0.5214  1.0001 -3.0331
   83SAPS   C34 7834   2.318  -0.265  10.284  0.5537  0.4746  0.2898
   83SAPS   H4X 7835   2.354  -0.346  10.351  0.2387  0.1556  0.0786
   83SAPS   H4Y 7836   2.404  -0.194  10.291  1.7557 -0.5925 -2.1598
   83SAPS   C35 7837   2.290  -0.320  10.151  0.2077  0.3156  0.2114
   83SAPS   H5X 7838   2.210  -0.396  10.142  0.2502  0.4231 -1.3359
   83SAPS   H5Y 7839   2.378  -0.375  10.110 -1.4193 -2.6387  0.4293
   83SAPS   C36 7840   2.273  -0.217  10.045 -0.0257  0.0927  0.0795
   83SAPS   H6X 7841   2.365  -0.155  10.038  0.6386 -0.9607 -0.8081
   83SAPS   H6Y 7842   2.185  -0.152  10.066 -1.4203 -1.4311 -0.8366
   83SAPS   C37 7843   2.251  -0.269   9.903  0.7256  0.4202  0.4693
   83SAPS   H7X 7844   2.164  -0.338   9.901  1.3519 -0.3778 -1.3213
   83SAPS   H7Y 7845   2.330  -0.344   9.881  1.1329  0.7834  0.7075
   83SAPS   C38 7846   2.243  -0.162   9.799 -0.6675  0.4878 -0.4684
   83SAPS   H8X 7847   2.319  -0.085   9.822 -1.8174  0.3790  5.0681
   83SAPS   H8Y 7848   2.147  -0.107   9.810  0.2385  1.8901  0.9892
   83SAPS   C39 7849   2.244  -0.233   9.662  0.0310 -0.3316 -0.3074
   83SAPS   H9X 7850   2.142  -0.276   9.649 -1.4491  2.5392  0.9995
   83SAPS   H9Y 7851   2.308  -0.324   9.667  0.2904 -0.3641 -2.6637
   83SAPS  C310 7852   2.267  -0.141   9.536 -0.0941  0.1850  0.3970
   83SAPS  H10X 7853   2.369  -0.100   9.552 -1.2189  2.8883  1.2286
   83SAPS  H10Y 7854   2.184  -0.067   9.538 -1.3632 -1.1833  1.0200
   83SAPS  C311 7855   2.258  -0.229   9.401 -0.1083 -0.4382  0.6248
   83SAPS  H11X 7856   2.161  -0.272   9.431 -0.9913  1.6059  0.8840
   83SAPS  H11Y 7857   2.327  -0.315   9.388 -1.0090 -1.1244  0.3538
   83SAPS  C312 7858   2.245  -0.150   9.272  0.3271 -0.2029 -0.3814
   83SAPS  H12X 7859   2.340  -0.094   9.259 -0.5623  1.4495 -0.0323
   83SAPS  H12Y 7860   2.166  -0.075   9.294  0.3970 -1.0510  3.3361
   83SAPS  C313 7861   2.210  -0.234   9.157  0.7510 -0.1519  0.2842
   83SAPS  H13X 7862   2.112  -0.282   9.177  1.4739 -1.6182  0.4064
   83SAPS  H13Y 7863   2.287  -0.314   9.149 -0.2161 -1.1152  0.4189
   83SAPS  C314 7864   2.198  -0.147   9.027 -0.6065  0.6529 -0.0077
   83SAPS  H14X 7865   2.279  -0.073   9.011  1.0117 -0.5947  1.8278
   83SAPS  H14Y 7866   2.105  -0.088   9.036  0.1812  1.7480  1.2099
   83SAPS  C315 7867   2.198  -0.233   8.896  0.0360  0.4544 -0.1952
   83SAPS  H15X 7868   2.108  -0.299   8.899  0.9777 -0.8907 -0.5637
   83SAPS  H15Y 7869   2.282  -0.305   8.910 -0.8152 -0.2110  1.9411
   83SAPS  C316 7870   2.193  -0.148   8.768  0.2023 -0.7414  0.0843
   83SAPS  H16X 7871   2.286  -0.089   8.756 -0.0625 -0.5154 -0.9716
   83SAPS  H16Y 7872   2.105  -0.080   8.764 -1.2565 -2.4585  1.2595
   83SAPS  C317 7873   2.165  -0.234   8.644  0.1852 -0.7439  0.5277
   83SAPS  H17X 7874   2.095  -0.312   8.680  0.9628 -0.3452  3.0596
   83SAPS  H17Y 7875   2.264  -0.282   8.625  0.5005  0.6231 -1.6854
   83SAPS  C318 7876   2.107  -0.158   8.525  0.2460  0.2767  0.0636
   83SAPS  H18X 7877   2.115  -0.220   8.433 -0.1330  0.3122  0.0053
   83SAPS  H18Y 7878   2.163  -0.066   8.498  1.4489 -0.5991 -0.5173
   83SAPS  H18Z 7879   2.001  -0.134   8.546 -1.0288 -3.0712 -1.7984
   84SAPS     N 7880   3.402   6.506  11.073  0.0200 -0.3751 -0.1837
   84SAPS   HN1 7881   3.358   6.412  11.063  1.1338 -1.1309  1.5953
   84SAPS   HN2 7882   3.325   6.566  11.109 -1.2850 -0.8766 -1.9704
   84SAPS   HN3 7883   3.421   6.548  10.980 -0.3195 -2.2102 -1.1341
   84SAPS   C12 7884   3.518   6.498  11.172 -0.2560  0.1333 -0.4079
   84SAPS  H12A 7885   3.570   6.590  11.196  2.2475 -1.8462  2.3875
   84SAPS   C13 7886   3.482   6.447  11.316 -0.8538 -1.1288  0.5543
   84SAPS  O13A 7887   3.361   6.418  11.332  0.4666 -0.3524  0.5332
   84SAPS  O13B 7888   3.560   6.451  11.411  0.1796 -0.3805 -0.3222
   84SAPS   C11 7889   3.635   6.411  11.117  0.4366  0.4938  0.1367
   84SAPS  H11A 7890   3.599   6.307  11.104  1.5264  0.1729 -0.4387
   84SAPS  H11B 7891   3.710   6.417  11.199 -0.1092 -0.0192  0.6834
   84SAPS     P 7892   3.828   6.543  10.984  0.4627 -0.0179 -0.1385
   84SAPS   O13 7893   3.813   6.667  11.066  0.0903  0.0011  0.7039
   84SAPS   O14 7894   3.941   6.456  11.013 -0.1983 -0.4453  0.2345
   84SAPS   O12 7895   3.693   6.455  10.994 -0.2623 -0.4047 -0.1183
   84SAPS   O11 7896   3.827   6.587  10.834  0.4266 -0.4926  0.0134
   84SAPS    C1 7897   3.808   6.485  10.736  0.4093 -0.3947  0.0083
   84SAPS    HA 7898   3.774   6.390  10.782 -2.6271  0.6260  0.1147
   84SAPS    HB 7899   3.731   6.506  10.658 -0.5952 -1.3440  0.7183
   84SAPS    C2 7900   3.933   6.474  10.639  0.0365 -0.2149  0.0122
   84SAPS    HS 7901   4.023   6.460  10.703 -0.1679 -0.7609  0.1878
   84SAPS   O21 7902   3.930   6.589  10.557 -0.1022  0.7492 -0.2052
   84SAPS   C21 7903   4.050   6.660  10.550 -0.0585  0.0754  0.5575
   84SAPS   O22 7904   4.150   6.627  10.605  0.1068 -0.0498 -0.8136
   84SAPS   C22 7905   4.028   6.784  10.473  0.0672  0.2183 -0.9627
   84SAPS   H2R 7906   3.936   6.830  10.517  0.5186 -0.2615  0.5347
   84SAPS   H2S 7907   4.114   6.844  10.508 -2.7801  2.8313  2.3671
   84SAPS    C3 7908   3.927   6.344  10.550  0.0717  0.4046 -0.0140
   84SAPS    HX 7909   3.825   6.332  10.507  0.7179 -2.0702 -1.0405
   84SAPS    HY 7910   3.935   6.254  10.615 -1.5959 -0.0176 -0.3418
   84SAPS   O31 7911   4.020   6.340  10.444 -1.2722 -0.2953  0.3244
   84SAPS   C31 7912   4.129   6.262  10.458 -0.0131  0.2292 -0.2708
   84SAPS   O32 7913   4.153   6.206  10.563  0.2361 -0.1368 -0.3504
   84SAPS   C32 7914   4.214   6.261  10.331 -0.0750 -0.0466 -0.7674
   84SAPS   H2X 7915   4.199   6.357  10.278  0.2286  1.3940  1.6332
   84SAPS   H2Y 7916   4.174   6.180  10.267  1.1154 -2.9882  1.9009
   84SAPS   C23 7917   4.009   6.773  10.323 -0.7709  0.4800  0.0513
   84SAPS   H3R 7918   3.964   6.868  10.288 -0.9611  0.2622 -0.3078
   84SAPS   H3S 7919   3.928   6.698  10.307 -0.9190  0.5303  0.5499
   84SAPS   C24 7920   4.146   6.733  10.257  0.0484  0.0535 -0.0540
   84SAPS   H4R 7921   4.128   6.714  10.149 -0.3373  2.9118 -0.5711
   84SAPS   H4S 7922   4.160   6.626  10.284  0.8177  0.7762  2.7271
   84SAPS   C25 7923   4.270   6.817  10.272  0.3555 -0.0160  0.1188
   84SAPS   H5R 7924   4.329   6.807  10.364  0.0779 -0.1438  0.2820
   84SAPS   C26 7925   4.316   6.906  10.178  0.7723  0.2003 -0.0060
   84SAPS   H6R 7926   4.406   6.968  10.195  1.6143 -0.5891 -1.3872
   84SAPS   C27 7927   4.255   6.935  10.041 -0.9159 -0.3983  0.2202
   84SAPS   H7R 7928   4.148   6.957  10.056 -0.2786  1.8162  2.1315
   84SAPS   H7S 7929   4.261   6.849   9.972 -0.3576  0.2582 -0.5631
   84SAPS   C28 7930   4.300   7.057   9.964  0.6990  0.3396 -0.4905
   84SAPS   H8R 7931   4.342   7.133  10.031  1.4154 -0.4996  0.0417
   84SAPS   C29 7932   4.286   7.093   9.837 -0.4496 -0.0618 -0.3166
   84SAPS   H9R 7933   4.337   7.186   9.807  0.7046  0.2073  2.1923
   84SAPS  C210 7934   4.238   7.003   9.727 -0.1054  0.0673  0.3222
   84SAPS  H10R 7935   4.181   7.075   9.664 -0.1004 -0.2736 -0.0761
   84SAPS  H10S 7936   4.179   6.917   9.766  2.5499 -2.2241 -0.3704
   84SAPS  C211 7937   4.346   6.933   9.649  0.2423 -0.1600 -1.0061
   84SAPS  H11R 7938   4.433   6.907   9.710 -0.3416  1.4105  0.5931
   84SAPS  C212 7939   4.344   6.881   9.529 -0.3563  0.5502 -0.5414
   84SAPS  H12R 7940   4.433   6.826   9.494 -0.3211 -0.2001  0.6552
   84SAPS  C213 7941   4.225   6.891   9.446  0.4411 -0.2990  0.6341
   84SAPS  H13R 7942   4.140   6.934   9.503 -0.6999 -0.3440 -0.9451
   84SAPS  H13S 7943   4.201   6.787   9.416 -1.1488  0.3496 -0.5209
   84SAPS  C214 7944   4.254   6.966   9.316  0.0633  0.6425  0.0847
   84SAPS  H14R 7945   4.319   7.053   9.328  1.2234 -0.1202 -0.4976
   84SAPS  C215 7946   4.223   6.925   9.190 -0.2682 -0.1006  0.3436
   84SAPS  H15R 7947   4.244   6.997   9.109  0.7162 -2.1493 -1.3219
   84SAPS  C216 7948   4.152   6.797   9.156  0.5372 -0.1962  0.4420
   84SAPS  H16R 7949   4.107   6.791   9.055  0.5056 -1.6704  0.5269
   84SAPS  H16S 7950   4.069   6.779   9.227  1.1001  0.2520  1.2357
   84SAPS  C217 7951   4.244   6.677   9.160 -0.3200  0.5495 -0.2052
   84SAPS  H17R 7952   4.296   6.671   9.258 -2.4761  0.0988  0.9713
   84SAPS  H17S 7953   4.317   6.691   9.078  0.0622 -0.4699 -0.0642
   84SAPS  C218 7954   4.176   6.541   9.145 -0.5892  0.0603  0.1436
   84SAPS  H18R 7955   4.255   6.478   9.100  0.7975  1.7982  0.0328
   84SAPS  H18S 7956   4.090   6.549   9.074 -1.7626 -1.2828  1.3669
   84SAPS  C219 7957   4.109   6.501   9.278  0.2872  0.0117  0.6878
   84SAPS  H19R 7958   4.032   6.575   9.311 -0.3809 -0.7332  0.8319
   84SAPS  H19S 7959   4.196   6.509   9.346  2.1745  1.8103 -1.7806
   84SAPS  C220 7960   4.054   6.360   9.282 -0.0865  0.7014 -0.0080
   84SAPS  H20R 7961   4.137   6.286   9.283 -0.5067  0.1001 -2.4050
   84SAPS  H20S 7962   4.005   6.332   9.186  0.8277 -1.5985  0.1347
   84SAPS  H20T 7963   3.981   6.347   9.364 -0.4257  0.7162 -0.3026
   84SAPS   C33 7964   4.364   6.255  10.367  0.3354  0.1187 -0.2770
   84SAPS   H3X 7965   4.407   6.168  10.422  0.1758  0.8287  1.0268
   84SAPS   H3Y 7966   4.375   6.336  10.442 -0.5222  0.3612 -0.4090
   84SAPS   C34 7967   4.452   6.279  10.248 -0.1257 -0.1878 -0.7573
   84SAPS   H4X 7968   4.555   6.285  10.290 -1.2738  0.0206  2.2408
   84SAPS   H4Y 7969   4.437   6.383  10.212  3.5021  0.4979 -0.6876
   84SAPS   C35 7970   4.473   6.166  10.152  0.1741  0.4622 -0.4983
   84SAPS   H5X 7971   4.372   6.134  10.118  0.0179  1.3718 -0.9292
   84SAPS   H5Y 7972   4.514   6.082  10.212  0.4290  0.9300 -0.0130
   84SAPS   C36 7973   4.571   6.184  10.043  0.5899  0.0171 -0.6452
   84SAPS   H6X 7974   4.674   6.152  10.069 -0.2841 -2.1349  0.3701
   84SAPS   H6Y 7975   4.582   6.293  10.020  0.2843 -0.0884 -1.3256
   84SAPS   C37 7976   4.529   6.111   9.918 -0.2953 -0.4145  0.9010
   84SAPS   H7X 7977   4.430   6.143   9.880 -0.0282 -0.0955  0.4743
   84SAPS   H7Y 7978   4.525   6.002   9.940  1.3121 -0.6684  0.0956
   84SAPS   C38 7979   4.629   6.128   9.807  0.2090  0.1376 -0.7762
   84SAPS   H8X 7980   4.730   6.104   9.848 -0.2793  1.1398  1.1267
   84SAPS   H8Y 7981   4.633   6.235   9.777 -2.3258 -0.0100 -1.8889
   84SAPS   C39 7982   4.599   6.046   9.680  0.0419 -0.3814 -0.1754
   84SAPS   H9X 7983   4.498   6.077   9.646  0.1793  1.1068  0.7026
   84SAPS   H9Y 7984   4.599   5.936   9.695 -0.5753 -0.3512  0.1062
   84SAPS  C310 7985   4.694   6.096   9.563  0.5907 -0.9778  0.2485
   84SAPS  H10X 7986   4.739   6.191   9.598 -0.8160 -0.5730  1.0414
   84SAPS  H10Y 7987   4.624   6.100   9.477  0.9704 -0.3412 -0.0388
   84SAPS  C311 7988   4.788   5.978   9.538  0.1814  0.3556 -0.3110
   84SAPS  H11X 7989   4.734   5.900   9.480  2.2382 -2.4848  1.3312
   84SAPS  H11Y 7990   4.821   5.944   9.638  1.0611 -2.0486 -1.3294
   84SAPS  C312 7991   4.917   6.010   9.466  0.3734  0.5519 -0.1808
   84SAPS  H12X 7992   4.953   5.916   9.418 -1.6744 -0.5050  0.2542
   84SAPS  H12Y 7993   5.001   6.049   9.528  0.7489 -1.4496  0.6648
   84SAPS  C313 7994   4.902   6.106   9.348 -0.5597  0.1907  0.0979
   84SAPS  H13X 7995   4.889   6.209   9.387 -0.3364 -0.2776  1.4833
   84SAPS  H13Y 7996   4.814   6.076   9.289 -1.6199 -0.2180  1.8210
   84SAPS  C314 7997   5.035   6.098   9.261 -0.2872 -0.5939  0.7110
   84SAPS  H14X 7998   5.003   6.161   9.175  0.1819 -0.7404  0.4217
   84SAPS  H14Y 7999   5.050   5.994   9.224 -1.3369 -0.6532  0.4264
   84SAPS  C315 8000   5.157   6.158   9.340 -0.5405  0.4135 -0.2890
   84SAPS  H15X 8001   5.197   6.075   9.402  2.0017  0.1090 -2.1803
   84SAPS  H15Y 8002   5.127   6.234   9.415  1.9310  1.9902 -0.7512
   84SAPS  C316 8003   5.270   6.221   9.258 -0.6362 -0.2626 -0.1355
   84SAPS  H16X 8004   5.346   6.252   9.333  0.2403  2.3074 -1.9429
   84SAPS  H16Y 8005   5.231   6.307   9.200 -0.5241 -0.3464 -0.3364
   84SAPS  C317 8006   5.335   6.130   9.145 -0.4348  0.3835 -0.3791
   84SAPS  H17X 8007   5.398   6.189   9.075 -0.8413  0.7444 -0.4454
   84SAPS  H17Y 8008   5.251   6.096   9.081  0.8695  0.2753 -2.1150
   84SAPS  C318 8009   5.415   6.009   9.199 -0.0869 -0.2082 -0.1350
   84SAPS  H18X 8010   5.492   5.974   9.127  2.4797  0.7883  1.9510
   84SAPS  H18Y 8011   5.336   5.938   9.229 -1.4651  1.5294  0.5044
   84SAPS  H18Z 8012   5.470   6.046   9.289 -3.4211 -0.4558  2.1886
   85SAPS     N 8013   2.105   2.179  11.329 -0.1299  0.3709 -0.3514
   85SAPS   HN1 8014   2.036   2.241  11.281  0.6999  1.1314 -0.5895
   85SAPS   HN2 8015   2.157   2.209  11.414  3.0517 -1.8175 -1.3705
   85SAPS   HN3 8016   2.180   2.171  11.258 -1.5197  0.4492 -1.8816
   85SAPS   C12 8017   2.037   2.053  11.351  0.4552  0.3598  0.3386
   85SAPS  H12A 8018   2.085   1.966  11.309 -2.6266 -1.8904  1.0651
   85SAPS   C13 8019   2.003   2.019  11.497 -0.2786 -0.8074  0.1639
   85SAPS  O13A 8020   2.019   2.110  11.583  0.0641 -0.3750 -0.0329
   85SAPS  O13B 8021   1.973   1.903  11.528 -0.2193  0.0762  0.8733
   85SAPS   C11 8022   1.900   2.054  11.279  0.3988  0.3709  0.0712
   85SAPS  H11A 8023   1.830   2.123  11.332  1.2888  0.4800  1.1573
   85SAPS  H11B 8024   1.859   1.951  11.278 -1.6702  0.8746  4.7740
   85SAPS     P 8025   1.793   2.092  11.047  0.2386 -0.0449 -0.3339
   85SAPS   O13 8026   1.681   2.017  11.095 -0.0654  0.4243 -0.0355
   85SAPS   O14 8027   1.774   2.232  11.007  0.3547 -0.2435 -0.0176
   85SAPS   O12 8028   1.911   2.103  11.150 -0.3461  0.3860  0.0728
   85SAPS   O11 8029   1.866   2.018  10.924  0.3106 -0.0698 -0.0096
   85SAPS    C1 8030   2.005   2.028  10.911 -0.1569 -0.7531 -0.5828
   85SAPS    HA 8031   2.051   2.130  10.909 -0.3761 -0.6436 -0.0694
   85SAPS    HB 8032   2.057   1.977  10.995 -1.3194  0.8314  1.1748
   85SAPS    C2 8033   2.053   1.958  10.785 -0.1508  0.2066  0.7604
   85SAPS    HS 8034   2.163   1.946  10.794 -0.2612 -0.5442  1.1493
   85SAPS   O21 8035   2.005   2.034  10.668 -0.3304  0.5443  0.2926
   85SAPS   C21 8036   2.088   2.115  10.614  0.3957  0.6739  0.2872
   85SAPS   O22 8037   2.197   2.144  10.659 -0.2166  0.1098 -0.1581
   85SAPS   C22 8038   2.032   2.170  10.485 -0.1133 -0.6989  0.3275
   85SAPS   H2R 8039   1.974   2.095  10.428  0.8758 -1.3830  0.1831
   85SAPS   H2S 8040   1.958   2.248  10.514 -0.0918 -0.4106 -0.3756
   85SAPS    C3 8041   1.996   1.817  10.761 -0.2683  0.4820  0.3250
   85SAPS    HX 8042   1.890   1.806  10.728  0.6283 -1.1249 -2.2872
   85SAPS    HY 8043   2.002   1.758  10.855 -0.7011 -1.3187 -0.7363
   85SAPS   O31 8044   2.083   1.740  10.676 -0.1331  0.6093 -0.3522
   85SAPS   C31 8045   2.063   1.733  10.541 -0.1722  0.6303 -0.4959
   85SAPS   O32 8046   1.984   1.805  10.483  0.4044 -0.0869 -1.0599
   85SAPS   C32 8047   2.150   1.626  10.480  0.0492  0.0854 -0.3366
   85SAPS   H2X 8048   2.100   1.533  10.514  0.4032  0.4789  1.3417
   85SAPS   H2Y 8049   2.251   1.623  10.526  0.9139 -1.3592 -2.1588
   85SAPS   C23 8050   2.138   2.228  10.388  0.5188  0.3119 -0.8184
   85SAPS   H3R 8051   2.206   2.287  10.454  0.5475 -3.3926  2.9060
   85SAPS   H3S 8052   2.089   2.290  10.311 -1.8369  0.6908  0.8699
   85SAPS   C24 8053   2.226   2.121  10.318  0.5925 -0.7421  0.4434
   85SAPS   H4R 8054   2.269   2.070  10.407 -0.9558 -2.1967  0.4207
   85SAPS   H4S 8055   2.311   2.169  10.267 -0.8570  0.4929 -0.9128
   85SAPS   C25 8056   2.150   2.029  10.221 -0.4392 -0.1649 -0.4363
   85SAPS   H5R 8057   2.097   1.952  10.278 -0.8610  0.9237  0.6877
   85SAPS   C26 8058   2.163   2.024  10.092 -0.7115 -0.4217 -0.1335
   85SAPS   H6R 8059   2.095   1.964  10.030 -3.8543  1.7138  1.0319
   85SAPS   C27 8060   2.243   2.121  10.003  0.3041  0.9472 -0.0599
   85SAPS   H7R 8061   2.295   2.195  10.067  3.4391  0.7108 -2.1585
   85SAPS   H7S 8062   2.174   2.185   9.943 -2.7487 -2.6942 -0.8469
   85SAPS   C28 8063   2.370   2.075   9.932  0.0167  0.5527  0.4679
   85SAPS   H8R 8064   2.460   2.061   9.995  0.7145 -0.1351 -0.6461
   85SAPS   C29 8065   2.387   2.063   9.794  0.5800  0.2241  0.1294
   85SAPS   H9R 8066   2.487   2.040   9.753 -0.3347 -1.3272 -1.3855
   85SAPS  C210 8067   2.283   2.084   9.685  0.0223  0.5203 -0.7376
   85SAPS  H10R 8068   2.191   2.133   9.725  0.0024  0.5584 -0.8298
   85SAPS  H10S 8069   2.253   1.984   9.647  0.3436  0.6672 -1.3806
   85SAPS  C211 8070   2.319   2.179   9.568  0.4122  0.4121 -0.3712
   85SAPS  H11R 8071   2.295   2.285   9.589  0.7287  0.2599  0.8579
   85SAPS  C212 8072   2.382   2.150   9.453  0.2848  0.2061  0.0758
   85SAPS  H12R 8073   2.406   2.219   9.371  0.8009  0.4692  0.4424
   85SAPS  C213 8074   2.425   2.003   9.430 -0.1421 -1.1814  0.1586
   85SAPS  H13R 8075   2.418   1.952   9.528 -1.2591 -1.2203  0.0672
   85SAPS  H13S 8076   2.536   2.003   9.417  0.2522  1.3881  2.5929
   85SAPS  C214 8077   2.334   1.935   9.330  0.0720  0.8226 -0.1674
   85SAPS  H14R 8078   2.229   1.935   9.363  0.1939  0.6609  0.2405
   85SAPS  C215 8079   2.360   1.882   9.213  0.3147  0.3820  0.0040
   85SAPS  H15R 8080   2.278   1.866   9.142 -0.8916  1.4773  1.0927
   85SAPS  C216 8081   2.497   1.874   9.149  0.1459  0.3599  0.2384
   85SAPS  H16R 8082   2.547   1.779   9.178 -1.7474 -1.3586 -1.7320
   85SAPS  H16S 8083   2.562   1.957   9.185  1.5442  1.0842 -3.4438
   85SAPS  C217 8084   2.489   1.883   8.996  0.8643  0.4527 -0.0768
   85SAPS  H17R 8085   2.462   1.990   8.985  0.1334  0.4352  1.3107
   85SAPS  H17S 8086   2.416   1.817   8.945  0.8007 -0.4453  1.1370
   85SAPS  C218 8087   2.619   1.853   8.917  0.7083  0.5810  0.3347
   85SAPS  H18R 8088   2.650   1.747   8.924  1.1602  0.8095  2.1166
   85SAPS  H18S 8089   2.701   1.909   8.966  1.6104  0.7152 -1.2364
   85SAPS  C219 8090   2.617   1.896   8.768 -0.0451  0.4209 -0.7353
   85SAPS  H19R 8091   2.577   1.999   8.780  3.5825  1.7608  1.6829
   85SAPS  H19S 8092   2.544   1.835   8.710 -2.2104  1.2426  0.9889
   85SAPS  C220 8093   2.754   1.903   8.702 -0.1140 -0.1512  0.5621
   85SAPS  H20R 8094   2.798   1.803   8.684  0.8202  0.3945 -0.3143
   85SAPS  H20S 8095   2.828   1.968   8.754  0.7871 -0.1170 -0.7126
   85SAPS  H20T 8096   2.740   1.958   8.607 -2.0906 -0.1936  0.7897
   85SAPS   C33 8097   2.139   1.639  10.330  0.2783  0.1629  0.2895
   85SAPS   H3X 8098   2.169   1.742  10.303 -0.6917  1.4486  3.6160
   85SAPS   H3Y 8099   2.037   1.629  10.288 -0.1065 -0.1112  1.2667
   85SAPS   C34 8100   2.228   1.544  10.256  0.0212  0.7108 -0.4771
   85SAPS   H4X 8101   2.194   1.448  10.300  0.3645  1.3280  1.2151
   85SAPS   H4Y 8102   2.338   1.557  10.266  0.1925 -0.0640 -1.3070
   85SAPS   C35 8103   2.208   1.540  10.107  0.0953 -0.2627  0.1391
   85SAPS   H5X 8104   2.098   1.533  10.094  0.1238  1.1279 -1.2098
   85SAPS   H5Y 8105   2.266   1.463  10.053  2.0238  0.2999  1.2973
   85SAPS   C36 8106   2.230   1.681  10.039  0.0157  0.1742 -0.8320
   85SAPS   H6X 8107   2.334   1.719  10.048 -0.4486  1.2368  0.3013
   85SAPS   H6Y 8108   2.153   1.749  10.083 -0.3540  0.0380 -1.2620
   85SAPS   C37 8109   2.208   1.664   9.892  0.7452 -0.4799  0.1848
   85SAPS   H7X 8110   2.221   1.764   9.846  1.1793 -0.5443  0.1600
   85SAPS   H7Y 8111   2.100   1.646   9.873  0.8368 -0.4506 -0.3933
   85SAPS   C38 8112   2.298   1.563   9.811  0.2322  0.1730  0.7550
   85SAPS   H8X 8113   2.265   1.461   9.838 -1.6709  0.4166 -0.4365
   85SAPS   H8Y 8114   2.397   1.568   9.862  0.0932 -4.6981  1.9330
   85SAPS   C39 8115   2.308   1.596   9.662  0.4001  0.2128 -0.0484
   85SAPS   H9X 8116   2.346   1.699   9.643  0.0084  0.1569 -1.1627
   85SAPS   H9Y 8117   2.209   1.589   9.612 -0.1708 -0.2446  1.0934
   85SAPS  C310 8118   2.396   1.502   9.592 -0.2654  0.2417 -0.6769
   85SAPS  H10X 8119   2.362   1.402   9.627  2.5027 -0.6359 -0.2394
   85SAPS  H10Y 8120   2.500   1.514   9.630  0.6517  1.4750 -3.3714
   85SAPS  C311 8121   2.403   1.512   9.443  0.2958 -0.5737  0.2409
   85SAPS  H11X 8122   2.422   1.619   9.420 -2.1010  0.1584  1.4266
   85SAPS  H11Y 8123   2.299   1.487   9.415  0.3896 -0.1508 -0.5186
   85SAPS  C312 8124   2.502   1.415   9.372  0.3776  0.3257  0.0298
   85SAPS  H12X 8125   2.483   1.313   9.411  2.3023 -1.3759 -2.9968
   85SAPS  H12Y 8126   2.602   1.440   9.414  0.4206 -0.8494  0.6385
   85SAPS  C313 8127   2.494   1.430   9.218 -0.1554  0.1721  0.7407
   85SAPS  H13X 8128   2.496   1.540   9.203  0.2101  0.1318  0.4871
   85SAPS  H13Y 8129   2.401   1.385   9.178  0.5902 -0.2871 -0.5289
   85SAPS  C314 8130   2.615   1.358   9.152  0.2787  0.5464  0.2667
   85SAPS  H14X 8131   2.614   1.255   9.194 -0.9351 -0.0612 -1.1305
   85SAPS  H14Y 8132   2.718   1.384   9.182  0.7303  0.4884 -1.1760
   85SAPS  C315 8133   2.605   1.360   8.998 -0.2783 -0.3915 -0.6133
   85SAPS  H15X 8134   2.618   1.466   8.968 -3.3587  1.5302  3.7701
   85SAPS  H15Y 8135   2.505   1.324   8.967 -1.3242  1.3329  0.5979
   85SAPS  C316 8136   2.707   1.275   8.916 -0.2860 -0.1031 -0.5754
   85SAPS  H16X 8137   2.735   1.185   8.975 -0.0379  0.8551  0.7989
   85SAPS  H16Y 8138   2.798   1.338   8.920 -0.0522 -0.4819  0.4311
   85SAPS  C317 8139   2.675   1.247   8.768  0.2009  0.3553  0.4353
   85SAPS  H17X 8140   2.706   1.326   8.697  0.1267  0.0620  0.0724
   85SAPS  H17Y 8141   2.565   1.247   8.753  0.3679  0.7378 -0.9080
   85SAPS  C318 8142   2.714   1.110   8.711  0.1257  1.1731  0.0291
   85SAPS  H18X 8143   2.680   1.099   8.606  0.3860 -0.5692  0.1133
   85SAPS  H18Y 8144   2.658   1.040   8.776 -0.9715  0.2610 -1.8002
   85SAPS  H18Z 8145   2.822   1.088   8.703 -0.5858 -2.9529 -0.5496
   86SAPS     N 8146   3.962   1.894  10.908  0.5289 -0.0754 -0.5688
   86SAPS   HN1 8147   3.954   1.993  10.878 -2.7445 -0.4233 -1.2386
   86SAPS   HN2 8148   4.026   1.892  10.990 -1.0855 -2.9246  0.8117
   86SAPS   HN3 8149   3.990   1.837  10.825 -1.8274 -0.1952 -1.3780
   86SAPS   C12 8150   3.830   1.838  10.947  0.0423 -0.3270 -0.0067
   86SAPS  H12A 8151   3.840   1.731  10.959 -1.2356 -0.4467  0.1166
   86SAPS   C13 8152   3.764   1.891  11.072  0.0772  0.1137 -0.7582
   86SAPS  O13A 8153   3.835   1.963  11.149  0.3675 -0.1146 -0.1431
   86SAPS  O13B 8154   3.671   1.822  11.124  0.0285 -0.0983 -0.1016
   86SAPS   C11 8155   3.732   1.853  10.827 -0.2064 -0.2281  0.7798
   86SAPS  H11A 8156   3.646   1.786  10.848 -0.8263 -0.0558 -1.0032
   86SAPS  H11B 8157   3.773   1.816  10.731 -1.8985  0.1261 -0.1157
   86SAPS     P 8158   3.752   2.097  10.729 -0.2874  0.1680 -0.2704
   86SAPS   O13 8159   3.678   2.220  10.755  0.0627 -0.0290 -0.5048
   86SAPS   O14 8160   3.894   2.094  10.768 -0.2862  0.4507 -0.0478
   86SAPS   O12 8161   3.675   1.982  10.799  0.4389  0.7628 -0.1394
   86SAPS   O11 8162   3.741   2.055  10.578  0.7173 -0.6295  0.4429
   86SAPS    C1 8163   3.617   2.021  10.521 -0.4462 -0.6823  0.3997
   86SAPS    HA 8164   3.599   1.912  10.531 -1.8115 -0.2857  4.2975
   86SAPS    HB 8165   3.530   2.053  10.584  0.5235  0.9551  0.9767
   86SAPS    C2 8166   3.597   2.080  10.375  0.9405  0.3547  0.0415
   86SAPS    HS 8167   3.491   2.061  10.348  0.9762  2.9763 -2.4019
   86SAPS   O21 8168   3.693   2.021  10.279  0.3623 -0.6589  0.5035
   86SAPS   C21 8169   3.665   1.888  10.254  0.1684 -0.8094  0.0248
   86SAPS   O22 8170   3.580   1.825  10.309  0.0781  0.6020  0.3055
   86SAPS   C22 8171   3.761   1.833  10.154 -0.7322 -0.3760 -0.7779
   86SAPS   H2R 8172   3.851   1.816  10.217 -0.9766 -2.0897 -0.8624
   86SAPS   H2S 8173   3.716   1.743  10.108 -0.8959 -1.9374  2.2201
   86SAPS    C3 8174   3.612   2.237  10.377 -0.1094 -0.0996  0.7329
   86SAPS    HX 8175   3.721   2.258  10.368  0.1514 -1.2460  1.0685
   86SAPS    HY 8176   3.572   2.276  10.473  2.0793 -0.6511  1.9239
   86SAPS   O31 8177   3.546   2.295  10.267  0.6371 -0.0997  0.1833
   86SAPS   C31 8178   3.430   2.362  10.273 -0.5380  0.6843 -0.1584
   86SAPS   O32 8179   3.361   2.377  10.376 -0.5906 -0.1440 -0.3036
   86SAPS   C32 8180   3.405   2.428  10.137 -0.5334 -0.3146  0.6639
   86SAPS   H2X 8181   3.496   2.489  10.117  0.3814 -1.5858  0.8833
   86SAPS   H2Y 8182   3.321   2.500  10.154 -0.0297  0.7223 -0.9862
   86SAPS   C23 8183   3.810   1.937  10.045  0.9568  0.0432  0.2590
   86SAPS   H3R 8184   3.892   1.880   9.996  2.0993 -1.0843  3.2125
   86SAPS   H3S 8185   3.848   2.028  10.097  1.0130 -1.4471  3.0336
   86SAPS   C24 8186   3.692   1.958   9.943  0.4664 -0.2254 -0.0063
   86SAPS   H4R 8187   3.609   2.007   9.998  2.4536  1.5814  1.5381
   86SAPS   H4S 8188   3.659   1.857   9.909 -0.1568 -0.5755  1.5853
   86SAPS   C25 8189   3.723   2.042   9.822  0.2597 -1.2839  0.2653
   86SAPS   H5R 8190   3.725   2.148   9.853  2.0419 -0.1317 -3.1432
   86SAPS   C26 8191   3.751   2.007   9.697 -0.6151  0.0253  0.0049
   86SAPS   H6R 8192   3.774   2.087   9.624 -3.1041  0.6892 -0.1522
   86SAPS   C27 8193   3.761   1.864   9.657 -0.0474 -0.4417 -0.2624
   86SAPS   H7R 8194   3.665   1.843   9.606 -0.9785 -0.5236  1.4537
   86SAPS   H7S 8195   3.770   1.795   9.744  0.5715  0.3136  0.2934
   86SAPS   C28 8196   3.866   1.846   9.552  0.3491  0.5338 -0.1240
   86SAPS   H8R 8197   3.963   1.803   9.582  0.9464 -0.8659 -3.6344
   86SAPS   C29 8198   3.866   1.871   9.419 -0.6859  0.3754 -0.0889
   86SAPS   H9R 8199   3.958   1.862   9.361 -0.5938  0.7450 -0.0016
   86SAPS  C210 8200   3.757   1.911   9.319 -0.0874 -0.4906 -0.6219
   86SAPS  H10R 8201   3.781   2.005   9.265 -2.0636 -0.3507 -1.3656
   86SAPS  H10S 8202   3.666   1.929   9.380  0.4900 -3.3236  1.2776
   86SAPS  C211 8203   3.721   1.801   9.222 -0.3900 -0.0486  0.2762
   86SAPS  H11R 8204   3.754   1.701   9.255 -1.0726  0.1903  1.7289
   86SAPS  C212 8205   3.662   1.825   9.099 -0.2927  0.1118 -1.2379
   86SAPS  H12R 8206   3.629   1.738   9.040 -0.2988  0.4428 -1.7270
   86SAPS  C213 8207   3.621   1.962   9.041 -0.4341 -0.4433 -0.1563
   86SAPS  H13R 8208   3.661   2.050   9.096 -0.3744  0.4812 -1.6163
   86SAPS  H13S 8209   3.511   1.961   9.055 -0.5780 -0.3763 -1.2435
   86SAPS  C214 8210   3.665   1.980   8.900  0.0329  0.3900 -0.4008
   86SAPS  H14R 8211   3.755   2.042   8.890  0.7275 -0.7162 -1.1399
   86SAPS  C215 8212   3.602   1.947   8.782  0.0929 -0.0956 -0.1807
   86SAPS  H15R 8213   3.648   1.963   8.684  0.1765 -0.8330 -0.2695
   86SAPS  C216 8214   3.477   1.866   8.786  0.3412  0.5143 -0.3735
   86SAPS  H16R 8215   3.413   1.896   8.872 -0.4671 -0.8219 -0.4780
   86SAPS  H16S 8216   3.489   1.756   8.782 -0.8369  0.2175  2.3315
   86SAPS  C217 8217   3.382   1.897   8.674  0.0602  0.3860 -0.6681
   86SAPS  H17R 8218   3.421   1.887   8.570  1.1500  0.7284 -0.3007
   86SAPS  H17S 8219   3.349   2.002   8.689  2.0462  0.8361  0.9422
   86SAPS  C218 8220   3.251   1.823   8.689  0.9674 -0.8862  0.4555
   86SAPS  H18R 8221   3.220   1.847   8.793  2.2771  2.1522  0.2532
   86SAPS  H18S 8222   3.245   1.712   8.684 -0.1229 -0.8002 -0.4875
   86SAPS  C219 8223   3.151   1.881   8.588  0.0036 -0.2165  0.0410
   86SAPS  H19R 8224   3.163   1.990   8.569 -1.7959 -0.1425 -0.8851
   86SAPS  H19S 8225   3.048   1.868   8.626 -0.9099  1.9348 -1.4720
   86SAPS  C220 8226   3.152   1.813   8.453 -0.4215 -0.5065 -0.3703
   86SAPS  H20R 8227   3.234   1.867   8.400  0.2518 -0.7185  0.4288
   86SAPS  H20S 8228   3.055   1.823   8.401 -0.6999  0.1388  0.2580
   86SAPS  H20T 8229   3.173   1.706   8.478  2.9967  0.6250  2.4708
   86SAPS   C33 8230   3.370   2.319  10.038  0.0460 -0.4710 -0.3447
   86SAPS   H3X 8231   3.292   2.251  10.076  1.7718 -2.6272 -0.4366
   86SAPS   H3Y 8232   3.462   2.264  10.010 -0.0895 -0.8304 -0.0826
   86SAPS   C34 8233   3.321   2.372   9.901 -0.2662  0.3116  0.8358
   86SAPS   H4X 8234   3.397   2.430   9.844  1.1715 -1.9449  0.3154
   86SAPS   H4Y 8235   3.234   2.440   9.908  0.0703  0.6603  1.8125
   86SAPS   C35 8236   3.295   2.250   9.812  0.5175  0.5258  0.1454
   86SAPS   H5X 8237   3.229   2.169   9.850  0.5050 -0.2827 -1.5378
   86SAPS   H5Y 8238   3.392   2.197   9.808  1.0576  1.5761 -1.3326
   86SAPS   C36 8239   3.262   2.292   9.663  0.2106  0.5817 -0.3927
   86SAPS   H6X 8240   3.175   2.360   9.648  0.8318  1.2094 -1.2775
   86SAPS   H6Y 8241   3.235   2.194   9.618  0.0183  0.1793  0.5881
   86SAPS   C37 8242   3.375   2.348   9.575 -0.1044  1.0416  0.0772
   86SAPS   H7X 8243   3.420   2.437   9.624  3.2748 -0.1040 -0.6763
   86SAPS   H7Y 8244   3.328   2.399   9.488  0.2299 -1.4756 -1.6829
   86SAPS   C38 8245   3.475   2.240   9.525  0.1738 -0.2733  0.5885
   86SAPS   H8X 8246   3.434   2.169   9.451 -1.8581  1.6659 -0.2674
   86SAPS   H8Y 8247   3.506   2.191   9.619 -1.1461 -0.3076  1.0210
   86SAPS   C39 8248   3.600   2.302   9.464 -0.2536 -0.3993 -0.6142
   86SAPS   H9X 8249   3.676   2.221   9.463 -0.4245 -0.5973 -2.7661
   86SAPS   H9Y 8250   3.641   2.393   9.513 -1.0401  0.3647 -1.3330
   86SAPS  C310 8251   3.577   2.342   9.315  0.3604 -0.4871 -0.2120
   86SAPS  H10X 8252   3.499   2.422   9.313 -0.1362 -0.8249  2.3456
   86SAPS  H10Y 8253   3.544   2.253   9.258 -1.0010  1.4901 -2.7292
   86SAPS  C311 8254   3.695   2.394   9.243 -0.0608 -0.2291 -1.0101
   86SAPS  H11X 8255   3.765   2.309   9.234 -0.6620 -0.7747 -0.5894
   86SAPS  H11Y 8256   3.741   2.470   9.310 -1.4115 -1.6658  1.7280
   86SAPS  C312 8257   3.663   2.461   9.110 -0.4353  0.0596 -0.3977
   86SAPS  H12X 8258   3.754   2.517   9.077 -0.4276 -0.0710 -0.5985
   86SAPS  H12Y 8259   3.586   2.541   9.115 -1.5353 -0.9532 -0.7814
   86SAPS  C313 8260   3.625   2.354   9.006  0.3303  0.4757 -0.4774
   86SAPS  H13X 8261   3.535   2.299   9.040  0.6862  0.3545  0.2816
   86SAPS  H13Y 8262   3.711   2.284   8.991  0.9970  0.6636  2.0509
   86SAPS  C314 8263   3.592   2.409   8.863  0.3688  0.3747 -0.0267
   86SAPS  H14X 8264   3.681   2.458   8.818  2.9657 -3.4158  0.4813
   86SAPS  H14Y 8265   3.518   2.491   8.865  1.3333  1.3227 -1.4344
   86SAPS  C315 8266   3.530   2.305   8.761 -0.3676  0.3554 -0.3639
   86SAPS  H15X 8267   3.450   2.240   8.802 -0.0005 -0.2579 -0.6021
   86SAPS  H15Y 8268   3.607   2.227   8.741  0.9347  0.8524  2.2912
   86SAPS  C316 8269   3.481   2.362   8.629  0.6719 -0.2128  0.2353
   86SAPS  H16X 8270   3.563   2.406   8.568  1.6597 -0.7096  1.1707
   86SAPS  H16Y 8271   3.410   2.444   8.655  3.3506  1.6843  2.0736
   86SAPS  C317 8272   3.402   2.264   8.545  0.1136  0.2222  0.2015
   86SAPS  H17X 8273   3.303   2.245   8.590 -0.4220  0.5752 -0.7977
   86SAPS  H17Y 8274   3.449   2.165   8.529  2.3225  0.9512  1.6440
   86SAPS  C318 8275   3.378   2.314   8.405 -0.2729 -0.3550  0.3127
   86SAPS  H18X 8276   3.478   2.314   8.356 -1.0801  0.3690 -1.4549
   86SAPS  H18Y 8277   3.334   2.416   8.401  0.2001  0.0001  2.7770
   86SAPS  H18Z 8278   3.318   2.239   8.350  0.0665 -0.7648  0.4966
   87SAPS     N 8279   3.802   2.222  11.165  0.6200 -0.0688 -0.0738
   87SAPS   HN1 8280   3.878   2.251  11.101  0.0994 -2.8733 -2.1320
   87SAPS   HN2 8281   3.823   2.257  11.261 -2.1780  1.8249 -0.0142
   87SAPS   HN3 8282   3.804   2.118  11.158  0.3793 -0.0775 -0.0442
   87SAPS   C12 8283   3.678   2.282  11.116 -0.0975 -0.2706  0.1541
   87SAPS  H12A 8284   3.669   2.246  11.015  1.5911  2.5341 -1.0908
   87SAPS   C13 8285   3.544   2.256  11.188 -0.3803 -0.0216  0.0897
   87SAPS  O13A 8286   3.549   2.189  11.291  0.3597 -0.3030 -0.0257
   87SAPS  O13B 8287   3.439   2.296  11.142  0.1454 -0.0792  0.1653
   87SAPS   C11 8288   3.698   2.441  11.108 -0.3361  0.2972 -0.2708
   87SAPS  H11A 8289   3.702   2.488  11.208 -1.6972 -1.1062  0.4957
   87SAPS  H11B 8290   3.610   2.475  11.049 -2.6855 -0.5066  2.5739
   87SAPS     P 8291   3.834   2.619  10.972  0.0870 -0.1910 -0.4777
   87SAPS   O13 8292   3.712   2.696  11.002 -0.3535  0.1005 -0.1546
   87SAPS   O14 8293   3.963   2.668  11.033  0.3834 -0.1005 -0.9148
   87SAPS   O12 8294   3.809   2.475  11.029 -0.2484 -0.2429 -0.5793
   87SAPS   O11 8295   3.852   2.598  10.816  0.1922 -0.4372  0.5362
   87SAPS    C1 8296   3.883   2.472  10.759  0.1477 -0.2086  0.3790
   87SAPS    HA 8297   3.991   2.449  10.764  0.1483 -0.5979 -0.9839
   87SAPS    HB 8298   3.829   2.390  10.811  1.4122 -1.6893 -0.5618
   87SAPS    C2 8299   3.845   2.486  10.610 -0.0606 -0.0103  0.0695
   87SAPS    HS 8300   3.842   2.392  10.550  1.4747  0.4466 -0.7828
   87SAPS   O21 8301   3.938   2.574  10.546 -0.1254 -0.2358 -1.0730
   87SAPS   C21 8302   4.055   2.527  10.515  0.3797  0.1889  0.1372
   87SAPS   O22 8303   4.085   2.405  10.528 -0.2992  0.0579  0.2070
   87SAPS   C22 8304   4.146   2.640  10.477  0.2540 -0.2733  0.1384
   87SAPS   H2R 8305   4.083   2.724  10.441 -0.4471 -0.6077  0.5669
   87SAPS   H2S 8306   4.216   2.673  10.557 -0.1172  1.0960 -0.0746
   87SAPS    C3 8307   3.701   2.541  10.599 -0.7722  0.1481 -0.2395
   87SAPS    HX 8308   3.680   2.635  10.654 -1.6901 -0.9844  1.4212
   87SAPS    HY 8309   3.635   2.469  10.652 -1.8154  0.7441 -0.6972
   87SAPS   O31 8310   3.671   2.561  10.456 -0.1418 -0.2893  0.1242
   87SAPS   C31 8311   3.689   2.683  10.405 -0.1520  0.4784  0.6134
   87SAPS   O32 8312   3.759   2.768  10.444  0.1197  0.0749  0.4022
   87SAPS   C32 8313   3.628   2.704  10.266  0.2320 -0.7325  0.2527
   87SAPS   H2X 8314   3.521   2.674  10.269 -0.5022  1.1959 -2.5057
   87SAPS   H2Y 8315   3.672   2.645  10.183 -2.0662  0.1295 -1.6917
   87SAPS   C23 8316   4.244   2.595  10.362 -0.0592  0.0842  0.2789
   87SAPS   H3R 8317   4.194   2.569  10.266  0.3267 -0.9074  0.3343
   87SAPS   H3S 8318   4.308   2.510  10.395  0.2298  0.8836  1.8650
   87SAPS   C24 8319   4.354   2.699  10.318  0.7398 -0.4945 -0.0564
   87SAPS   H4R 8320   4.413   2.655  10.235 -0.2245 -0.5260 -0.7407
   87SAPS   H4S 8321   4.429   2.722  10.396 -0.1135  1.7165  0.1995
   87SAPS   C25 8322   4.297   2.825  10.256 -0.7394  0.4508 -0.6966
   87SAPS   H5R 8323   4.252   2.903  10.319 -0.5684  0.1505 -0.2003
   87SAPS   C26 8324   4.294   2.853  10.124  0.4084  1.2020  0.2397
   87SAPS   H6R 8325   4.266   2.955  10.093 -2.8405  0.4430  0.3496
   87SAPS   C27 8326   4.348   2.781  10.009 -0.0403 -0.6177  0.6526
   87SAPS   H7R 8327   4.435   2.717  10.034  0.8575 -0.5372 -1.9963
   87SAPS   H7S 8328   4.370   2.854   9.928  1.8033  0.1529  1.7954
   87SAPS   C28 8329   4.255   2.679   9.950  0.8366  0.1780 -0.7188
   87SAPS   H8R 8330   4.207   2.618  10.027  1.3039  0.8012  0.0769
   87SAPS   C29 8331   4.229   2.657   9.815 -0.6858 -0.2116 -0.4053
   87SAPS   H9R 8332   4.164   2.572   9.788 -0.1854 -0.4740 -0.8171
   87SAPS  C210 8333   4.288   2.729   9.696  0.3403 -0.2774  0.5670
   87SAPS  H10R 8334   4.275   2.838   9.717  0.1050 -0.1732 -0.0977
   87SAPS  H10S 8335   4.230   2.706   9.604  1.9852  0.7529 -0.7943
   87SAPS  C211 8336   4.439   2.711   9.686 -0.1160  0.4891  0.0019
   87SAPS  H11R 8337   4.496   2.690   9.778 -1.5179 -0.2248  0.7357
   87SAPS  C212 8338   4.514   2.733   9.579  0.1484  0.0960 -0.3060
   87SAPS  H12R 8339   4.623   2.723   9.585  0.2119  0.9277 -0.0024
   87SAPS  C213 8340   4.446   2.772   9.447  0.1461 -0.2354  0.6400
   87SAPS  H13R 8341   4.342   2.807   9.463 -0.2401 -1.8069  1.8028
   87SAPS  H13S 8342   4.446   2.686   9.376 -0.7727 -0.3651  0.7925
   87SAPS  C214 8343   4.535   2.877   9.382  0.0570 -0.2307 -0.4336
   87SAPS  H14R 8344   4.601   2.933   9.449 -0.6555  1.6427 -1.2168
   87SAPS  C215 8345   4.539   2.915   9.255  0.4172  0.0235 -0.2635
   87SAPS  H15R 8346   4.610   2.993   9.224 -0.7915  2.4804  2.6586
   87SAPS  C216 8347   4.448   2.861   9.147  0.4160 -0.3931  0.5596
   87SAPS  H16R 8348   4.394   2.954   9.119  1.6945  0.1731 -0.1085
   87SAPS  H16S 8349   4.380   2.780   9.182  0.0524  0.2445  1.3310
   87SAPS  C217 8350   4.511   2.808   9.020 -0.2798  0.1152 -0.2176
   87SAPS  H17R 8351   4.424   2.774   8.960  0.8063 -0.6239 -1.4385
   87SAPS  H17S 8352   4.575   2.722   9.048  0.2826  0.3464 -0.7736
   87SAPS  C218 8353   4.592   2.908   8.936  0.9605  1.1969 -0.5616
   87SAPS  H18R 8354   4.677   2.937   9.000  0.9302  2.1043 -0.9175
   87SAPS  H18S 8355   4.531   3.000   8.926  0.5583  0.9002 -0.8815
   87SAPS  C219 8356   4.652   2.860   8.800 -0.2701 -0.3423  0.1426
   87SAPS  H19R 8357   4.581   2.847   8.716  0.1261 -1.3152 -0.0583
   87SAPS  H19S 8358   4.699   2.760   8.809 -1.1670 -0.7768  0.0937
   87SAPS  C220 8359   4.755   2.967   8.750 -0.0959  0.2299  0.9828
   87SAPS  H20R 8360   4.856   2.940   8.789  0.0362 -0.9211 -0.0888
   87SAPS  H20S 8361   4.722   3.072   8.766  0.2049  0.5762 -0.5243
   87SAPS  H20T 8362   4.763   2.954   8.640 -2.0257 -0.7504  0.9226
   87SAPS   C33 8363   3.632   2.849  10.216 -0.0357  0.1173  0.2557
   87SAPS   H3X 8364   3.738   2.880  10.207  0.3760 -0.4997  2.3974
   87SAPS   H3Y 8365   3.584   2.916  10.292 -1.7137 -0.1548 -0.5057
   87SAPS   C34 8366   3.544   2.879  10.088  0.1216  0.7097 -0.4783
   87SAPS   H4X 8367   3.572   2.982  10.059  3.2501  0.3337  0.7932
   87SAPS   H4Y 8368   3.438   2.848  10.103  1.0919 -2.2947  1.2331
   87SAPS   C35 8369   3.600   2.792   9.968 -0.3668  0.1744 -0.2331
   87SAPS   H5X 8370   3.585   2.686   9.999 -0.7434  0.8443  2.0229
   87SAPS   H5Y 8371   3.701   2.835   9.951 -0.3849  1.4730  2.4151
   87SAPS   C36 8372   3.513   2.825   9.851 -0.1003  0.0439 -0.1822
   87SAPS   H6X 8373   3.504   2.934   9.833  3.0078  0.2963 -0.7997
   87SAPS   H6Y 8374   3.413   2.792   9.885 -1.1942  2.2674 -1.0037
   87SAPS   C37 8375   3.545   2.762   9.721 -0.2673  0.3464  0.3163
   87SAPS   H7X 8376   3.559   2.653   9.736 -0.2373  0.2980 -0.0448
   87SAPS   H7Y 8377   3.638   2.805   9.679 -0.9887  0.0220 -1.7107
   87SAPS   C38 8378   3.425   2.767   9.625 -0.2865  0.5993  0.3347
   87SAPS   H8X 8379   3.378   2.867   9.630 -0.8034  0.2990  2.1214
   87SAPS   H8Y 8380   3.344   2.702   9.663 -0.6033  2.4240  3.0450
   87SAPS   C39 8381   3.447   2.727   9.473 -0.0388 -0.7635  0.0933
   87SAPS   H9X 8382   3.363   2.662   9.442  0.5591 -1.4911 -0.0296
   87SAPS   H9Y 8383   3.536   2.661   9.464  0.9260  0.7123 -2.0336
   87SAPS  C310 8384   3.458   2.849   9.383 -0.1767 -0.1842  0.0147
   87SAPS  H10X 8385   3.526   2.920   9.435 -0.6780  1.1292 -1.0594
   87SAPS  H10Y 8386   3.360   2.894   9.354 -0.1878  0.3797  0.8995
   87SAPS  C311 8387   3.528   2.810   9.247 -0.0298  0.1464  0.6599
   87SAPS  H11X 8388   3.458   2.741   9.195  2.2050 -0.5670 -1.6085
   87SAPS  H11Y 8389   3.617   2.748   9.270 -0.2531 -0.8361 -0.9638
   87SAPS  C312 8390   3.556   2.920   9.144 -0.2822 -0.8184  0.0081
   87SAPS  H12X 8391   3.645   2.977   9.177  0.3109  0.4277 -3.3820
   87SAPS  H12Y 8392   3.468   2.988   9.145  1.4638  1.5414  0.6578
   87SAPS  C313 8393   3.583   2.873   9.005 -0.2279 -0.2159  1.0494
   87SAPS  H13X 8394   3.485   2.863   8.952  0.4615 -0.9195 -0.1464
   87SAPS  H13Y 8395   3.652   2.787   9.018 -1.2336 -0.6350  5.0411
   87SAPS  C314 8396   3.655   2.978   8.909  0.0416  0.3491 -0.5679
   87SAPS  H14X 8397   3.744   3.022   8.959 -0.6886  0.5282  0.6282
   87SAPS  H14Y 8398   3.581   3.056   8.885  2.2193  2.4826 -0.6862
   87SAPS  C315 8399   3.691   2.903   8.783  0.2517  0.0129  0.3877
   87SAPS  H15X 8400   3.735   2.805   8.811 -0.9842 -0.9422 -0.8940
   87SAPS  H15Y 8401   3.763   2.968   8.730 -1.0369 -0.6992 -2.4359
   87SAPS  C316 8402   3.573   2.878   8.696 -0.7915  0.4535  0.5200
   87SAPS  H16X 8403   3.512   2.969   8.676 -2.4679 -1.0384 -1.6442
   87SAPS  H16Y 8404   3.511   2.797   8.740  1.8655 -0.9966  1.7920
   87SAPS  C317 8405   3.606   2.818   8.555 -0.3905  0.5419 -0.5378
   87SAPS  H17X 8406   3.656   2.902   8.502  0.6572  1.1939  1.3577
   87SAPS  H17Y 8407   3.518   2.783   8.497  0.3127 -3.9775  0.7379
   87SAPS  C318 8408   3.706   2.700   8.564  0.3587  0.3568  0.5877
   87SAPS  H18X 8409   3.724   2.669   8.459 -1.9677 -2.8369  0.9805
   87SAPS  H18Y 8410   3.641   2.624   8.613  1.6092 -0.8444  0.4310
   87SAPS  H18Z 8411   3.795   2.721   8.627  1.7269  0.8101 -1.4190
   88SAPS     N 8412   4.878   6.424  11.090 -0.0081 -0.9898  0.2811
   88SAPS   HN1 8413   4.879   6.348  11.162  0.3281  0.7121  2.1790
   88SAPS   HN2 8414   4.780   6.452  11.069  0.0590 -1.4461 -0.6818
   88SAPS   HN3 8415   4.912   6.392  10.998 -0.4835 -0.2713 -0.1511
   88SAPS   C12 8416   4.976   6.520  11.156  0.9552 -1.0894  0.8758
   88SAPS  H12A 8417   4.928   6.579  11.233  2.3129  0.2200  0.7822
   88SAPS   C13 8418   5.103   6.453  11.225 -1.1211 -0.1454 -0.0278
   88SAPS  O13A 8419   5.139   6.340  11.191 -0.3486  0.0156  0.6004
   88SAPS  O13B 8420   5.162   6.517  11.305 -0.4275 -0.0074  0.7275
   88SAPS   C11 8421   5.010   6.627  11.041 -0.6520  1.0006 -0.0026
   88SAPS  H11A 8422   5.076   6.576  10.967  0.6981  1.1300  1.0816
   88SAPS  H11B 8423   5.072   6.709  11.083 -0.5185  0.3079  1.1884
   88SAPS     P 8424   4.896   6.765  10.851  0.2526 -0.2316  0.0580
   88SAPS   O13 8425   4.776   6.856  10.853  0.0583  0.5379 -0.2792
   88SAPS   O14 8426   5.028   6.830  10.846  0.0448 -0.3104 -0.2137
   88SAPS   O12 8427   4.890   6.679  10.981 -0.0961 -0.1904  0.4348
   88SAPS   O11 8428   4.879   6.666  10.732 -0.2412  0.0829 -0.1098
   88SAPS    C1 8429   4.988   6.661  10.633  0.2459 -0.2566 -0.3088
   88SAPS    HA 8430   5.009   6.763  10.594 -1.3351  0.5515  0.8329
   88SAPS    HB 8431   5.077   6.627  10.690 -1.3075  1.0760  3.2305
   88SAPS    C2 8432   4.952   6.561  10.516  0.4824 -1.3992  0.0824
   88SAPS    HS 8433   5.019   6.568  10.428 -0.7992  1.1950 -0.8059
   88SAPS   O21 8434   4.829   6.590  10.466  0.3491  0.2544 -0.4824
   88SAPS   C21 8435   4.827   6.699  10.393  1.6367 -0.2020 -0.3064
   88SAPS   O22 8436   4.914   6.784  10.375 -0.8047  0.4160 -0.0253
   88SAPS   C22 8437   4.679   6.702  10.336  0.3087  0.1506 -0.6903
   88SAPS   H2R 8438   4.604   6.704  10.418  0.6319 -1.3040 -0.3224
   88SAPS   H2S 8439   4.676   6.806  10.297 -0.0536  0.1124 -0.7675
   88SAPS    C3 8440   4.941   6.411  10.569  0.0272 -0.1558  0.2390
   88SAPS    HX 8441   4.859   6.417  10.644 -0.5233  1.3483 -0.4388
   88SAPS    HY 8442   5.041   6.395  10.616  1.1422 -1.9962 -2.5384
   88SAPS   O31 8443   4.913   6.307  10.465  0.1116 -0.0378  0.3576
   88SAPS   C31 8444   4.899   6.183  10.515  0.4436 -0.0495 -0.0758
   88SAPS   O32 8445   4.900   6.155  10.631  0.0652  0.5285  0.0951
   88SAPS   C32 8446   4.863   6.081  10.400 -0.1682 -0.4267  0.0230
   88SAPS   H2X 8447   4.958   6.030  10.376  0.1091  0.9500 -2.0456
   88SAPS   H2Y 8448   4.865   6.146  10.310  0.9782  1.0112  1.0320
   88SAPS   C23 8449   4.649   6.598  10.231  0.3824  0.2270  0.1214
   88SAPS   H3R 8450   4.542   6.592  10.203  0.1769 -2.6431  1.1600
   88SAPS   H3S 8451   4.671   6.498  10.275  0.1968 -0.2180 -0.7538
   88SAPS   C24 8452   4.744   6.608  10.110  0.9392  0.2507 -0.2667
   88SAPS   H4R 8453   4.714   6.523  10.046 -1.3690  0.9690 -0.2056
   88SAPS   H4S 8454   4.845   6.588  10.152  0.5162  0.2564  0.7844
   88SAPS   C25 8455   4.745   6.742  10.041 -0.7707  0.5534  0.1262
   88SAPS   H5R 8456   4.688   6.820  10.095 -1.9686  0.5644 -1.0991
   88SAPS   C26 8457   4.800   6.772   9.925  0.4434  0.0452 -0.4970
   88SAPS   H6R 8458   4.795   6.881   9.908 -1.5135 -0.0983 -1.0023
   88SAPS   C27 8459   4.879   6.688   9.832 -0.5771 -0.2371  0.2696
   88SAPS   H7R 8460   4.853   6.723   9.730  2.7094 -1.2248 -1.0493
   88SAPS   H7S 8461   4.846   6.582   9.836  1.1453 -0.8149  0.0294
   88SAPS   C28 8462   5.030   6.701   9.825  0.7344 -0.6273 -0.2856
   88SAPS   H8R 8463   5.074   6.709   9.926 -2.1134 -2.4112  1.2435
   88SAPS   C29 8464   5.113   6.706   9.719 -0.6756  0.1244  0.7014
   88SAPS   H9R 8465   5.219   6.726   9.738 -0.1442 -3.1074  1.7186
   88SAPS  C210 8466   5.069   6.702   9.573  0.8739  0.0553  0.3618
   88SAPS  H10R 8467   5.142   6.767   9.520 -1.6299  0.8745 -2.3367
   88SAPS  H10S 8468   4.967   6.743   9.557  0.1018 -2.1760 -0.8729
   88SAPS  C211 8469   5.084   6.563   9.507 -0.6882 -0.8188  0.4189
   88SAPS  H11R 8470   5.100   6.478   9.575  1.8700 -0.3250  0.5259
   88SAPS  C212 8471   5.068   6.539   9.377 -0.3018  0.0846 -0.0315
   88SAPS  H12R 8472   5.084   6.439   9.336  2.0526  0.4565 -0.1415
   88SAPS  C213 8473   5.042   6.632   9.260  0.7431 -0.1223 -0.5316
   88SAPS  H13R 8474   4.983   6.718   9.298  1.9983  0.8845 -0.7807
   88SAPS  H13S 8475   4.972   6.576   9.195 -0.6345  1.1080 -0.1569
   88SAPS  C214 8476   5.171   6.690   9.202  0.2670  0.4109 -1.2221
   88SAPS  H14R 8477   5.230   6.741   9.279 -0.2946  1.2324 -1.3136
   88SAPS  C215 8478   5.204   6.685   9.077  0.2549  0.2241 -0.6688
   88SAPS  H15R 8479   5.300   6.735   9.056 -0.3968  1.2337 -1.3100
   88SAPS  C216 8480   5.130   6.623   8.954 -0.1146  0.5671 -0.0186
   88SAPS  H16R 8481   5.129   6.696   8.870 -0.2473  0.2156 -0.3224
   88SAPS  H16S 8482   5.030   6.589   8.988  1.8542 -3.3857  2.6110
   88SAPS  C217 8483   5.201   6.495   8.906  0.3447  0.0706 -0.6501
   88SAPS  H17R 8484   5.205   6.417   8.984  2.0442  0.9465  0.1717
   88SAPS  H17S 8485   5.305   6.522   8.877  1.0053 -0.7925  0.8296
   88SAPS  C218 8486   5.132   6.443   8.777 -0.5140  0.0842  0.3179
   88SAPS  H18R 8487   5.117   6.520   8.699 -0.8845 -2.5925 -2.4141
   88SAPS  H18S 8488   5.026   6.418   8.801 -1.2165 -0.2171 -2.7562
   88SAPS  C219 8489   5.194   6.316   8.720  0.4829  0.4902 -0.7061
   88SAPS  H19R 8490   5.303   6.332   8.732  0.3805  1.0854 -0.5819
   88SAPS  H19S 8491   5.172   6.300   8.612 -1.1100  0.8867 -0.4668
   88SAPS  C220 8492   5.138   6.189   8.782  0.0498  0.5673  0.0489
   88SAPS  H20R 8493   5.130   6.199   8.892 -2.1455  1.3560 -0.1307
   88SAPS  H20S 8494   5.195   6.104   8.737 -3.6864 -0.3094 -3.7048
   88SAPS  H20T 8495   5.029   6.185   8.757 -0.4520  1.4754  1.9277
   88SAPS   C33 8496   4.745   5.991  10.416 -0.6686  0.2925 -0.0800
   88SAPS   H3X 8497   4.646   6.039  10.433 -0.4339  0.6729  0.2425
   88SAPS   H3Y 8498   4.776   5.922  10.498  1.3089 -1.6889 -2.3410
   88SAPS   C34 8499   4.727   5.899  10.289 -0.4548  0.0357 -0.2802
   88SAPS   H4X 8500   4.823   5.845  10.272 -0.5605  0.3984 -2.3179
   88SAPS   H4Y 8501   4.709   5.962  10.199 -2.9919 -0.3087 -0.0837
   88SAPS   C35 8502   4.618   5.792  10.307  0.0998 -0.2147  0.6336
   88SAPS   H5X 8503   4.519   5.841  10.301 -0.6401 -1.1954  3.3578
   88SAPS   H5Y 8504   4.631   5.742  10.405 -0.9551  1.6147  1.7638
   88SAPS   C36 8505   4.618   5.685  10.194 -0.4750  0.5477 -0.9310
   88SAPS   H6X 8506   4.527   5.627  10.218 -0.4898  1.5397  1.6562
   88SAPS   H6Y 8507   4.701   5.613  10.212  1.5853  2.7314 -1.1690
   88SAPS   C37 8508   4.614   5.726  10.051  0.6239  0.3472  0.2851
   88SAPS   H7X 8509   4.706   5.781  10.023  0.3236  0.4854 -0.4460
   88SAPS   H7Y 8510   4.518   5.779  10.037  0.0685 -1.4077 -3.8223
   88SAPS   C38 8511   4.613   5.607   9.963 -0.2714  0.4056  0.4663
   88SAPS   H8X 8512   4.530   5.537   9.986  0.9141 -0.7654  1.2896
   88SAPS   H8Y 8513   4.693   5.533   9.982 -1.6091 -1.3543 -0.4208
   88SAPS   C39 8514   4.617   5.645   9.815 -0.6651  0.1310 -0.1485
   88SAPS   H9X 8515   4.686   5.729   9.794 -1.2301  0.3614 -1.1487
   88SAPS   H9Y 8516   4.514   5.675   9.786 -0.3117  0.9668 -0.5588
   88SAPS  C310 8517   4.656   5.534   9.720 -0.3337  0.6917 -0.1762
   88SAPS  H10X 8518   4.572   5.461   9.718  0.5837 -0.3914 -0.1722
   88SAPS  H10Y 8519   4.759   5.498   9.742  0.1179  1.7527 -0.4746
   88SAPS  C311 8520   4.671   5.596   9.574 -0.1395  0.9253 -0.4909
   88SAPS  H11X 8521   4.766   5.653   9.567 -0.3336  1.6089  1.8124
   88SAPS  H11Y 8522   4.594   5.676   9.560 -0.3311  1.0402  1.0918
   88SAPS  C312 8523   4.652   5.499   9.464 -1.4702 -0.1250 -0.1982
   88SAPS  H12X 8524   4.566   5.436   9.492 -1.3793  0.9074  2.7226
   88SAPS  H12Y 8525   4.735   5.425   9.460 -2.2023 -0.9732  0.0694
   88SAPS  C313 8526   4.650   5.571   9.330  0.3052  0.0519  0.4491
   88SAPS  H13X 8527   4.746   5.627   9.324  1.1764 -0.9685  3.3202
   88SAPS  H13Y 8528   4.567   5.644   9.316 -0.5335 -0.8309  0.7392
   88SAPS  C314 8529   4.637   5.478   9.202 -0.0309  0.2038  0.6973
   88SAPS  H14X 8530   4.556   5.404   9.223  0.0391  0.0890  0.5671
   88SAPS  H14Y 8531   4.729   5.416   9.194  1.8799  2.7338  1.6406
   88SAPS  C315 8532   4.607   5.550   9.072  0.6062  0.2776 -0.2982
   88SAPS  H15X 8533   4.517   5.614   9.079 -0.0879 -0.1878 -3.5913
   88SAPS  H15Y 8534   4.577   5.470   9.001 -2.4445 -1.7542  2.9574
   88SAPS  C316 8535   4.729   5.630   9.013  0.3392  0.6641 -0.3343
   88SAPS  H16X 8536   4.724   5.630   8.902  0.0278 -2.0966 -0.3932
   88SAPS  H16Y 8537   4.825   5.592   9.054  1.5906  2.7608 -1.1735
   88SAPS  C317 8538   4.720   5.779   9.065 -0.6971 -0.0324  0.0791
   88SAPS  H17X 8539   4.730   5.773   9.175 -0.5355  2.2803  0.2454
   88SAPS  H17Y 8540   4.616   5.806   9.039 -0.6304 -0.3565 -0.5438
   88SAPS  C318 8541   4.825   5.886   9.021 -0.3242 -0.8289  0.1446
   88SAPS  H18X 8542   4.796   5.982   9.067  1.3721 -1.2730  2.3145
   88SAPS  H18Y 8543   4.827   5.895   8.910 -0.5760  0.2822  0.2217
   88SAPS  H18Z 8544   4.924   5.864   9.068  0.1736  0.9989 -0.0040
   89SAPS     N 8545   5.378   2.050  10.867 -0.5093 -0.6574 -0.5757
   89SAPS   HN1 8546   5.358   1.957  10.824  1.4466 -0.4606 -2.1049
   89SAPS   HN2 8547   5.415   2.115  10.794 -0.4644 -1.4812 -1.3082
   89SAPS   HN3 8548   5.450   2.053  10.942 -0.9460  2.5609 -0.1258
   89SAPS   C12 8549   5.255   2.122  10.919 -0.5442  0.8565  0.5572
   89SAPS  H12A 8550   5.192   2.044  10.959  1.3703 -0.5087  1.0627
   89SAPS   C13 8551   5.278   2.216  11.035 -0.0816  0.8487 -1.0476
   89SAPS  O13A 8552   5.391   2.230  11.081 -0.7151 -0.4602  0.1691
   89SAPS  O13B 8553   5.174   2.260  11.096  0.1699  0.8322  0.5322
   89SAPS   C11 8554   5.175   2.189  10.797 -0.0620 -0.0149 -0.2193
   89SAPS  H11A 8555   5.099   2.247  10.853  1.6005  0.2923  1.8452
   89SAPS  H11B 8556   5.131   2.120  10.722  2.0895  1.0192 -2.6013
   89SAPS     P 8557   5.186   2.413  10.647 -0.1383 -0.0024 -0.0353
   89SAPS   O13 8558   5.049   2.394  10.604  1.0690  0.9793  0.8562
   89SAPS   O14 8559   5.216   2.532  10.723  0.2405  0.3278  0.4364
   89SAPS   O12 8560   5.247   2.282  10.725 -0.0915  0.0315  0.3251
   89SAPS   O11 8561   5.273   2.417  10.511  0.5710  0.6858  0.2904
   89SAPS    C1 8562   5.351   2.310  10.470 -0.8245  0.2147  0.0918
   89SAPS    HA 8563   5.444   2.310  10.531 -0.5829  1.6054 -0.2251
   89SAPS    HB 8564   5.299   2.215  10.494  0.0963 -0.6886 -1.3325
   89SAPS    C2 8565   5.393   2.311  10.320  0.7821 -0.1247 -0.5584
   89SAPS    HS 8566   5.449   2.403  10.293 -0.5619  0.8182 -0.2630
   89SAPS   O21 8567   5.275   2.293  10.244  0.6181  0.4231 -0.3161
   89SAPS   C21 8568   5.242   2.386  10.150 -0.1315 -0.4560  0.3127
   89SAPS   O22 8569   5.298   2.489  10.141  0.2137 -0.2690  0.6105
   89SAPS   C22 8570   5.114   2.345  10.071 -0.4934  0.3748 -0.1371
   89SAPS   H2R 8571   5.136   2.244  10.030 -1.9927 -0.4121  0.9111
   89SAPS   H2S 8572   5.031   2.340  10.144  0.1281 -2.5187  0.4969
   89SAPS    C3 8573   5.492   2.191  10.280 -0.5084 -0.9498  0.1451
   89SAPS    HX 8574   5.429   2.103  10.305  0.8399 -1.7064  1.0055
   89SAPS    HY 8575   5.584   2.183  10.341 -0.7316 -2.4160  0.3295
   89SAPS   O31 8576   5.521   2.190  10.132 -0.5260 -0.1894  0.2070
   89SAPS   C31 8577   5.644   2.227  10.100  0.6099  0.8107 -0.1573
   89SAPS   O32 8578   5.744   2.235  10.179  0.6007 -0.1129  0.3780
   89SAPS   C32 8579   5.659   2.228   9.949  0.1856 -0.3289 -0.0111
   89SAPS   H2X 8580   5.558   2.252   9.908  0.7412  2.3117  0.0188
   89SAPS   H2Y 8581   5.694   2.133   9.903 -2.6408 -2.5315  2.0586
   89SAPS   C23 8582   5.090   2.442   9.954 -0.0701  0.5534  0.4852
   89SAPS   H3R 8583   5.150   2.536   9.960 -1.6745  1.5755  1.1318
   89SAPS   H3S 8584   4.987   2.478   9.971  0.4245  2.2113  0.2124
   89SAPS   C24 8585   5.101   2.373   9.815 -0.1509 -1.1495  0.2170
   89SAPS   H4R 8586   5.037   2.432   9.746 -2.8943 -0.9886  2.7340
   89SAPS   H4S 8587   5.049   2.275   9.818 -1.1426 -0.7100 -1.3498
   89SAPS   C25 8588   5.242   2.366   9.766  0.6053  0.4888 -0.3224
   89SAPS   H5R 8589   5.311   2.395   9.846 -0.1550  1.3582  0.0323
   89SAPS   C26 8590   5.279   2.315   9.649 -1.1295  1.0916 -0.6081
   89SAPS   H6R 8591   5.385   2.303   9.621 -1.2115  1.2319 -0.9903
   89SAPS   C27 8592   5.185   2.257   9.548  0.5057  0.7702  0.2018
   89SAPS   H7R 8593   5.085   2.303   9.535  0.7277  1.8059  1.9455
   89SAPS   H7S 8594   5.160   2.157   9.590  1.0019 -0.0250 -1.2886
   89SAPS   C28 8595   5.249   2.221   9.408 -0.3927  0.8434  0.3101
   89SAPS   H8R 8596   5.339   2.158   9.397  0.4429  1.8734  0.9313
   89SAPS   C29 8597   5.223   2.278   9.288  0.3001  0.5418  0.8037
   89SAPS   H9R 8598   5.283   2.241   9.204 -0.8078 -1.9864  1.0414
   89SAPS  C210 8599   5.113   2.384   9.268 -0.3688 -0.5414 -0.4514
   89SAPS  H10R 8600   5.025   2.365   9.333 -1.1809 -0.1134 -1.3970
   89SAPS  H10S 8601   5.080   2.362   9.164 -0.6543  0.9988 -0.7148
   89SAPS  C211 8602   5.158   2.528   9.298  0.3886  1.0003  0.2703
   89SAPS  H11R 8603   5.163   2.550   9.406 -2.7436  2.9705  0.1362
   89SAPS  C212 8604   5.192   2.618   9.202 -0.3395 -0.2417  0.3652
   89SAPS  H12R 8605   5.253   2.703   9.237  0.7562 -0.1723 -1.5712
   89SAPS  C213 8606   5.202   2.601   9.055  0.3891  0.3915 -0.3325
   89SAPS  H13R 8607   5.231   2.498   9.024  0.3989  0.2853  0.0265
   89SAPS  H13S 8608   5.295   2.660   9.043  0.2870  0.8286  0.9083
   89SAPS  C214 8609   5.079   2.654   8.985  0.6745 -0.0768 -0.2734
   89SAPS  H14R 8610   5.034   2.737   9.040  0.7105  0.0478 -0.4310
   89SAPS  C215 8611   5.040   2.622   8.863 -0.3132 -0.0069  0.1478
   89SAPS  H15R 8612   4.948   2.672   8.829  0.0558 -0.6857 -2.0326
   89SAPS  C216 8613   5.090   2.522   8.764 -0.5323  0.6725  0.6262
   89SAPS  H16R 8614   5.010   2.447   8.743 -0.6016  1.0379 -0.5086
   89SAPS  H16S 8615   5.184   2.473   8.796  0.7225  1.0449 -2.2087
   89SAPS  C217 8616   5.134   2.600   8.635 -0.4093 -0.2213  0.0783
   89SAPS  H17R 8617   5.222   2.668   8.643 -1.0736  0.6172  0.4193
   89SAPS  H17S 8618   5.052   2.665   8.597 -0.4013 -1.0717 -1.5067
   89SAPS  C218 8619   5.178   2.509   8.516  0.3526 -0.0234 -0.0267
   89SAPS  H18R 8620   5.231   2.416   8.546  1.8071  0.3757 -1.2502
   89SAPS  H18S 8621   5.251   2.568   8.457 -1.9519  0.6078 -2.4353
   89SAPS  C219 8622   5.057   2.460   8.430  0.6394 -0.2512  0.6328
   89SAPS  H19R 8623   5.007   2.549   8.388 -0.9571 -1.0706  0.7281
   89SAPS  H19S 8624   4.978   2.416   8.494  0.0540 -0.3615 -0.1543
   89SAPS  C220 8625   5.107   2.359   8.313  1.0595  0.3028 -0.0584
   89SAPS  H20R 8626   5.023   2.319   8.252  1.6969  1.1327 -1.5370
   89SAPS  H20S 8627   5.159   2.272   8.358 -0.5699 -0.0855  1.1958
   89SAPS  H20T 8628   5.179   2.408   8.245 -1.6147 -1.0747 -4.3120
   89SAPS   C33 8629   5.771   2.326   9.905 -0.4770 -0.0952  0.3435
   89SAPS   H3X 8630   5.869   2.276   9.920  0.1559  1.1877  0.5991
   89SAPS   H3Y 8631   5.782   2.413   9.974  0.6071 -1.3979  1.9018
   89SAPS   C34 8632   5.750   2.383   9.765  0.3849 -1.3999  0.3116
   89SAPS   H4X 8633   5.849   2.419   9.731 -0.6224 -0.0105 -1.3474
   89SAPS   H4Y 8634   5.680   2.469   9.779  1.8981  0.1028 -0.8492
   89SAPS   C35 8635   5.688   2.286   9.661  0.0337  0.0190 -0.1925
   89SAPS   H5X 8636   5.578   2.298   9.673 -0.0906 -0.9227 -0.3469
   89SAPS   H5Y 8637   5.721   2.184   9.690 -0.5386  0.3158  1.6413
   89SAPS   C36 8638   5.703   2.315   9.514  0.3926 -0.3130 -0.4331
   89SAPS   H6X 8639   5.808   2.319   9.477 -0.2665 -0.9295 -2.5343
   89SAPS   H6Y 8640   5.660   2.417   9.502 -0.5522  0.2914  5.2929
   89SAPS   C37 8641   5.637   2.205   9.429 -0.6666 -1.6366 -1.2162
   89SAPS   H7X 8642   5.536   2.186   9.470  0.3403  0.9033  2.9937
   89SAPS   H7Y 8643   5.710   2.124   9.452  0.9196 -0.0999 -0.5634
   89SAPS   C38 8644   5.646   2.243   9.279 -0.1318 -0.2523 -0.3649
   89SAPS   H8X 8645   5.754   2.254   9.254  0.1709  0.8155  1.2983
   89SAPS   H8Y 8646   5.603   2.343   9.257  1.8457 -0.0520 -4.1646
   89SAPS   C39 8647   5.574   2.143   9.200  0.1386 -0.5047 -0.0314
   89SAPS   H9X 8648   5.464   2.152   9.213  0.2367 -0.6054  0.9980
   89SAPS   H9Y 8649   5.610   2.042   9.229  2.4144  0.9635  2.7488
   89SAPS  C310 8650   5.600   2.153   9.050  0.4274 -0.0099 -0.0990
   89SAPS  H10X 8651   5.520   2.098   8.997 -0.8237  1.0207  0.6735
   89SAPS  H10Y 8652   5.695   2.104   9.020 -1.3024 -1.8373 -3.1216
   89SAPS  C311 8653   5.591   2.292   8.990 -0.8769  0.0285 -0.1103
   89SAPS  H11X 8654   5.678   2.351   9.024 -1.3081  0.8592 -0.4084
   89SAPS  H11Y 8655   5.497   2.347   9.015 -0.2770  1.0807 -0.1196
   89SAPS  C312 8656   5.575   2.290   8.836  0.2284  0.7413 -0.1343
   89SAPS  H12X 8657   5.486   2.231   8.809  1.5319 -2.4889  1.9912
   89SAPS  H12Y 8658   5.662   2.236   8.793 -1.3999 -1.1189 -1.2090
   89SAPS  C313 8659   5.559   2.435   8.774  0.5305  0.6828 -0.3135
   89SAPS  H13X 8660   5.644   2.500   8.804 -0.6389  1.8409  0.6323
   89SAPS  H13Y 8661   5.476   2.473   8.838 -1.0957 -0.2820 -1.7515
   89SAPS  C314 8662   5.518   2.448   8.632 -0.0621 -0.4725  0.6899
   89SAPS  H14X 8663   5.511   2.558   8.614 -1.0320 -0.3933  1.4628
   89SAPS  H14Y 8664   5.421   2.396   8.622  0.4485 -1.3391  0.0941
   89SAPS  C315 8665   5.604   2.385   8.524  0.4675 -0.1739  0.1519
   89SAPS  H15X 8666   5.613   2.277   8.548 -2.5001  0.0861  3.1698
   89SAPS  H15Y 8667   5.702   2.433   8.503  1.6551 -2.2385  0.7671
   89SAPS  C316 8668   5.537   2.390   8.384  0.9766  0.0596 -0.2892
   89SAPS  H16X 8669   5.519   2.496   8.355  1.1092  0.6755  1.7105
   89SAPS  H16Y 8670   5.437   2.343   8.392  0.5545  0.9799  0.1015
   89SAPS  C317 8671   5.617   2.321   8.277  0.6345 -0.3730  0.7732
   89SAPS  H17X 8672   5.727   2.332   8.294  0.4742 -0.4412  1.8708
   89SAPS  H17Y 8673   5.589   2.366   8.179 -0.2771  2.0982  2.0703
   89SAPS  C318 8674   5.595   2.171   8.265 -0.0957 -0.1891  0.3518
   89SAPS  H18X 8675   5.605   2.127   8.367  1.1654  0.1684  0.3959
   89SAPS  H18Y 8676   5.670   2.118   8.203 -1.1728 -0.9465 -0.3318
   89SAPS  H18Z 8677   5.494   2.140   8.232 -1.5842  0.1982  4.0546
   90SAPS     N 8678   6.537   2.799  11.106  1.4108  0.2296 -0.3256
   90SAPS   HN1 8679   6.559   2.796  11.208 -0.1215 -1.7762  0.0221
   90SAPS   HN2 8680   6.525   2.900  11.084  2.3254  0.3651 -0.2385
   90SAPS   HN3 8681   6.447   2.752  11.085  2.4241 -2.8138  1.5090
   90SAPS   C12 8682   6.632   2.733  11.016  0.5679  0.0288  0.4575
   90SAPS  H12A 8683   6.718   2.798  11.010  0.2349  0.4298 -0.0591
   90SAPS   C13 8684   6.681   2.590  11.059  0.4453  0.3163  0.0476
   90SAPS  O13A 8685   6.630   2.535  11.163  0.2918  0.2609  0.4837
   90SAPS  O13B 8686   6.743   2.524  10.975  0.1049  0.6651 -0.1192
   90SAPS   C11 8687   6.566   2.724  10.873  0.9632 -0.3569  0.3245
   90SAPS  H11A 8688   6.476   2.661  10.888  0.6678 -0.0401 -0.0957
   90SAPS  H11B 8689   6.624   2.659  10.805 -1.2415  0.6990 -2.8240
   90SAPS     P 8690   6.450   2.868  10.686  0.2794  0.1432 -0.1137
   90SAPS   O13 8691   6.472   2.751  10.599  0.0209 -0.8922 -0.2169
   90SAPS   O14 8692   6.310   2.897  10.724  0.1631  0.8762  0.2001
   90SAPS   O12 8693   6.531   2.862  10.824  0.3662  0.4731 -0.0513
   90SAPS   O11 8694   6.528   2.988  10.621  0.0209 -0.7692 -0.2148
   90SAPS    C1 8695   6.670   3.004  10.639 -0.8476  0.1397  0.2143
   90SAPS    HA 8696   6.690   3.091  10.705  2.6941  0.0564 -0.5351
   90SAPS    HB 8697   6.712   2.923  10.703 -1.6209 -0.0979  0.4284
   90SAPS    C2 8698   6.753   3.006  10.504 -0.2302 -0.2375 -0.4928
   90SAPS    HS 8699   6.851   3.054  10.526  0.1305  0.0525 -2.5528
   90SAPS   O21 8700   6.695   3.082  10.392  0.1496  0.5499 -0.0694
   90SAPS   C21 8701   6.658   3.204  10.423  0.3252 -0.3359 -0.7513
   90SAPS   O22 8702   6.684   3.260  10.531  0.1965  0.2138  0.5153
   90SAPS   C22 8703   6.571   3.258  10.309  0.1767 -0.8104  0.1008
   90SAPS   H2R 8704   6.509   3.174  10.271  1.3689 -1.9748  0.6614
   90SAPS   H2S 8705   6.495   3.330  10.347 -0.0994  0.9877 -3.4212
   90SAPS    C3 8706   6.770   2.859  10.453  0.2178 -0.1244  0.4422
   90SAPS    HX 8707   6.668   2.815  10.453 -0.9838  2.4690 -0.2749
   90SAPS    HY 8708   6.841   2.801  10.517  0.4015 -1.2606 -0.7510
   90SAPS   O31 8709   6.824   2.859  10.318  0.1839  0.6168 -0.3340
   90SAPS   C31 8710   6.786   2.745  10.251  0.3812 -0.1866 -0.7304
   90SAPS   O32 8711   6.714   2.657  10.294  0.3952 -0.0017  0.0797
   90SAPS   C32 8712   6.839   2.770  10.113  0.9179 -0.2401  0.6828
   90SAPS   H2X 8713   6.948   2.759  10.131  0.8844  2.8960  3.6770
   90SAPS   H2Y 8714   6.816   2.870  10.071  0.0483 -0.9736 -0.6647
   90SAPS   C23 8715   6.640   3.339  10.199 -1.2642 -0.4041  0.2939
   90SAPS   H3R 8716   6.687   3.425  10.252 -1.5912  0.5164 -0.8814
   90SAPS   H3S 8717   6.566   3.371  10.124 -2.3549 -1.0871  1.0542
   90SAPS   C24 8718   6.751   3.256  10.129 -0.0959  0.3531  0.6429
   90SAPS   H4R 8719   6.830   3.205  10.188 -0.3075 -0.4294  0.2634
   90SAPS   H4S 8720   6.806   3.321  10.057 -2.2070 -0.8953 -2.3281
   90SAPS   C25 8721   6.674   3.148  10.053 -0.1245 -0.2161 -0.3103
   90SAPS   H5R 8722   6.626   3.066  10.109  0.4798 -0.5341 -0.2479
   90SAPS   C26 8723   6.667   3.133   9.917 -0.9007  0.5960 -0.5863
   90SAPS   H6R 8724   6.607   3.047   9.885  1.5095 -0.8553 -1.4542
   90SAPS   C27 8725   6.718   3.222   9.808 -0.6914  0.5102 -0.3116
   90SAPS   H7R 8726   6.700   3.327   9.841 -1.6977 -0.4594  2.5613
   90SAPS   H7S 8727   6.651   3.211   9.720  0.8875  1.6664 -1.7206
   90SAPS   C28 8728   6.866   3.191   9.782 -0.3062  0.6096 -0.9192
   90SAPS   H8R 8729   6.939   3.213   9.861 -1.3164 -1.2065  0.5991
   90SAPS   C29 8730   6.917   3.134   9.672  0.1678  0.2597  0.7002
   90SAPS   H9R 8731   7.027   3.125   9.665  0.5181  4.2109 -3.1165
   90SAPS  C210 8732   6.844   3.099   9.547  0.0121  1.1443 -0.2045
   90SAPS  H10R 8733   6.753   3.041   9.574  1.8395 -2.8062 -1.7301
   90SAPS  H10S 8734   6.892   3.025   9.479 -0.0877 -0.8670  1.7747
   90SAPS  C211 8735   6.813   3.223   9.469  0.7674 -0.3193  0.0510
   90SAPS  H11R 8736   6.863   3.317   9.493 -1.5109  0.5228  1.8459
   90SAPS  C212 8737   6.720   3.237   9.371 -0.1237 -0.4451  0.8230
   90SAPS  H12R 8738   6.690   3.338   9.339 -0.2934 -0.0975  2.0324
   90SAPS  C213 8739   6.626   3.130   9.314  0.2773 -0.0966  0.4266
   90SAPS  H13R 8740   6.526   3.177   9.306 -0.1213 -0.6374  1.8240
   90SAPS  H13S 8741   6.608   3.046   9.386 -1.0748  0.0981  0.3406
   90SAPS  C214 8742   6.677   3.075   9.179  0.7981  0.3680  0.6077
   90SAPS  H14R 8743   6.712   2.971   9.180  1.6543  0.5630 -1.8943
   90SAPS  C215 8744   6.676   3.129   9.056 -0.0873 -0.2491  0.2687
   90SAPS  H15R 8745   6.720   3.079   8.968 -2.6992  2.0095 -2.5189
   90SAPS  C216 8746   6.641   3.269   9.018 -0.5119 -1.3621 -0.0324
   90SAPS  H16R 8747   6.721   3.342   9.041  1.1729 -3.0812 -0.1692
   90SAPS  H16S 8748   6.556   3.300   9.082 -0.2239  0.1959 -0.3719
   90SAPS  C217 8749   6.566   3.290   8.884  0.1482 -0.5590  0.0212
   90SAPS  H17R 8750   6.512   3.387   8.887 -0.7440 -0.7186 -4.0883
   90SAPS  H17S 8751   6.491   3.214   8.854 -1.9044  1.6119 -0.5851
   90SAPS  C218 8752   6.675   3.283   8.771  0.1675  0.7349  0.2861
   90SAPS  H18R 8753   6.680   3.177   8.739 -0.4743  0.3877  1.3007
   90SAPS  H18S 8754   6.773   3.319   8.809 -0.6238  2.2146  1.0239
   90SAPS  C219 8755   6.636   3.353   8.639  0.1835  0.3708 -0.1916
   90SAPS  H19R 8756   6.595   3.456   8.649  0.1509  0.4182 -0.8108
   90SAPS  H19S 8757   6.552   3.293   8.599 -0.3795  0.3003  1.0588
   90SAPS  C220 8758   6.754   3.341   8.542  0.0055 -0.1890 -0.9543
   90SAPS  H20R 8759   6.755   3.414   8.458 -1.2179  0.5990 -0.3125
   90SAPS  H20S 8760   6.774   3.239   8.504  0.2003 -1.3416  2.0004
   90SAPS  H20T 8761   6.849   3.367   8.593 -1.5980  1.2512  1.5049
   90SAPS   C33 8762   6.754   2.686  10.006  0.3316 -0.2659 -0.0925
   90SAPS   H3X 8763   6.647   2.690  10.034 -0.0233 -0.0316 -1.4345
   90SAPS   H3Y 8764   6.772   2.577  10.018  0.6203 -0.1235  0.8907
   90SAPS   C34 8765   6.771   2.738   9.869  0.1425  0.3583 -0.3033
   90SAPS   H4X 8766   6.877   2.722   9.841  0.8770  3.6075  0.2517
   90SAPS   H4Y 8767   6.747   2.847   9.867 -1.4812  0.0832  1.4079
   90SAPS   C35 8768   6.672   2.666   9.769 -0.2758 -0.7253 -0.4347
   90SAPS   H5X 8769   6.569   2.705   9.784 -0.1522 -0.7629  0.6528
   90SAPS   H5Y 8770   6.673   2.556   9.780  0.4939 -0.7651 -0.8869
   90SAPS   C36 8771   6.717   2.691   9.629  0.3623  0.8700  0.3700
   90SAPS   H6X 8772   6.821   2.656   9.607 -0.1022  0.6554 -1.6722
   90SAPS   H6Y 8773   6.717   2.801   9.613 -1.0560  0.7961 -0.2425
   90SAPS   C37 8774   6.627   2.617   9.525  0.0865  0.1084 -0.0461
   90SAPS   H7X 8775   6.531   2.671   9.536 -0.2321 -0.2270 -1.0590
   90SAPS   H7Y 8776   6.618   2.508   9.548  3.2806 -0.3208 -0.4055
   90SAPS   C38 8777   6.653   2.642   9.375 -0.1603 -0.3071 -0.4381
   90SAPS   H8X 8778   6.740   2.574   9.359 -1.0446 -1.6968  0.4102
   90SAPS   H8Y 8779   6.695   2.742   9.353  0.3539 -0.8172 -1.8853
   90SAPS   C39 8780   6.550   2.590   9.274  0.4542  0.3740  0.3938
   90SAPS   H9X 8781   6.575   2.627   9.172 -1.1549  0.3331 -0.0552
   90SAPS   H9Y 8782   6.447   2.628   9.294 -0.9509 -2.6143 -0.5038
   90SAPS  C310 8783   6.530   2.442   9.282 -0.1895 -0.0752  0.5995
   90SAPS  H10X 8784   6.450   2.423   9.357 -1.0789 -2.4639 -0.8549
   90SAPS  H10Y 8785   6.612   2.383   9.328  0.4037 -0.3777 -0.7929
   90SAPS  C311 8786   6.498   2.381   9.142 -0.0747  0.3305  0.1515
   90SAPS  H11X 8787   6.592   2.395   9.085 -0.0220  0.0043  0.1575
   90SAPS  H11Y 8788   6.418   2.449   9.106 -0.2767 -0.4004 -0.8504
   90SAPS  C312 8789   6.447   2.238   9.144  0.0608 -0.2967  0.2239
   90SAPS  H12X 8790   6.348   2.236   9.194 -1.5441  2.9591 -2.4436
   90SAPS  H12Y 8791   6.522   2.168   9.186 -0.1885 -1.1263 -0.6655
   90SAPS  C313 8792   6.444   2.176   9.003  0.6593 -0.1841 -0.3996
   90SAPS  H13X 8793   6.402   2.245   8.927  1.8199  0.1889 -0.7215
   90SAPS  H13Y 8794   6.379   2.086   9.004 -0.0101  0.2129 -2.6916
   90SAPS  C314 8795   6.582   2.125   8.957 -0.0191  0.0218  0.0947
   90SAPS  H14X 8796   6.611   2.031   9.008  1.7057  0.2250 -0.4674
   90SAPS  H14Y 8797   6.664   2.197   8.973  0.4625 -0.5886  0.4139
   90SAPS  C315 8798   6.577   2.087   8.809  0.4080 -0.1001 -0.3374
   90SAPS  H15X 8799   6.577   2.183   8.752  1.6933  0.2725  0.2546
   90SAPS  H15Y 8800   6.483   2.031   8.791  0.3485 -0.2346  0.3757
   90SAPS  C316 8801   6.704   2.013   8.759  0.2254 -0.0064 -0.1128
   90SAPS  H16X 8802   6.785   2.059   8.819  0.6834 -1.5696  0.5188
   90SAPS  H16Y 8803   6.720   2.035   8.651  2.5711 -2.0824 -0.2837
   90SAPS  C317 8804   6.694   1.868   8.777 -0.5589  0.8265  0.2887
   90SAPS  H17X 8805   6.605   1.831   8.723  0.1714  0.3104 -0.6047
   90SAPS  H17Y 8806   6.691   1.835   8.883  2.0696 -1.4762 -0.2047
   90SAPS  C318 8807   6.814   1.788   8.704  0.4117 -0.3464  0.8023
   90SAPS  H18X 8808   6.800   1.678   8.717  0.5199 -0.5656 -0.7233
   90SAPS  H18Y 8809   6.917   1.808   8.740  1.3449 -0.2054 -1.7294
   90SAPS  H18Z 8810   6.802   1.813   8.597 -1.2976 -1.7523  0.6196
   91SAPS     N 8811   0.748   6.247   5.950 -0.2613 -0.1235  0.2527
   91SAPS   HN1 8812   0.786   6.152   5.934  0.1499  0.2371 -1.0072
   91SAPS   HN2 8813   0.790   6.278   6.040  1.5701 -0.4000 -0.4552
   91SAPS   HN3 8814   0.645   6.231   5.952 -0.3055 -0.0511 -0.9318
   91SAPS   C12 8815   0.774   6.352   5.847  0.6456 -0.0251  0.0463
   91SAPS  H12A 8816   0.866   6.327   5.796  1.6044  2.9877  0.1026
   91SAPS   C13 8817   0.669   6.351   5.735  0.8462  0.5290 -0.4520
   91SAPS  O13A 8818   0.573   6.266   5.733  0.4551  0.5980  0.0177
   91SAPS  O13B 8819   0.687   6.412   5.630 -0.2915 -0.2887  0.1684
   91SAPS   C11 8820   0.774   6.497   5.923  0.3431 -0.1281 -0.2754
   91SAPS  H11A 8821   0.669   6.519   5.950  0.9850  0.7376  1.7370
   91SAPS  H11B 8822   0.793   6.579   5.851  0.0883  0.8607  0.7586
   91SAPS     P 8823   0.848   6.621   6.139  0.0957  0.2485 -0.4346
   91SAPS   O13 8824   0.942   6.602   6.245 -0.1841 -0.0416 -0.2674
   91SAPS   O14 8825   0.861   6.747   6.064  0.0743 -0.0321 -0.1329
   91SAPS   O12 8826   0.858   6.505   6.035  0.2333 -0.4383  0.3047
   91SAPS   O11 8827   0.712   6.610   6.212  0.3402  0.0494 -0.4266
   91SAPS    C1 8828   0.649   6.495   6.266  0.4692  0.1457  0.5208
   91SAPS    HA 8829   0.607   6.432   6.184  1.4229  0.5386 -0.2879
   91SAPS    HB 8830   0.726   6.433   6.316 -0.5651 -1.7157 -0.0847
   91SAPS    C2 8831   0.545   6.533   6.376 -0.1629 -0.3862 -0.0750
   91SAPS    HS 8832   0.486   6.622   6.345  1.1684  1.4956  2.4140
   91SAPS   O21 8833   0.618   6.560   6.493  0.1711 -0.5219  0.2085
   91SAPS   C21 8834   0.562   6.642   6.579 -0.1358 -0.0713 -0.4031
   91SAPS   O22 8835   0.467   6.718   6.562  0.6143  0.5220  0.5917
   91SAPS   C22 8836   0.628   6.620   6.711 -0.3460 -0.1217 -0.9905
   91SAPS   H2R 8837   0.722   6.563   6.705 -1.0382 -1.2667 -1.2763
   91SAPS   H2S 8838   0.659   6.721   6.746  1.7026 -0.7385 -0.9014
   91SAPS    C3 8839   0.447   6.410   6.409  0.4419  0.3827 -0.9527
   91SAPS    HX 8840   0.509   6.317   6.401 -0.7189 -0.4836 -0.2208
   91SAPS    HY 8841   0.383   6.390   6.321 -2.0102  0.4038  0.7409
   91SAPS   O31 8842   0.369   6.412   6.532 -0.8608 -0.0487 -0.8520
   91SAPS   C31 8843   0.255   6.478   6.524  0.5599  1.2555 -0.6238
   91SAPS   O32 8844   0.219   6.553   6.434  0.0222  0.5154 -0.4820
   91SAPS   C32 8845   0.166   6.431   6.638 -0.7421  0.6172  0.0807
   91SAPS   H2X 8846   0.230   6.390   6.720  0.1626  0.8863 -0.4784
   91SAPS   H2Y 8847   0.098   6.351   6.604 -2.0941  1.5801  0.4682
   91SAPS   C23 8848   0.523   6.547   6.804 -0.3566 -0.3024 -0.1199
   91SAPS   H3R 8849   0.510   6.441   6.774 -0.9775 -0.8077  1.8174
   91SAPS   H3S 8850   0.423   6.595   6.799 -0.8220 -1.3577 -1.6175
   91SAPS   C24 8851   0.582   6.551   6.945 -0.5815  0.2998  0.0048
   91SAPS   H4R 8852   0.501   6.512   7.010 -1.6229  1.1427 -0.7455
   91SAPS   H4S 8853   0.613   6.652   6.979 -0.4267 -0.5454  2.5338
   91SAPS   C25 8854   0.684   6.441   6.961  0.5151  0.3267  0.8617
   91SAPS   H5R 8855   0.652   6.348   6.913 -1.5988  1.1257  0.6019
   91SAPS   C26 8856   0.812   6.448   6.993  0.1042 -0.7157 -0.0266
   91SAPS   H6R 8857   0.875   6.358   6.988 -0.4129 -1.0352 -3.2584
   91SAPS   C27 8858   0.880   6.577   7.030 -0.3018 -0.0942 -0.2939
   91SAPS   H7R 8859   0.823   6.656   7.083 -0.5196  0.6321 -1.5807
   91SAPS   H7S 8860   0.886   6.618   6.927 -1.5801  0.6309 -0.1042
   91SAPS   C28 8861   1.021   6.556   7.083  0.5614 -0.1833 -0.6093
   91SAPS   H8R 8862   1.097   6.538   7.006 -0.2633  1.3019 -1.8132
   91SAPS   C29 8863   1.052   6.524   7.216  0.0429  0.1365 -0.2965
   91SAPS   H9R 8864   1.154   6.499   7.248  0.3555  1.0195 -0.5770
   91SAPS  C210 8865   0.959   6.518   7.332 -0.1864 -0.1865  0.1740
   91SAPS  H10R 8866   0.972   6.420   7.383 -3.2069  0.0408  1.6486
   91SAPS  H10S 8867   0.854   6.514   7.295  0.9011 -1.3413 -3.1679
   91SAPS  C211 8868   0.998   6.622   7.442  1.0044 -0.6924  0.1078
   91SAPS  H11R 8869   1.034   6.718   7.402 -1.1331  1.0305  2.0494
   91SAPS  C212 8870   0.966   6.626   7.571  1.0296  0.2919  0.9472
   91SAPS  H12R 8871   1.007   6.697   7.644  0.8856  0.6889  0.6458
   91SAPS  C213 8872   0.889   6.507   7.633  0.7335  0.0697  0.3827
   91SAPS  H13R 8873   0.945   6.482   7.726  1.7145  1.7142  0.2840
   91SAPS  H13S 8874   0.881   6.418   7.568  0.5768  0.9423 -0.8204
   91SAPS  C214 8875   0.747   6.549   7.658  0.5266  0.4639 -0.0283
   91SAPS  H14R 8876   0.687   6.568   7.568 -1.3469 -3.6119  0.1330
   91SAPS  C215 8877   0.688   6.542   7.776  1.4041  0.5138 -1.2280
   91SAPS  H15R 8878   0.581   6.569   7.778  0.9956 -0.8802 -2.4312
   91SAPS  C216 8879   0.742   6.489   7.905  0.4958  0.4186  0.4888
   91SAPS  H16R 8880   0.817   6.410   7.880  0.3368 -0.1632  1.7598
   91SAPS  H16S 8881   0.657   6.441   7.959  0.4752 -0.2173 -0.0838
   91SAPS  C217 8882   0.790   6.600   7.999 -0.0929 -0.5762 -0.6549
   91SAPS  H17R 8883   0.876   6.652   7.953  1.7530 -1.2904  1.7977
   91SAPS  H17S 8884   0.835   6.554   8.090 -1.0612  1.9436  1.2110
   91SAPS  C218 8885   0.683   6.698   8.043  1.0073 -0.4790 -0.0008
   91SAPS  H18R 8886   0.631   6.739   7.954  1.4015  1.4934  0.6285
   91SAPS  H18S 8887   0.728   6.779   8.104  1.9474 -1.6856  0.9566
   91SAPS  C219 8888   0.575   6.623   8.123 -0.3115  0.0632  0.2530
   91SAPS  H19R 8889   0.626   6.553   8.193 -0.3802  1.2116  1.4894
   91SAPS  H19S 8890   0.523   6.549   8.059  1.4168 -1.9990  1.1250
   91SAPS  C220 8891   0.475   6.709   8.197  0.3595  0.4543 -0.1189
   91SAPS  H20R 8892   0.516   6.792   8.258 -2.2109  2.1188 -0.5179
   91SAPS  H20S 8893   0.418   6.642   8.265  2.1599 -0.9493  0.1193
   91SAPS  H20T 8894   0.408   6.755   8.121 -0.9485  1.4689  1.5932
   91SAPS   C33 8895   0.060   6.535   6.683  0.3241 -0.7014  0.0061
   91SAPS   H3X 8896  -0.029   6.488   6.730  0.4537 -0.9937 -0.0363
   91SAPS   H3Y 8897   0.022   6.579   6.588  1.2541  0.7235  0.2783
   91SAPS   C34 8898   0.119   6.650   6.769  0.2894 -0.2332  0.2740
   91SAPS   H4X 8899   0.044   6.730   6.789  0.4710 -0.2146  0.9159
   91SAPS   H4Y 8900   0.207   6.690   6.713 -0.1709  0.7779  0.2494
   91SAPS   C35 8901   0.150   6.599   6.913  0.2380  0.2275  0.3516
   91SAPS   H5X 8902   0.235   6.654   6.959 -0.8061  0.4304  2.1235
   91SAPS   H5Y 8903   0.174   6.493   6.893 -2.8146  0.1400 -4.5038
   91SAPS   C36 8904   0.041   6.598   7.016 -0.8708  0.0543  0.1820
   91SAPS   H6X 8905  -0.051   6.546   6.981 -0.8226 -0.2383  0.4878
   91SAPS   H6Y 8906   0.012   6.701   7.048  0.1557  0.1513  0.8359
   91SAPS   C37 8907   0.068   6.522   7.139  0.4467 -0.0518 -0.4141
   91SAPS   H7X 8908   0.168   6.548   7.180  0.4380  1.8345 -1.4966
   91SAPS   H7Y 8909   0.064   6.416   7.108  2.2398 -0.1086 -0.5558
   91SAPS   C38 8910  -0.036   6.556   7.249  0.3391 -0.8917  0.2337
   91SAPS   H8X 8911  -0.134   6.546   7.197  1.2459  1.1727 -2.1254
   91SAPS   H8Y 8912  -0.025   6.662   7.281 -0.0308 -0.9263  0.4776
   91SAPS   C39 8913  -0.031   6.450   7.362  0.3742 -1.1018 -0.5530
   91SAPS   H9X 8914   0.069   6.468   7.407  0.9005  0.1040 -2.1238
   91SAPS   H9Y 8915  -0.033   6.351   7.312 -3.3453 -0.6888 -1.5664
   91SAPS  C310 8916  -0.153   6.460   7.454 -0.2853 -0.1850 -0.2751
   91SAPS  H10X 8917  -0.242   6.411   7.408 -1.7002  1.0561  0.9880
   91SAPS  H10Y 8918  -0.183   6.567   7.466 -0.7673 -0.3271 -0.1657
   91SAPS  C311 8919  -0.130   6.383   7.582 -1.4313  0.0151 -0.7274
   91SAPS  H11X 8920  -0.056   6.449   7.633 -0.1940 -1.1782 -0.9050
   91SAPS  H11Y 8921  -0.075   6.287   7.569 -1.4914 -0.6681  2.9250
   91SAPS  C312 8922  -0.259   6.356   7.655 -0.2535 -0.5102 -0.3828
   91SAPS  H12X 8923  -0.296   6.265   7.602  0.1613 -0.6117 -0.5049
   91SAPS  H12Y 8924  -0.328   6.442   7.661  1.7984  1.1346  0.9885
   91SAPS  C313 8925  -0.236   6.318   7.804  0.3504  0.0831  0.1023
   91SAPS  H13X 8926  -0.331   6.279   7.846  0.4948 -0.0258  0.3289
   91SAPS  H13Y 8927  -0.207   6.404   7.868 -2.2795  0.2605  1.1774
   91SAPS  C314 8928  -0.120   6.215   7.823  0.6389  0.0745 -0.1662
   91SAPS  H14X 8929  -0.023   6.270   7.819  2.6764 -3.2411 -0.4984
   91SAPS  H14Y 8930  -0.121   6.135   7.745  2.5459  1.3891 -1.6380
   91SAPS  C315 8931  -0.126   6.152   7.959  0.1707  0.3012 -0.5821
   91SAPS  H15X 8932  -0.212   6.083   7.968  0.7512 -0.6894 -2.1342
   91SAPS  H15Y 8933  -0.146   6.227   8.038 -2.4089 -1.9812  1.0997
   91SAPS  C316 8934   0.003   6.067   8.004 -0.1464  1.1217  0.7949
   91SAPS  H16X 8935  -0.023   6.035   8.107 -2.6458  0.5478  0.0801
   91SAPS  H16Y 8936   0.092   6.133   8.004  0.5194  0.3331 -1.7979
   91SAPS  C317 8937   0.059   5.945   7.922  0.0396  0.4060 -1.3454
   91SAPS  H17X 8938   0.124   5.888   7.991 -2.0509 -0.0511  0.3648
   91SAPS  H17Y 8939   0.117   5.970   7.830  0.4670  0.6304 -1.0167
   91SAPS  C318 8940  -0.055   5.846   7.876 -0.2541  0.2586 -0.2105
   91SAPS  H18X 8941  -0.132   5.816   7.950 -1.1916 -0.2663 -1.3556
   91SAPS  H18Y 8942  -0.005   5.750   7.848  1.8121  0.6761  1.7681
   91SAPS  H18Z 8943  -0.102   5.893   7.787 -1.7051  1.3137  1.0543
   92SAPS     N 8944   6.366   4.250   6.291 -0.3387  0.2978  0.2397
   92SAPS   HN1 8945   6.269   4.284   6.308 -0.3315 -0.1887  1.3555
   92SAPS   HN2 8946   6.411   4.222   6.381 -0.9638  0.7640  0.7096
   92SAPS   HN3 8947   6.417   4.329   6.247  0.8390 -0.3649  0.3712
   92SAPS   C12 8948   6.371   4.138   6.184 -0.2150 -0.3182 -0.2758
   92SAPS  H12A 8949   6.302   4.062   6.217 -0.0383 -0.1636  0.4564
   92SAPS   C13 8950   6.325   4.181   6.045  0.2851 -0.3997 -0.0383
   92SAPS  O13A 8951   6.308   4.305   6.027 -0.1405  0.4325  0.4432
   92SAPS  O13B 8952   6.315   4.100   5.953 -0.2734  0.6094  0.1264
   92SAPS   C11 8953   6.516   4.078   6.175  0.1574  0.2936  0.7502
   92SAPS  H11A 8954   6.588   4.156   6.144  0.4736  0.9339  2.8961
   92SAPS  H11B 8955   6.513   3.997   6.099 -1.1573 -0.3547  1.4580
   92SAPS     P 8956   6.649   4.077   6.410  0.3922 -0.3312  0.3465
   92SAPS   O13 8957   6.783   4.096   6.357 -0.4427  0.2445  0.0909
   92SAPS   O14 8958   6.583   4.198   6.450  0.3480  0.4904  0.0764
   92SAPS   O12 8959   6.562   4.009   6.294 -0.6412  0.2449 -0.0514
   92SAPS   O11 8960   6.650   3.965   6.522  0.2829 -0.1054 -0.2298
   92SAPS    C1 8961   6.564   3.995   6.634  0.2951  0.1435  0.5810
   92SAPS    HA 8962   6.584   4.083   6.699 -0.2993  0.8437 -0.1707
   92SAPS    HB 8963   6.457   3.998   6.605  1.1594  0.8897 -3.0675
   92SAPS    C2 8964   6.568   3.874   6.728  0.8694 -0.5999  0.2226
   92SAPS    HS 8965   6.476   3.881   6.789 -0.4794 -0.5103 -1.7328
   92SAPS   O21 8966   6.684   3.886   6.811  0.6913 -0.9814  0.2192
   92SAPS   C21 8967   6.662   3.971   6.918  0.7335 -0.4918  0.5055
   92SAPS   O22 8968   6.565   4.030   6.946  0.5952 -0.6622 -0.6261
   92SAPS   C22 8969   6.793   3.989   6.993  0.1586 -0.2236  0.4131
   92SAPS   H2R 8970   6.809   3.905   7.065  0.0076 -0.9642 -0.3980
   92SAPS   H2S 8971   6.866   3.990   6.909  0.7474 -0.2761  0.9147
   92SAPS    C3 8972   6.570   3.739   6.656 -0.3532 -0.9068 -0.2381
   92SAPS    HX 8973   6.672   3.725   6.614 -0.6563 -0.9344 -0.9695
   92SAPS    HY 8974   6.502   3.745   6.568 -1.2117 -0.4678  0.4392
   92SAPS   O31 8975   6.531   3.625   6.745 -0.1099  0.4859 -0.1029
   92SAPS   C31 8976   6.538   3.517   6.669  0.1963  0.0732  0.0213
   92SAPS   O32 8977   6.555   3.517   6.545  0.6116  0.2109  0.1503
   92SAPS   C32 8978   6.564   3.396   6.765 -0.6965  0.4217 -0.0843
   92SAPS   H2X 8979   6.643   3.418   6.840 -0.0397 -0.7911 -0.4026
   92SAPS   H2Y 8980   6.591   3.303   6.711 -0.4804  0.1528  0.4826
   92SAPS   C23 8981   6.808   4.128   7.069 -0.1678 -0.6270  0.8604
   92SAPS   H3R 8982   6.760   4.116   7.168 -0.5413 -0.7258  0.6658
   92SAPS   H3S 8983   6.757   4.213   7.018  0.9570  0.5038  1.5438
   92SAPS   C24 8984   6.963   4.157   7.085 -0.2825  0.2720 -0.0487
   92SAPS   H4R 8985   7.016   4.172   6.988  2.1117 -1.5289  0.8611
   92SAPS   H4S 8986   6.997   4.062   7.130 -1.2407 -0.8818 -1.6544
   92SAPS   C25 8987   6.997   4.270   7.175  0.1991 -0.3543 -0.1221
   92SAPS   H5R 8988   6.998   4.364   7.117  1.7736 -0.5498 -0.4486
   92SAPS   C26 8989   7.031   4.274   7.306  0.3085 -0.9390 -0.6280
   92SAPS   H6R 8990   7.047   4.374   7.348  1.0656 -0.0940 -2.7826
   92SAPS   C27 8991   7.034   4.169   7.415 -0.5454  0.5905  0.0890
   92SAPS   H7R 8992   6.988   4.072   7.388  0.4939  0.0507  0.2046
   92SAPS   H7S 8993   6.971   4.205   7.500 -0.6404  1.0363 -0.1677
   92SAPS   C28 8994   7.169   4.146   7.481  0.4050  0.4266  0.7168
   92SAPS   H8R 8995   7.249   4.131   7.407  0.4015  2.1401  0.3093
   92SAPS   C29 8996   7.207   4.146   7.611  0.3023 -0.6276 -0.3571
   92SAPS   H9R 8997   7.315   4.146   7.629  0.6523  0.7296 -2.2374
   92SAPS  C210 8998   7.113   4.170   7.726  0.0235 -0.1191  0.3111
   92SAPS  H10R 8999   7.030   4.095   7.728  0.0533 -0.1771  2.6648
   92SAPS  H10S 9000   7.047   4.258   7.706 -0.1223 -0.2969 -0.0021
   92SAPS  C211 9001   7.177   4.176   7.866  0.4268  0.1331  0.7068
   92SAPS  H11R 9002   7.286   4.191   7.866  0.4177  0.3426  1.8088
   92SAPS  C212 9003   7.116   4.153   7.988 -0.9559 -0.2595  0.4445
   92SAPS  H12R 9004   7.181   4.160   8.076 -0.1016 -0.0940 -0.1871
   92SAPS  C213 9005   6.973   4.131   8.012  0.9663 -0.2830  0.0369
   92SAPS  H13R 9006   6.935   4.062   7.933  2.6048 -2.3869  0.9815
   92SAPS  H13S 9007   6.918   4.226   8.000  1.4311  0.2829  2.0878
   92SAPS  C214 9008   6.922   4.066   8.136 -0.2768 -0.3989  0.6305
   92SAPS  H14R 9009   6.929   3.958   8.121  0.9526  0.1234 -4.4584
   92SAPS  C215 9010   6.898   4.120   8.253 -0.5920  0.2045  0.8684
   92SAPS  H15R 9011   6.859   4.053   8.331 -2.2827 -0.8943 -0.8670
   92SAPS  C216 9012   6.901   4.270   8.282  0.9211  0.5614 -0.2115
   92SAPS  H16R 9013   6.880   4.322   8.186  1.3388  0.2624 -0.4661
   92SAPS  H16S 9014   6.998   4.295   8.332  0.0896 -1.2205  2.5314
   92SAPS  C217 9015   6.779   4.310   8.376 -0.2455 -0.0120 -0.3633
   92SAPS  H17R 9016   6.778   4.245   8.466  0.9644  0.0626 -0.2712
   92SAPS  H17S 9017   6.681   4.292   8.328 -0.7620 -1.7063  1.2108
   92SAPS  C218 9018   6.801   4.452   8.417  0.1843  0.2217 -0.1539
   92SAPS  H18R 9019   6.785   4.513   8.325 -0.0981  0.4264  0.0269
   92SAPS  H18S 9020   6.907   4.477   8.439  0.0368  1.8195 -1.0948
   92SAPS  C219 9021   6.705   4.499   8.526  0.5177  0.3513  0.4061
   92SAPS  H19R 9022   6.713   4.607   8.547 -0.5163  0.8423 -1.5124
   92SAPS  H19S 9023   6.721   4.442   8.620 -2.3016 -2.1167 -0.4340
   92SAPS  C220 9024   6.562   4.463   8.480  0.2697  0.0891 -0.3398
   92SAPS  H20R 9025   6.550   4.465   8.370  0.3886 -0.3048 -0.3603
   92SAPS  H20S 9026   6.490   4.520   8.543  1.6467  0.9211  0.5540
   92SAPS  H20T 9027   6.551   4.358   8.513  2.8225 -0.7412 -1.8533
   92SAPS   C33 9028   6.434   3.368   6.846 -0.3732 -1.0373  0.3579
   92SAPS   H3X 9029   6.360   3.345   6.766  0.4943 -1.0296 -0.4611
   92SAPS   H3Y 9030   6.421   3.459   6.909  0.0318 -2.1841  2.1781
   92SAPS   C34 9031   6.445   3.256   6.946  0.7706 -0.4570  0.1855
   92SAPS   H4X 9032   6.495   3.297   7.037  1.3585 -2.3959  0.7990
   92SAPS   H4Y 9033   6.492   3.171   6.893  0.0893 -0.5544 -0.2782
   92SAPS   C35 9034   6.306   3.206   6.990  0.2251  0.4425 -0.4985
   92SAPS   H5X 9035   6.259   3.184   6.891  0.9289  1.0197 -0.9657
   92SAPS   H5Y 9036   6.253   3.295   7.030  1.1367  1.7454 -2.0847
   92SAPS   C36 9037   6.299   3.096   7.098 -0.2028 -0.3335  0.7661
   92SAPS   H6X 9038   6.336   3.143   7.192  0.1793  0.3622  0.2752
   92SAPS   H6Y 9039   6.357   3.010   7.059  0.0472  1.3717 -3.0671
   92SAPS   C37 9040   6.154   3.069   7.133  0.3685 -0.1682 -0.3013
   92SAPS   H7X 9041   6.118   3.035   7.033  3.6544  1.3522 -2.1843
   92SAPS   H7Y 9042   6.096   3.162   7.147  0.4677 -0.1249 -0.1733
   92SAPS   C38 9043   6.135   2.976   7.253 -0.0754  0.2788 -0.4572
   92SAPS   H8X 9044   6.189   2.880   7.239  0.9009  0.9134 -1.1850
   92SAPS   H8Y 9045   6.027   2.952   7.260  0.0371 -0.0611  0.1756
   92SAPS   C39 9046   6.161   3.052   7.385  0.2721 -0.0093  0.1282
   92SAPS   H9X 9047   6.117   3.152   7.399  2.5962  0.8305  2.4289
   92SAPS   H9Y 9048   6.272   3.062   7.379  0.4513 -1.4250  0.6439
   92SAPS  C310 9049   6.110   2.967   7.503  0.5775 -1.3077 -0.0204
   92SAPS  H10X 9050   6.083   2.864   7.472  1.3693 -1.6532  0.4086
   92SAPS  H10Y 9051   6.018   3.009   7.550  0.3818 -0.1968 -1.3294
   92SAPS  C311 9052   6.220   2.958   7.606  0.1216  0.4374 -0.1841
   92SAPS  H11X 9053   6.239   3.057   7.652  1.1045  0.3331 -0.3544
   92SAPS  H11Y 9054   6.316   2.925   7.561  0.5944  0.6439  0.6499
   92SAPS  C312 9055   6.191   2.867   7.728  0.2351  0.6905 -0.4495
   92SAPS  H12X 9056   6.182   2.758   7.708  1.0064  0.4435  0.5138
   92SAPS  H12Y 9057   6.093   2.893   7.775  1.6965  0.6863  2.8510
   92SAPS  C313 9058   6.298   2.883   7.836  0.0174 -0.6549  0.1152
   92SAPS  H13X 9059   6.275   2.975   7.894 -1.2721  0.4795 -2.0639
   92SAPS  H13Y 9060   6.396   2.895   7.784 -0.6375 -1.2134 -1.2827
   92SAPS  C314 9061   6.296   2.757   7.933 -0.4142 -0.5634 -0.0605
   92SAPS  H14X 9062   6.368   2.773   8.016  0.4767  1.1772 -1.1159
   92SAPS  H14Y 9063   6.325   2.664   7.880  0.9373 -0.1282 -0.1297
   92SAPS  C315 9064   6.153   2.737   7.998 -0.1089  0.4545 -0.6120
   92SAPS  H15X 9065   6.096   2.696   7.912  0.3246  0.7060 -1.0232
   92SAPS  H15Y 9066   6.103   2.828   8.037 -2.3958 -1.6663  1.8476
   92SAPS  C316 9067   6.149   2.638   8.119 -0.0203  0.0685 -0.0218
   92SAPS  H16X 9068   6.137   2.694   8.214 -1.2939 -0.0235 -0.1124
   92SAPS  H16Y 9069   6.242   2.577   8.123 -1.2158 -1.7959  0.2590
   92SAPS  C317 9070   6.029   2.549   8.103 -0.1688 -0.6089  0.2170
   92SAPS  H17X 9071   6.050   2.469   8.028  1.3223 -0.0037 -0.0551
   92SAPS  H17Y 9072   5.936   2.597   8.066 -2.1791 -3.2498  1.4842
   92SAPS  C318 9073   5.990   2.482   8.242 -0.6329 -0.3930 -0.4367
   92SAPS  H18X 9074   5.896   2.423   8.235 -1.5119  1.0815 -2.0868
   92SAPS  H18Y 9075   5.985   2.566   8.315 -1.7609 -0.0160 -0.9208
   92SAPS  H18Z 9076   6.072   2.411   8.266  0.1524 -0.0434 -1.9516
   93SAPS     N 9077   6.653   4.471   6.476  0.0652  0.1059  0.0429
   93SAPS   HN1 9078   6.640   4.369   6.464  1.1531  0.1483 -1.6715
   93SAPS   HN2 9079   6.704   4.483   6.566 -0.7112  0.3367  0.4667
   93SAPS   HN3 9080   6.560   4.515   6.495  0.0859  0.3715 -0.4679
   93SAPS   C12 9081   6.717   4.528   6.366  0.3001 -1.0783 -0.3104
   93SAPS  H12A 9082   6.822   4.505   6.371  0.7236  0.3133 -2.1539
   93SAPS   C13 9083   6.650   4.495   6.226 -0.3838  0.6825 -0.5244
   93SAPS  O13A 9084   6.536   4.439   6.233 -0.1352  0.1446 -0.8259
   93SAPS  O13B 9085   6.711   4.492   6.119  0.4054  0.6126 -0.0486
   93SAPS   C11 9086   6.701   4.683   6.367  0.9537  1.0552  0.8936
   93SAPS  H11A 9087   6.593   4.705   6.378  0.4467 -0.8821  0.0446
   93SAPS  H11B 9088   6.748   4.723   6.274 -1.3750  0.9831 -0.3673
   93SAPS     P 9089   6.809   4.888   6.488 -0.0658 -0.0020 -0.1941
   93SAPS   O13 9090   6.946   4.912   6.436 -0.1060  0.4478  0.2541
   93SAPS   O14 9091   6.705   4.963   6.413 -0.0343 -0.5151  0.0992
   93SAPS   O12 9092   6.776   4.736   6.481 -0.2038  0.3742  0.3914
   93SAPS   O11 9093   6.808   4.913   6.642 -0.1312  0.7499 -0.2012
   93SAPS    C1 9094   6.692   4.901   6.720  0.7629 -0.1507 -0.1885
   93SAPS    HA 9095   6.631   4.994   6.721  0.5789 -0.1988 -2.1233
   93SAPS    HB 9096   6.629   4.823   6.673  0.6689 -0.3396  0.2492
   93SAPS    C2 9097   6.740   4.861   6.861 -0.1313 -0.0350  0.1789
   93SAPS    HS 9098   6.646   4.838   6.917  0.2876 -0.3586  0.7520
   93SAPS   O21 9099   6.814   4.971   6.916  0.0556  0.2808 -0.0991
   93SAPS   C21 9100   6.788   4.991   7.048 -0.0971 -0.7891  0.1022
   93SAPS   O22 9101   6.710   4.926   7.118 -0.4030  0.7738  0.5078
   93SAPS   C22 9102   6.869   5.106   7.104  0.1624  0.6729 -0.3778
   93SAPS   H2R 9103   6.976   5.076   7.109 -0.3517 -1.3116 -0.4159
   93SAPS   H2S 9104   6.850   5.185   7.028  1.0923  1.6409  0.3670
   93SAPS    C3 9105   6.822   4.731   6.872 -0.3231  0.6504 -0.1498
   93SAPS    HX 9106   6.925   4.730   6.829 -0.8658 -2.1115 -1.6366
   93SAPS    HY 9107   6.770   4.656   6.809  0.7230  0.6099 -0.9970
   93SAPS   O31 9108   6.836   4.693   7.008 -0.1542  0.5022  0.3142
   93SAPS   C31 9109   6.783   4.586   7.047 -0.0242 -0.9832  0.0963
   93SAPS   O32 9110   6.725   4.503   6.983 -0.0885  0.1853 -0.5024
   93SAPS   C32 9111   6.798   4.590   7.202  0.4332  0.3055  0.5661
   93SAPS   H2X 9112   6.784   4.696   7.231  0.1278  1.1688 -2.4000
   93SAPS   H2Y 9113   6.900   4.560   7.232  0.6683  1.2623  0.7411
   93SAPS   C23 9114   6.823   5.158   7.242 -0.7178 -0.8554  0.2722
   93SAPS   H3R 9115   6.836   5.077   7.316 -0.0928 -0.0329  1.0834
   93SAPS   H3S 9116   6.716   5.185   7.227 -0.0141  1.0118 -2.0413
   93SAPS   C24 9117   6.902   5.288   7.293  0.0079  0.3144 -0.6068
   93SAPS   H4R 9118   6.835   5.331   7.369 -0.2290 -1.1617  0.0578
   93SAPS   H4S 9119   6.902   5.363   7.211  0.3215 -0.6843 -1.5560
   93SAPS   C25 9120   7.039   5.258   7.350  0.9274  0.0138 -0.2292
   93SAPS   H5R 9121   7.122   5.257   7.277  1.7816  0.7153  0.6986
   93SAPS   C26 9122   7.059   5.240   7.480 -0.6405 -0.5389  0.5408
   93SAPS   H6R 9123   7.164   5.226   7.509  0.6271  3.0840 -1.5829
   93SAPS   C27 9124   6.957   5.254   7.589 -0.0569 -0.2917  0.3247
   93SAPS   H7R 9125   7.009   5.196   7.668  0.9438  1.7194  1.2338
   93SAPS   H7S 9126   6.864   5.206   7.551 -1.8132  0.7200  3.0577
   93SAPS   C28 9127   6.914   5.393   7.631 -0.3187  0.1454  0.5682
   93SAPS   H8R 9128   6.954   5.476   7.571  2.3032  0.1668  2.2036
   93SAPS   C29 9129   6.845   5.421   7.747  0.4824  0.4993 -0.2505
   93SAPS   H9R 9130   6.817   5.525   7.766 -4.0105 -0.4294 -0.5367
   93SAPS  C210 9131   6.790   5.330   7.849 -0.3104  0.2997 -0.1556
   93SAPS  H10R 9132   6.861   5.341   7.934  2.3563  0.5623 -2.2724
   93SAPS  H10S 9133   6.793   5.224   7.817  1.8268  0.8063 -1.9241
   93SAPS  C211 9134   6.650   5.382   7.891 -0.5334 -0.0979  0.2659
   93SAPS  H11R 9135   6.569   5.359   7.820  0.1600  0.2767 -0.6758
   93SAPS  C212 9136   6.625   5.461   8.000  0.1445  0.5571 -0.0155
   93SAPS  H12R 9137   6.522   5.499   7.998 -0.7593 -1.7160 -0.7600
   93SAPS  C213 9138   6.728   5.506   8.103 -0.0337  0.3683  0.2132
   93SAPS  H13R 9139   6.755   5.613   8.086  0.4592  0.0378 -1.2051
   93SAPS  H13S 9140   6.823   5.450   8.090 -1.8482 -2.4663 -1.9200
   93SAPS  C214 9141   6.681   5.491   8.242 -0.4427  0.4365 -0.6763
   93SAPS  H14R 9142   6.683   5.384   8.267  0.5201  0.6085  0.0573
   93SAPS  C215 9143   6.634   5.590   8.330  0.0147 -0.2095 -0.3024
   93SAPS  H15R 9144   6.611   5.554   8.432 -2.5230 -2.3899 -1.5291
   93SAPS  C216 9145   6.618   5.736   8.307 -0.1543  0.0630 -0.8345
   93SAPS  H16R 9146   6.662   5.766   8.209 -0.0036  1.2108 -0.4317
   93SAPS  H16S 9147   6.670   5.793   8.387 -0.2336 -0.5932 -0.3075
   93SAPS  C217 9148   6.469   5.785   8.300  0.0636 -0.1288  0.5356
   93SAPS  H17R 9149   6.399   5.708   8.262 -0.1775  0.6200 -0.5926
   93SAPS  H17S 9150   6.478   5.878   8.239 -1.1565  0.5291  1.3060
   93SAPS  C218 9151   6.412   5.851   8.429 -0.2854  0.2119  0.6471
   93SAPS  H18R 9152   6.484   5.930   8.458  0.8110 -0.4322 -0.2513
   93SAPS  H18S 9153   6.390   5.766   8.497  0.1202  0.9767  1.7541
   93SAPS  C219 9154   6.281   5.923   8.398  0.6172 -0.3376 -0.6713
   93SAPS  H19R 9155   6.208   5.858   8.347 -0.1067 -2.5884  2.8534
   93SAPS  H19S 9156   6.300   6.003   8.323  0.3364 -0.3890 -0.7982
   93SAPS  C220 9157   6.214   5.995   8.513 -0.0966 -0.0279 -0.1332
   93SAPS  H20R 9158   6.114   6.024   8.475 -0.0078 -1.1178 -1.2617
   93SAPS  H20S 9159   6.279   6.081   8.539  1.3760 -0.9472 -0.5733
   93SAPS  H20T 9160   6.214   5.921   8.597 -0.8486 -0.5298 -0.5653
   93SAPS   C33 9161   6.689   4.493   7.272  0.3700 -1.1191 -0.6328
   93SAPS   H3X 9162   6.704   4.387   7.242 -0.2310 -1.5365  0.4451
   93SAPS   H3Y 9163   6.592   4.533   7.236  1.1290  0.9682 -0.4701
   93SAPS   C34 9164   6.699   4.513   7.422  0.5145  0.0835  0.7516
   93SAPS   H4X 9165   6.659   4.612   7.453 -0.6014  0.2059 -0.9552
   93SAPS   H4Y 9166   6.806   4.491   7.439  0.4305 -4.1404 -2.5390
   93SAPS   C35 9167   6.617   4.398   7.490  0.0753 -0.6424  0.4282
   93SAPS   H5X 9168   6.646   4.299   7.449 -0.3818  0.0870 -1.7995
   93SAPS   H5Y 9169   6.510   4.406   7.459 -0.1012 -0.4818  1.0606
   93SAPS   C36 9170   6.628   4.402   7.644  0.8417 -0.2370  0.8365
   93SAPS   H6X 9171   6.617   4.500   7.694  0.5382 -0.3390  0.9723
   93SAPS   H6Y 9172   6.733   4.372   7.667  1.7285  2.7996  1.1228
   93SAPS   C37 9173   6.551   4.288   7.707  0.0496 -0.4381  0.3638
   93SAPS   H7X 9174   6.616   4.198   7.702  2.2947  1.1595 -1.2861
   93SAPS   H7Y 9175   6.461   4.257   7.649 -1.5882 -0.3119  2.7068
   93SAPS   C38 9176   6.525   4.310   7.857 -0.5217  0.1928  0.3241
   93SAPS   H8X 9177   6.485   4.410   7.884 -0.5646 -0.0994  1.3553
   93SAPS   H8Y 9178   6.620   4.300   7.914  0.5124  3.7478 -0.4777
   93SAPS   C39 9179   6.425   4.209   7.910 -0.6119  1.5672  0.0116
   93SAPS   H9X 9180   6.468   4.110   7.883  1.6212  1.9019  2.0192
   93SAPS   H9Y 9181   6.325   4.213   7.860  0.0216 -0.6328 -1.6086
   93SAPS  C310 9182   6.416   4.212   8.063  0.3352 -0.1019 -0.4833
   93SAPS  H10X 9183   6.438   4.314   8.101 -1.6889 -0.2456  1.2926
   93SAPS  H10Y 9184   6.504   4.150   8.091  1.2981 -0.1632 -3.3303
   93SAPS  C311 9185   6.292   4.143   8.131 -1.0610 -0.5454  0.0969
   93SAPS  H11X 9186   6.302   4.035   8.108  1.3540 -0.1501 -0.9589
   93SAPS  H11Y 9187   6.206   4.185   8.074 -0.4984 -0.5705 -0.7720
   93SAPS  C312 9188   6.266   4.172   8.279  0.0476 -0.5853 -0.2703
   93SAPS  H12X 9189   6.165   4.146   8.316 -0.8329  1.9535 -0.6860
   93SAPS  H12Y 9190   6.280   4.281   8.300 -2.1768 -0.3289  0.0962
   93SAPS  C313 9191   6.377   4.111   8.371  0.4941 -0.4275  0.6671
   93SAPS  H13X 9192   6.475   4.158   8.347 -0.0636  1.3142  1.6324
   93SAPS  H13Y 9193   6.377   4.001   8.357  2.2557 -0.5399  1.2988
   93SAPS  C314 9194   6.350   4.124   8.524 -0.5515  0.0228  0.0687
   93SAPS  H14X 9195   6.241   4.148   8.534 -0.9899 -1.3712 -0.9916
   93SAPS  H14Y 9196   6.402   4.215   8.559 -1.2926  0.0487  1.1700
   93SAPS  C315 9197   6.387   3.996   8.588  0.7334  0.7861 -0.3164
   93SAPS  H15X 9198   6.357   3.907   8.529 -0.4469  1.0992 -0.2016
   93SAPS  H15Y 9199   6.332   3.988   8.684  1.3247 -1.4337 -0.1103
   93SAPS  C316 9200   6.536   3.990   8.623 -0.6059  0.2318 -0.1343
   93SAPS  H16X 9201   6.555   4.027   8.726  0.3422  0.6682 -0.4638
   93SAPS  H16Y 9202   6.594   4.047   8.547  2.2251 -1.3893  0.6744
   93SAPS  C317 9203   6.597   3.846   8.612  0.4500 -0.6006  0.0347
   93SAPS  H17X 9204   6.585   3.804   8.510  1.9179  1.5347 -1.1220
   93SAPS  H17Y 9205   6.534   3.783   8.678 -1.3575  0.6368 -0.4331
   93SAPS  C318 9206   6.736   3.829   8.662  0.4093  0.3140  0.0284
   93SAPS  H18X 9207   6.743   3.882   8.759 -2.3315 -1.1161  1.1127
   93SAPS  H18Y 9208   6.796   3.885   8.587 -1.5520  0.9391 -1.1563
   93SAPS  H18Z 9209   6.762   3.721   8.666  1.5044  0.5242 -0.9628
   94SAPS     N 9210   1.130   0.535   5.872  0.0452 -0.2389 -0.0977
   94SAPS   HN1 9211   1.125   0.589   5.961  0.3074  0.8300 -0.7068
   94SAPS   HN2 9212   1.224   0.532   5.828 -0.2142 -1.7798 -0.5819
   94SAPS   HN3 9213   1.068   0.590   5.808  0.6925  0.8240  0.1604
   94SAPS   C12 9214   1.097   0.391   5.874 -0.5590  0.4157  0.0657
   94SAPS  H12A 9215   0.995   0.371   5.902 -0.2748 -0.5040  0.4739
   94SAPS   C13 9216   1.120   0.313   5.739  1.0011  0.2807  0.4275
   94SAPS  O13A 9217   1.156   0.385   5.643 -0.6843  0.5869  0.2282
   94SAPS  O13B 9218   1.066   0.202   5.715 -0.0580  0.2803 -0.5390
   94SAPS   C11 9219   1.195   0.329   5.975  0.1709 -0.2689 -0.4807
   94SAPS  H11A 9220   1.180   0.219   5.979 -0.8889 -0.1554 -0.9385
   94SAPS  H11B 9221   1.165   0.369   6.074  0.5444  0.1714 -0.5411
   94SAPS     P 9222   1.446   0.360   6.052 -0.2881  0.0131  0.2573
   94SAPS   O13 9223   1.553   0.282   5.991  0.1898 -0.0698 -0.2892
   94SAPS   O14 9224   1.475   0.506   6.085 -0.1736  0.5147 -0.0764
   94SAPS   O12 9225   1.327   0.369   5.949 -0.4561  0.2020 -0.1680
   94SAPS   O11 9226   1.392   0.282   6.182  0.3134  0.6394  0.3300
   94SAPS    C1 9227   1.320   0.348   6.287  0.1522  0.4069 -0.5476
   94SAPS    HA 9228   1.335   0.457   6.276  1.5735  0.1565 -1.2948
   94SAPS    HB 9229   1.212   0.322   6.277  0.2901 -0.6330  0.4920
   94SAPS    C2 9230   1.361   0.316   6.432 -0.3684 -0.1969  0.8111
   94SAPS    HS 9231   1.281   0.363   6.493 -1.0292  0.0222 -0.1827
   94SAPS   O21 9232   1.494   0.371   6.453  0.2546  0.5195 -0.0181
   94SAPS   C21 9233   1.504   0.489   6.513  0.0598 -0.2687 -0.5581
   94SAPS   O22 9234   1.409   0.561   6.540 -0.3167 -0.2980  0.4885
   94SAPS   C22 9235   1.646   0.510   6.564  0.4706  0.0161  0.4954
   94SAPS   H2R 9236   1.705   0.432   6.512 -2.4889 -1.5998 -0.7184
   94SAPS   H2S 9237   1.671   0.615   6.541 -1.2315  0.2961 -0.2397
   94SAPS    C3 9238   1.358   0.163   6.467 -0.0590  0.8771  0.2128
   94SAPS    HX 9239   1.439   0.136   6.395  0.3192 -0.9437  1.2375
   94SAPS    HY 9240   1.262   0.113   6.441  1.2461 -0.5191 -2.3507
   94SAPS   O31 9241   1.393   0.127   6.605 -0.1381  0.3335  0.0606
   94SAPS   C31 9242   1.515   0.085   6.629  0.3900 -0.3359  0.5028
   94SAPS   O32 9243   1.616   0.089   6.565  0.0591  0.0416 -0.5397
   94SAPS   C32 9244   1.513   0.016   6.765 -0.0186  0.4980  0.0257
   94SAPS   H2X 9245   1.593  -0.057   6.789 -2.0944 -1.1747  2.2865
   94SAPS   H2Y 9246   1.425  -0.051   6.756 -0.5492  1.2764 -0.7741
   94SAPS   C23 9247   1.654   0.469   6.712 -0.1889 -0.5095 -0.1272
   94SAPS   H3R 9248   1.646   0.358   6.710  1.2421 -0.6218 -0.7072
   94SAPS   H3S 9249   1.567   0.512   6.766 -1.0030 -1.8799 -0.2971
   94SAPS   C24 9250   1.787   0.514   6.772 -0.5204 -0.1179 -0.5194
   94SAPS   H4R 9251   1.807   0.620   6.744 -1.4794  1.6330  4.4058
   94SAPS   H4S 9252   1.857   0.440   6.728  0.3524 -0.1160  0.7935
   94SAPS   C25 9253   1.790   0.512   6.925 -0.2032 -0.0453 -0.0696
   94SAPS   H5R 9254   1.772   0.611   6.971 -0.9914  0.0668 -0.6046
   94SAPS   C26 9255   1.823   0.403   7.001 -0.0483  0.4080  0.4219
   94SAPS   H6R 9256   1.811   0.407   7.111  0.3327  2.8650  0.4180
   94SAPS   C27 9257   1.859   0.264   6.946 -0.0590  0.3164  0.4879
   94SAPS   H7R 9258   1.837   0.262   6.837  1.2630  1.2419  0.1885
   94SAPS   H7S 9259   1.791   0.190   6.994  1.2183 -0.3568  1.3167
   94SAPS   C28 9260   2.000   0.210   6.958 -0.5433  0.2542  0.7219
   94SAPS   H8R 9261   2.044   0.182   6.861 -1.8080  0.9789 -0.1038
   94SAPS   C29 9262   2.067   0.186   7.072 -0.3976 -0.2093  0.5592
   94SAPS   H9R 9263   2.172   0.156   7.054 -0.6699  0.2438 -2.0839
   94SAPS  C210 9264   2.019   0.207   7.212 -0.3837  0.0854 -0.4260
   94SAPS  H10R 9265   1.909   0.208   7.228 -0.2657  2.8554  0.8015
   94SAPS  H10S 9266   2.042   0.311   7.244 -2.0797 -0.0658  1.5410
   94SAPS  C211 9267   2.070   0.099   7.308 -0.0905  0.0942  0.5291
   94SAPS  H11R 9268   2.111   0.011   7.256 -1.3163  1.1378 -2.4032
   94SAPS  C212 9269   2.062   0.099   7.440  1.2244 -0.4506 -0.6204
   94SAPS  H12R 9270   2.080   0.009   7.500  0.3712 -0.1271  0.1323
   94SAPS  C213 9271   1.990   0.214   7.517 -1.4827 -0.2311  1.3348
   94SAPS  H13R 9272   1.979   0.305   7.455 -1.2229 -1.4067 -0.5123
   94SAPS  H13S 9273   2.067   0.245   7.591  0.5717  0.5798 -0.9698
   94SAPS  C214 9274   1.860   0.166   7.585 -0.0674 -0.0609 -0.1244
   94SAPS  H14R 9275   1.781   0.128   7.518  0.7247 -1.4071 -0.3199
   94SAPS  C215 9276   1.838   0.173   7.714  0.0818 -0.3022  0.4042
   94SAPS  H15R 9277   1.740   0.149   7.757  1.7889 -2.0827  3.6945
   94SAPS  C216 9278   1.931   0.230   7.819  0.1775  0.4189 -0.0893
   94SAPS  H16R 9279   1.904   0.335   7.841 -0.7290  0.2130 -0.1650
   94SAPS  H16S 9280   2.039   0.232   7.794 -0.0078  2.3798 -0.9304
   94SAPS  C217 9281   1.938   0.140   7.947  0.8221 -0.3798  0.1298
   94SAPS  H17R 9282   1.994   0.045   7.931 -0.1227 -0.6351 -2.0266
   94SAPS  H17S 9283   1.839   0.096   7.972  1.2807  0.1413  3.2986
   94SAPS  C218 9284   1.992   0.213   8.069 -0.5048 -1.0891  0.0296
   94SAPS  H18R 9285   1.912   0.266   8.124 -0.2893 -0.5467 -0.1674
   94SAPS  H18S 9286   2.072   0.284   8.040 -0.4199 -1.5389 -0.8887
   94SAPS  C219 9287   2.059   0.117   8.170 -0.4684  0.3688  0.1197
   94SAPS  H19R 9288   2.127   0.044   8.122 -1.4327 -1.5081  1.4874
   94SAPS  H19S 9289   1.987   0.041   8.209 -0.6595 -1.0277 -2.6619
   94SAPS  C220 9290   2.121   0.188   8.291 -0.1591  0.4007 -0.1453
   94SAPS  H20R 9291   2.053   0.274   8.314  0.2305  0.4201  0.9539
   94SAPS  H20S 9292   2.220   0.230   8.266  0.8932 -1.9953 -0.2164
   94SAPS  H20T 9293   2.134   0.125   8.381  0.6228  3.0635  1.7431
   94SAPS   C33 9294   1.497   0.113   6.886 -0.4841 -0.0996  0.4797
   94SAPS   H3X 9295   1.431   0.201   6.871  0.5881  1.0843  2.3147
   94SAPS   H3Y 9296   1.599   0.150   6.907  0.0009  0.9900 -3.0475
   94SAPS   C34 9297   1.444   0.041   7.018  0.4228 -0.1948 -0.2896
   94SAPS   H4X 9298   1.525  -0.025   7.056  1.6984  3.5287  4.4042
   94SAPS   H4Y 9299   1.350  -0.016   7.000  0.2836 -0.6957  1.7298
   94SAPS   C35 9300   1.406   0.126   7.147  0.5273 -0.5283  0.6607
   94SAPS   H5X 9301   1.313   0.184   7.128 -0.7947 -2.0645  2.1071
   94SAPS   H5Y 9302   1.488   0.198   7.164 -0.8172  0.6341  2.5231
   94SAPS   C36 9303   1.386   0.039   7.273  0.0309 -0.1791 -0.0134
   94SAPS   H6X 9304   1.442  -0.055   7.256  0.0896 -0.0185 -0.7116
   94SAPS   H6Y 9305   1.281   0.004   7.286  0.4569 -1.6728 -0.4625
   94SAPS   C37 9306   1.445   0.108   7.400  0.0016  0.8657 -0.5119
   94SAPS   H7X 9307   1.422   0.216   7.407  1.7123  1.1662  1.0427
   94SAPS   H7Y 9308   1.556   0.105   7.404  0.0786 -1.9958 -1.8762
   94SAPS   C38 9309   1.383   0.029   7.523  0.5427 -0.2770  0.8058
   94SAPS   H8X 9310   1.429  -0.071   7.509  2.4367  0.7591 -0.8148
   94SAPS   H8Y 9311   1.274   0.018   7.503  0.3333  2.4557  0.1398
   94SAPS   C39 9312   1.388   0.086   7.659 -0.4929 -0.1534  0.2777
   94SAPS   H9X 9313   1.328   0.180   7.658 -2.4993 -1.3148 -2.5117
   94SAPS   H9Y 9314   1.496   0.093   7.687 -1.1156  0.2505  2.8086
   94SAPS  C310 9315   1.331  -0.013   7.763 -0.9805 -0.2676 -0.3382
   94SAPS  H10X 9316   1.403  -0.097   7.764 -0.4503  0.1599 -1.2488
   94SAPS  H10Y 9317   1.234  -0.055   7.727 -1.4600  1.6202 -1.4017
   94SAPS  C311 9318   1.325   0.040   7.907  0.1925 -0.3844 -0.2708
   94SAPS  H11X 9319   1.413   0.101   7.937 -0.5306  1.5387 -1.8485
   94SAPS  H11Y 9320   1.332  -0.044   7.979  0.7542  0.9635  1.3110
   94SAPS  C312 9321   1.195   0.111   7.939  1.4410 -0.0580 -0.8379
   94SAPS  H12X 9322   1.106   0.048   7.916  0.4350  0.2907  1.7274
   94SAPS  H12Y 9323   1.198   0.202   7.876 -0.4369 -0.6750 -1.9041
   94SAPS  C313 9324   1.184   0.156   8.085  0.0700  0.2932  0.9781
   94SAPS  H13X 9325   1.103   0.232   8.085 -0.6183 -0.4161 -0.0228
   94SAPS  H13Y 9326   1.274   0.202   8.131  1.1260  0.3457 -1.0326
   94SAPS  C314 9327   1.130   0.041   8.175 -0.7874  0.0947  0.6507
   94SAPS  H14X 9328   1.212  -0.032   8.188 -0.7253 -0.0794 -0.6169
   94SAPS  H14Y 9329   1.047  -0.014   8.126 -1.5029  1.5096  0.2068
   94SAPS  C315 9330   1.096   0.077   8.319 -0.2578 -0.3007 -0.1693
   94SAPS  H15X 9331   1.012   0.149   8.308  0.1155  0.4213  1.3704
   94SAPS  H15Y 9332   1.183   0.119   8.375 -1.7428 -1.4239  3.2186
   94SAPS  C316 9333   1.051  -0.048   8.404  0.1493 -0.3151  0.1893
   94SAPS  H16X 9334   1.061  -0.021   8.511  0.0710  2.4654 -0.4312
   94SAPS  H16Y 9335   1.124  -0.127   8.375  1.4490  1.5748 -2.0133
   94SAPS  C317 9336   0.907  -0.093   8.369  0.5209  0.8525 -0.1798
   94SAPS  H17X 9337   0.892  -0.098   8.259  0.9260 -0.5044 -0.1883
   94SAPS  H17Y 9338   0.837  -0.021   8.417  0.5119  2.0582 -1.9398
   94SAPS  C318 9339   0.882  -0.232   8.428 -0.7986  0.5323 -0.4410
   94SAPS  H18X 9340   0.876  -0.240   8.539 -0.5685  0.4530 -0.4333
   94SAPS  H18Y 9341   0.964  -0.295   8.389 -1.0259 -0.0773  0.0480
   94SAPS  H18Z 9342   0.787  -0.272   8.387  0.1194 -1.7546 -0.4274
   95SAPS     N 9343   3.545   5.185   6.148  0.8984 -0.2720 -0.1964
   95SAPS   HN1 9344   3.553   5.283   6.114 -2.0977 -0.4422 -1.6820
   95SAPS   HN2 9345   3.465   5.179   6.213  2.5503  0.4296  2.0344
   95SAPS   HN3 9346   3.624   5.159   6.211 -0.2093  1.4201  1.9970
   95SAPS   C12 9347   3.523   5.088   6.030  0.3442 -0.7641  0.1740
   95SAPS  H12A 9348   3.426   5.041   6.035  0.1305 -0.2355  1.2904
   95SAPS   C13 9349   3.525   5.170   5.886  0.5092 -0.3300 -0.8004
   95SAPS  O13A 9350   3.514   5.298   5.887  0.2728 -0.1410  0.4965
   95SAPS  O13B 9351   3.488   5.101   5.786 -0.2395 -0.1100 -1.3699
   95SAPS   C11 9352   3.640   4.981   6.038  0.5457  0.6163 -0.2933
   95SAPS  H11A 9353   3.738   5.033   6.040  1.3419 -0.8216 -0.2097
   95SAPS  H11B 9354   3.634   4.921   5.944  1.5405  1.2940 -0.8063
   95SAPS     P 9355   3.744   4.795   6.195 -0.1652  0.0102  0.4465
   95SAPS   O13 9356   3.718   4.653   6.147  0.1665  0.0577  0.2027
   95SAPS   O14 9357   3.872   4.865   6.162 -0.0412 -0.1188  0.2050
   95SAPS   O12 9358   3.623   4.891   6.150 -0.2148  0.0154  0.1815
   95SAPS   O11 9359   3.733   4.787   6.356 -0.1084 -0.0603  0.6606
   95SAPS    C1 9360   3.615   4.761   6.424  0.3251  0.9122  0.0492
   95SAPS    HA 9361   3.554   4.853   6.416  2.7098  2.4712 -1.3789
   95SAPS    HB 9362   3.556   4.681   6.374  0.5123  0.9678 -0.2562
   95SAPS    C2 9363   3.636   4.743   6.574 -0.2714 -0.1041 -0.0506
   95SAPS    HS 9364   3.534   4.753   6.617  0.2671  1.8585  0.9031
   95SAPS   O21 9365   3.734   4.827   6.637 -0.3565 -0.0721 -0.0824
   95SAPS   C21 9366   3.680   4.935   6.693  0.3782  0.1893 -0.5710
   95SAPS   O22 9367   3.566   4.969   6.679 -0.5104 -0.2918  0.4956
   95SAPS   C22 9368   3.788   4.998   6.784 -0.2203 -0.7561 -0.7332
   95SAPS   H2R 9369   3.822   4.920   6.854  0.6725 -0.0792 -0.3910
   95SAPS   H2S 9370   3.872   5.033   6.719  0.4804 -0.0238  0.5233
   95SAPS    C3 9371   3.686   4.600   6.587  0.0865 -0.0224 -0.9356
   95SAPS    HX 9372   3.783   4.586   6.535 -0.8474 -0.7498 -2.5480
   95SAPS    HY 9373   3.614   4.537   6.532 -2.6526  1.9952  0.1257
   95SAPS   O31 9374   3.693   4.555   6.723  0.1358 -0.9417 -0.7069
   95SAPS   C31 9375   3.587   4.544   6.804 -0.2288  0.0978  0.4990
   95SAPS   O32 9376   3.467   4.559   6.772  0.3434 -0.9184  0.0272
   95SAPS   C32 9377   3.638   4.509   6.950  0.3907 -0.3534  0.1333
   95SAPS   H2X 9378   3.619   4.589   7.025  2.6335  0.9851 -0.6247
   95SAPS   H2Y 9379   3.749   4.511   6.955  0.3270  1.4115  1.9204
   95SAPS   C23 9380   3.743   5.118   6.874  0.5567 -0.3251  0.5202
   95SAPS   H3R 9381   3.650   5.093   6.930  0.0305  1.6933  0.6323
   95SAPS   H3S 9382   3.714   5.199   6.803 -0.2579 -1.4460 -0.4774
   95SAPS   C24 9383   3.854   5.166   6.969 -0.5461  0.4365 -0.0350
   95SAPS   H4R 9384   3.942   5.193   6.907 -0.3714 -3.4699 -1.7418
   95SAPS   H4S 9385   3.886   5.093   7.047  1.3970  0.8985 -0.3520
   95SAPS   C25 9386   3.816   5.294   7.038  0.3484 -0.3627  0.1806
   95SAPS   H5R 9387   3.809   5.374   6.963 -1.6115 -0.0969  0.5759
   95SAPS   C26 9388   3.778   5.319   7.166  0.2189  0.1082  0.2818
   95SAPS   H6R 9389   3.758   5.423   7.196  0.4378  0.5943 -1.1693
   95SAPS   C27 9390   3.780   5.221   7.280 -0.1775  0.1185 -0.1029
   95SAPS   H7R 9391   3.884   5.193   7.306 -0.0847 -1.4073 -1.9365
   95SAPS   H7S 9392   3.747   5.124   7.239 -0.0381  0.9513 -2.3105
   95SAPS   C28 9393   3.700   5.249   7.402 -0.1609  0.0195  0.4592
   95SAPS   H8R 9394   3.608   5.309   7.387 -1.1559 -1.1446  1.6689
   95SAPS   C29 9395   3.721   5.214   7.530 -0.2613  0.0818 -0.5273
   95SAPS   H9R 9396   3.650   5.255   7.604 -0.4124 -1.4556  0.2205
   95SAPS  C210 9397   3.833   5.138   7.603 -0.6095 -0.0456  0.1666
   95SAPS  H10R 9398   3.887   5.082   7.525  1.1771  1.6358  0.1391
   95SAPS  H10S 9399   3.788   5.059   7.667 -2.5080  0.0511 -0.9707
   95SAPS  C211 9400   3.943   5.220   7.669 -0.1798 -0.7781  0.4932
   95SAPS  H11R 9401   3.988   5.284   7.591 -1.6871 -1.0064 -0.5937
   95SAPS  C212 9402   3.975   5.224   7.800  0.0801 -0.6453  0.2434
   95SAPS  H12R 9403   4.065   5.283   7.820 -0.0564  0.0983 -1.1658
   95SAPS  C213 9404   3.914   5.152   7.917 -0.5262 -0.0668  0.6956
   95SAPS  H13R 9405   3.806   5.134   7.900 -0.7214  1.6312 -0.1242
   95SAPS  H13S 9406   3.901   5.209   8.011 -1.0157 -0.3909  0.8286
   95SAPS  C214 9407   3.977   5.019   7.934  0.9850  0.2238 -0.7538
   95SAPS  H14R 9408   4.027   4.965   7.853 -1.7480  0.8023 -2.9766
   95SAPS  C215 9409   3.967   4.944   8.047  0.5900 -0.1183  0.4120
   95SAPS  H15R 9410   4.024   4.850   8.056 -0.4407 -0.6443  1.7687
   95SAPS  C216 9411   3.895   4.988   8.170  0.5396  0.4509 -0.0166
   95SAPS  H16R 9412   3.845   4.898   8.210  0.0465  0.8531  0.2830
   95SAPS  H16S 9413   3.812   5.059   8.150 -0.5823 -0.6619  0.5459
   95SAPS  C217 9414   3.987   5.055   8.275  0.0680  0.1574  0.2868
   95SAPS  H17R 9415   3.921   5.131   8.322  0.4045  1.6382 -1.4796
   95SAPS  H17S 9416   4.071   5.108   8.224  0.8007  0.3926  1.6894
   95SAPS  C218 9417   4.043   4.953   8.375  0.2454  0.5370 -0.9238
   95SAPS  H18R 9418   4.136   5.000   8.413  0.9819 -0.2886 -1.6777
   95SAPS  H18S 9419   4.068   4.861   8.319  0.0238 -0.4291  0.5216
   95SAPS  C219 9420   3.942   4.928   8.489  0.1094  0.3149 -0.1981
   95SAPS  H19R 9421   3.846   4.883   8.454  0.0155  0.9649 -0.7891
   95SAPS  H19S 9422   3.922   5.021   8.545  0.1181  0.6765 -0.7913
   95SAPS  C220 9423   4.000   4.821   8.586  0.1552  0.3218  0.3870
   95SAPS  H20R 9424   3.993   4.718   8.543  0.4339  0.6604 -0.4967
   95SAPS  H20S 9425   3.942   4.812   8.680  2.2483 -1.5633  1.6030
   95SAPS  H20T 9426   4.106   4.838   8.613  0.2072  1.6073 -0.5096
   95SAPS   C33 9427   3.562   4.384   7.000  0.2125  0.1234 -0.5520
   95SAPS   H3X 9428   3.592   4.306   6.927 -1.3090  1.1006 -2.3303
   95SAPS   H3Y 9429   3.453   4.410   6.998 -0.6626 -2.8926  1.3538
   95SAPS   C34 9430   3.609   4.342   7.138  0.6988  0.6407  0.0682
   95SAPS   H4X 9431   3.583   4.417   7.217  0.2713 -0.9722  1.5117
   95SAPS   H4Y 9432   3.716   4.316   7.129  0.0143 -1.8902 -1.5286
   95SAPS   C35 9433   3.543   4.215   7.186 -0.3710  0.0842 -0.5328
   95SAPS   H5X 9434   3.565   4.139   7.107  0.9987  0.5654 -0.6351
   95SAPS   H5Y 9435   3.433   4.216   7.202 -0.4759 -2.2870 -0.6028
   95SAPS   C36 9436   3.591   4.160   7.319 -0.6974 -0.6054  0.2702
   95SAPS   H6X 9437   3.696   4.195   7.327 -0.6645 -0.2110 -1.5224
   95SAPS   H6Y 9438   3.591   4.049   7.314  2.5759 -0.6453 -3.0555
   95SAPS   C37 9439   3.504   4.209   7.433 -0.6066 -0.4467 -0.4774
   95SAPS   H7X 9440   3.395   4.217   7.416 -1.0426 -0.9999  1.7768
   95SAPS   H7Y 9441   3.540   4.311   7.460  3.5625 -0.9410 -3.2365
   95SAPS   C38 9442   3.523   4.116   7.556  0.2486 -0.2311 -0.9804
   95SAPS   H8X 9443   3.521   4.008   7.533 -0.8108 -0.5799  0.5536
   95SAPS   H8Y 9444   3.429   4.138   7.612 -0.4545  3.6770 -3.3654
   95SAPS   C39 9445   3.653   4.145   7.643  0.8341 -0.7004 -0.2588
   95SAPS   H9X 9446   3.651   4.245   7.691  1.0424 -1.0590  0.5083
   95SAPS   H9Y 9447   3.734   4.153   7.567 -0.5957  0.6622 -1.7266
   95SAPS  C310 9448   3.682   4.030   7.742 -0.1664  0.5367  0.3256
   95SAPS  H10X 9449   3.792   4.035   7.757  0.4853 -2.5320 -2.2838
   95SAPS  H10Y 9450   3.674   3.928   7.700  3.0022  1.0973 -2.0627
   95SAPS  C311 9451   3.594   4.028   7.866  0.4390 -0.4944 -0.3647
   95SAPS  H11X 9452   3.600   3.929   7.917  0.7823  1.0241  2.7956
   95SAPS  H11Y 9453   3.489   4.056   7.842  0.8344  0.5677 -0.8686
   95SAPS  C312 9454   3.654   4.116   7.976 -0.9894 -0.0353  0.1569
   95SAPS  H12X 9455   3.711   4.201   7.933 -0.9697 -0.4767 -0.7123
   95SAPS  H12Y 9456   3.719   4.052   8.037 -0.1360 -1.2414 -1.9090
   95SAPS  C313 9457   3.541   4.174   8.066  0.3938  0.5679  0.5095
   95SAPS  H13X 9458   3.473   4.235   8.004  2.0723  1.1949 -0.7719
   95SAPS  H13Y 9459   3.600   4.234   8.139 -0.2346  0.7046  0.9073
   95SAPS  C314 9460   3.455   4.067   8.139 -0.5757  0.1940 -0.0845
   95SAPS  H14X 9461   3.524   4.032   8.218  0.2445 -0.9998 -1.2704
   95SAPS  H14Y 9462   3.434   3.980   8.073  1.1872  0.0110 -0.4457
   95SAPS  C315 9463   3.330   4.129   8.201 -0.2648 -0.1001  0.2010
   95SAPS  H15X 9464   3.274   4.173   8.116  0.1321  2.3765  1.1304
   95SAPS  H15Y 9465   3.358   4.213   8.268  0.7157  0.1932 -0.5499
   95SAPS  C316 9466   3.236   4.037   8.272  0.8406 -0.1933 -0.2649
   95SAPS  H16X 9467   3.257   4.025   8.380 -0.2243 -0.7862 -0.1102
   95SAPS  H16Y 9468   3.234   3.935   8.229 -0.2217 -0.1082 -0.4275
   95SAPS  C317 9469   3.088   4.088   8.272 -0.2326  0.0680 -0.0512
   95SAPS  H17X 9470   3.031   4.001   8.310 -2.3046  1.3773 -0.0312
   95SAPS  H17Y 9471   3.056   4.106   8.167 -1.6220 -2.1140 -0.0485
   95SAPS  C318 9472   3.052   4.206   8.368 -0.2454 -0.3985 -0.2842
   95SAPS  H18X 9473   2.949   4.193   8.407  0.4860 -0.3686  1.7782
   95SAPS  H18Y 9474   3.061   4.304   8.314 -0.3061  0.0680  0.5406
   95SAPS  H18Z 9475   3.116   4.215   8.458 -1.1768 -0.9840  0.4477
   96SAPS     N 9476   4.073   5.050   6.223  0.5285 -0.1919 -0.2141
   96SAPS   HN1 9477   4.027   5.102   6.300 -0.8442 -2.6070  0.7086
   96SAPS   HN2 9478   4.005   4.977   6.195 -0.7099  0.0334  2.0083
   96SAPS   HN3 9479   4.159   4.997   6.249  0.6565  0.0392 -0.1640
   96SAPS   C12 9480   4.099   5.144   6.109  0.7618  0.0570 -0.0384
   96SAPS  H12A 9481   4.185   5.206   6.129  1.5575 -1.2555  0.7832
   96SAPS   C13 9482   4.105   5.078   5.969  0.4829  0.4827 -0.3697
   96SAPS  O13A 9483   4.133   4.950   5.969 -0.0930  0.3114 -0.1009
   96SAPS  O13B 9484   4.115   5.146   5.866  0.1383 -0.1932  0.1633
   96SAPS   C11 9485   3.980   5.240   6.098  0.1327  0.2823  0.3842
   96SAPS  H11A 9486   3.890   5.186   6.063 -0.6510  1.1683  1.0022
   96SAPS  H11B 9487   4.001   5.312   6.016 -1.4545  0.6491  0.2785
   96SAPS     P 9488   4.012   5.447   6.255  0.0928 -0.2594  0.3207
   96SAPS   O13 9489   4.162   5.450   6.243 -0.0511  0.1918 -0.4157
   96SAPS   O14 9490   3.931   5.541   6.172 -0.2538 -0.0483  0.1264
   96SAPS   O12 9491   3.963   5.302   6.230 -0.5431 -0.4264  0.7845
   96SAPS   O11 9492   3.975   5.485   6.402 -0.0005 -0.3917  0.6109
   96SAPS    C1 9493   3.971   5.385   6.509 -1.0661 -0.2120 -0.0683
   96SAPS    HA 9494   3.905   5.303   6.476  2.3054 -2.4166 -1.9835
   96SAPS    HB 9495   4.078   5.354   6.519  0.6084  3.5914 -3.4678
   96SAPS    C2 9496   3.935   5.438   6.650  0.4445  0.4691  0.2780
   96SAPS    HS 9497   3.925   5.343   6.706  1.3992 -1.4863 -2.6844
   96SAPS   O21 9498   3.813   5.520   6.646  0.1410 -0.3372  0.9957
   96SAPS   C21 9499   3.709   5.463   6.598 -0.3483  0.0655  0.0357
   96SAPS   O22 9500   3.693   5.341   6.595 -0.1740  0.3809  0.6326
   96SAPS   C22 9501   3.612   5.564   6.534  0.1988 -0.3121 -0.0443
   96SAPS   H2R 9502   3.630   5.582   6.426 -0.8043 -0.2023 -0.2049
   96SAPS   H2S 9503   3.514   5.511   6.536 -0.5030  0.9516 -0.1931
   96SAPS    C3 9504   4.047   5.523   6.712 -0.0653 -0.1074  0.1706
   96SAPS    HX 9505   4.061   5.610   6.645 -0.1602  0.0188  0.3129
   96SAPS    HY 9506   4.145   5.470   6.716  1.6816  2.9425  2.3338
   96SAPS   O31 9507   4.014   5.546   6.852  0.6179  0.3982 -0.4784
   96SAPS   C31 9508   3.963   5.672   6.873  0.4729  0.8150  0.7152
   96SAPS   O32 9509   3.960   5.757   6.789  0.2512  0.0346  0.7854
   96SAPS   C32 9510   3.933   5.694   7.017 -0.2035 -0.2457 -0.5215
   96SAPS   H2X 9511   3.828   5.710   7.050 -0.1398  0.6121 -0.7189
   96SAPS   H2Y 9512   3.975   5.795   7.034  2.4107 -1.0697 -1.5519
   96SAPS   C23 9513   3.588   5.705   6.600 -0.4887 -0.1245  0.3499
   96SAPS   H3R 9514   3.508   5.747   6.534 -0.6977 -0.2806  0.5037
   96SAPS   H3S 9515   3.673   5.773   6.578 -1.7608  1.3757 -0.1508
   96SAPS   C24 9516   3.566   5.699   6.751 -0.7832  0.2080  0.3832
   96SAPS   H4R 9517   3.669   5.686   6.792 -0.0128  1.5239 -1.0174
   96SAPS   H4S 9518   3.504   5.610   6.773 -0.8668 -0.3052 -1.7003
   96SAPS   C25 9519   3.504   5.820   6.813  0.1083 -0.1685  0.3349
   96SAPS   H5R 9520   3.539   5.920   6.785 -1.3856  0.3389  0.2079
   96SAPS   C26 9521   3.419   5.822   6.909  0.0878  0.0152 -0.3872
   96SAPS   H6R 9522   3.372   5.919   6.930  0.0113 -0.0534 -0.2331
   96SAPS   C27 9523   3.360   5.711   6.997 -0.0283 -0.4472  0.1387
   96SAPS   H7R 9524   3.440   5.635   7.011 -0.8753 -1.8073 -1.8328
   96SAPS   H7S 9525   3.280   5.663   6.935  0.4365 -1.1881  0.1053
   96SAPS   C28 9526   3.306   5.757   7.127  0.3589  0.7819  0.1668
   96SAPS   H8R 9527   3.233   5.840   7.125 -0.5863 -0.0353 -0.6548
   96SAPS   C29 9528   3.328   5.710   7.254  0.1755  0.2216  0.9252
   96SAPS   H9R 9529   3.276   5.753   7.341 -0.8674  2.4496 -0.7043
   96SAPS  C210 9530   3.412   5.592   7.288 -0.9085  0.4573 -0.2065
   96SAPS  H10R 9531   3.471   5.567   7.197  1.5281 -0.2474  1.4386
   96SAPS  H10S 9532   3.353   5.501   7.307 -0.0006 -0.1194 -0.0692
   96SAPS  C211 9533   3.531   5.614   7.389 -0.4873  0.1333  0.5683
   96SAPS  H11R 9534   3.627   5.637   7.340  0.3775 -1.4595  1.4452
   96SAPS  C212 9535   3.531   5.603   7.525  0.4656 -0.2761  0.7906
   96SAPS  H12R 9536   3.622   5.636   7.578  0.3216  2.9288 -0.7191
   96SAPS  C213 9537   3.414   5.573   7.613  0.7620  0.1772 -0.4099
   96SAPS  H13R 9538   3.336   5.517   7.558  1.3812 -0.4815 -0.6234
   96SAPS  H13S 9539   3.362   5.670   7.630 -1.0591 -1.0432  1.5460
   96SAPS  C214 9540   3.444   5.495   7.743 -0.2493 -0.0002  0.8934
   96SAPS  H14R 9541   3.474   5.391   7.726  2.8150  0.9436 -0.0790
   96SAPS  C215 9542   3.435   5.540   7.867 -0.5385  0.0540  0.2445
   96SAPS  H15R 9543   3.464   5.481   7.956  2.3362  0.9567  0.0189
   96SAPS  C216 9544   3.393   5.679   7.902  0.0492 -1.2654 -0.5176
   96SAPS  H16R 9545   3.290   5.685   7.944 -0.1699 -2.1734 -0.9031
   96SAPS  H16S 9546   3.384   5.749   7.816 -0.0594  0.8148  1.1071
   96SAPS  C217 9547   3.490   5.750   8.002 -0.2915  0.2811  0.4319
   96SAPS  H17R 9548   3.590   5.746   7.955  0.1148 -0.8166  1.3425
   96SAPS  H17S 9549   3.483   5.694   8.098 -0.8538 -1.7166 -0.7265
   96SAPS  C218 9550   3.467   5.904   8.037  0.0598  0.3029  0.2744
   96SAPS  H18R 9551   3.363   5.933   8.014  0.0154 -0.1255 -0.0900
   96SAPS  H18S 9552   3.526   5.964   7.964 -1.1984  1.0170 -0.1760
   96SAPS  C219 9553   3.500   5.944   8.185  0.3331 -0.4178  0.1897
   96SAPS  H19R 9554   3.434   5.880   8.248 -0.9993 -0.0982 -0.8292
   96SAPS  H19S 9555   3.470   6.049   8.205  1.7085 -0.4002  2.6055
   96SAPS  C220 9556   3.639   5.934   8.241 -0.2379 -0.0026 -0.7024
   96SAPS  H20R 9557   3.640   5.978   8.344  0.9723 -0.4131 -0.5263
   96SAPS  H20S 9558   3.712   5.996   8.186  1.3979 -0.8098  0.4873
   96SAPS  H20T 9559   3.678   5.831   8.250 -0.2892  0.1027  1.3609
   96SAPS   C33 9560   4.001   5.602   7.123  0.3683  0.2725 -0.3500
   96SAPS   H3X 9561   4.110   5.614   7.106  1.0757  0.2492  3.3427
   96SAPS   H3Y 9562   3.960   5.500   7.109 -2.6121  1.4352 -0.8968
   96SAPS   C34 9563   3.980   5.658   7.262  1.0616 -0.1183 -0.5978
   96SAPS   H4X 9564   3.876   5.695   7.248  1.7311  1.5047 -1.6325
   96SAPS   H4Y 9565   4.045   5.745   7.288  1.3146 -0.9912  1.9237
   96SAPS   C35 9566   4.003   5.550   7.367 -0.6982  0.0931  0.1836
   96SAPS   H5X 9567   4.098   5.505   7.330 -0.8258  0.8300 -1.1060
   96SAPS   H5Y 9568   3.916   5.481   7.357  0.8364 -1.7206 -1.6625
   96SAPS   C36 9569   4.020   5.606   7.512  0.3202  0.0067 -0.1491
   96SAPS   H6X 9570   4.096   5.687   7.510 -0.7431  1.0189 -1.7624
   96SAPS   H6Y 9571   4.063   5.527   7.578  0.7227  2.0588  2.2120
   96SAPS   C37 9572   3.888   5.654   7.569  0.3584 -0.4429  0.3716
   96SAPS   H7X 9573   3.808   5.579   7.553  1.1825 -1.3257  0.3595
   96SAPS   H7Y 9574   3.858   5.743   7.509 -2.8628 -2.3679 -1.1327
   96SAPS   C38 9575   3.891   5.687   7.711  0.4646 -0.0694  0.3901
   96SAPS   H8X 9576   3.790   5.719   7.744  0.4289  0.7508 -0.4983
   96SAPS   H8Y 9577   3.975   5.759   7.723  0.4415  0.2108 -1.0050
   96SAPS   C39 9578   3.922   5.565   7.802 -0.0457  0.4294 -0.5525
   96SAPS   H9X 9579   4.021   5.521   7.783 -1.1177 -1.7131 -1.4975
   96SAPS   H9Y 9580   3.846   5.485   7.790  0.3869  0.1271 -1.2961
   96SAPS  C310 9581   3.916   5.612   7.943 -1.0694 -0.3854  1.1636
   96SAPS  H10X 9582   3.814   5.652   7.961 -1.7906 -0.9794 -1.2138
   96SAPS  H10Y 9583   3.985   5.699   7.938  0.0387 -1.2529 -3.6802
   96SAPS  C311 9584   3.965   5.512   8.054  0.6522 -0.3099 -0.2418
   96SAPS  H11X 9585   4.074   5.500   8.037  0.0789 -1.0825 -4.3781
   96SAPS  H11Y 9586   3.915   5.413   8.044  2.4566 -1.3793  0.7889
   96SAPS  C312 9587   3.944   5.564   8.205 -1.4997 -0.7309 -0.3006
   96SAPS  H12X 9588   3.847   5.618   8.215 -2.0007 -1.5397 -0.7163
   96SAPS  H12Y 9589   4.021   5.644   8.204 -1.9580 -0.2905 -1.6011
   96SAPS  C313 9590   3.963   5.453   8.312 -0.3068  1.3020 -0.3734
   96SAPS  H13X 9591   3.945   5.346   8.285  2.3637  0.8375 -0.5321
   96SAPS  H13Y 9592   3.897   5.463   8.401  0.1121  0.7549  0.0068
   96SAPS  C314 9593   4.109   5.450   8.362  0.1845 -0.0928  0.5583
   96SAPS  H14X 9594   4.176   5.450   8.273 -0.5933  2.0135 -0.1008
   96SAPS  H14Y 9595   4.129   5.354   8.414  1.3442 -1.1141 -1.6279
   96SAPS  C315 9596   4.140   5.571   8.452 -0.0988 -0.4383  0.0141
   96SAPS  H15X 9597   4.090   5.572   8.551  2.4047  0.9314  1.3674
   96SAPS  H15Y 9598   4.137   5.667   8.396  2.5427 -0.7723 -0.8412
   96SAPS  C316 9599   4.293   5.568   8.492  0.3561 -0.6058 -0.0588
   96SAPS  H16X 9600   4.348   5.563   8.395 -0.3118  0.1244 -0.4951
   96SAPS  H16Y 9601   4.315   5.474   8.546  0.1271 -2.5975 -3.1673
   96SAPS  C317 9602   4.332   5.693   8.564  0.0174 -0.2526 -0.2989
   96SAPS  H17X 9603   4.259   5.715   8.644 -0.5227  0.6002 -1.0123
   96SAPS  H17Y 9604   4.322   5.775   8.489 -0.3293  1.0272  1.1147
   96SAPS  C318 9605   4.479   5.683   8.608  0.2153 -0.3200  0.4505
   96SAPS  H18X 9606   4.499   5.760   8.685 -0.8267 -0.1775  0.6004
   96SAPS  H18Y 9607   4.551   5.687   8.524  1.1491  1.2257  1.2683
   96SAPS  H18Z 9608   4.494   5.594   8.674 -1.1492 -0.0550  1.1559
   97SAPS     N 9609   5.925   4.538   6.515 -0.0858 -0.3161 -0.8799
   97SAPS   HN1 9610   5.828   4.573   6.527  0.9462  2.3089  0.6168
   97SAPS   HN2 9611   5.955   4.489   6.602  0.6669  1.7094  0.0453
   97SAPS   HN3 9612   5.987   4.620   6.502  1.1842 -1.3501 -1.6175
   97SAPS   C12 9613   5.942   4.451   6.397  0.7479  0.2182 -0.5568
   97SAPS  H12A 9614   5.922   4.513   6.311 -2.4118  1.8547  1.1857
   97SAPS   C13 9615   6.076   4.370   6.389 -0.4902 -0.3849  0.1772
   97SAPS  O13A 9616   6.152   4.374   6.483 -0.3025 -0.0042 -0.4931
   97SAPS  O13B 9617   6.099   4.288   6.296  0.3100 -0.4422 -0.1726
   97SAPS   C11 9618   5.818   4.361   6.382  0.5340  0.4856 -0.9391
   97SAPS  H11A 9619   5.811   4.287   6.465  0.1772  1.3074 -0.2169
   97SAPS  H11B 9620   5.841   4.307   6.288  0.7649 -1.6837  0.2937
   97SAPS     P 9621   5.580   4.456   6.451  0.2001 -0.0747 -0.4640
   97SAPS   O13 9622   5.631   4.536   6.568 -0.0269 -0.2810  0.2095
   97SAPS   O14 9623   5.475   4.518   6.371 -0.3093  0.3811 -0.0346
   97SAPS   O12 9624   5.697   4.431   6.354  0.0558 -0.1681  0.2363
   97SAPS   O11 9625   5.536   4.312   6.496  0.0258  0.0651 -0.3131
   97SAPS    C1 9626   5.400   4.262   6.509 -0.0848 -0.1298 -0.2477
   97SAPS    HA 9627   5.329   4.307   6.436 -0.1734 -1.2672 -0.8950
   97SAPS    HB 9628   5.394   4.151   6.507 -2.7385 -0.0507 -0.0501
   97SAPS    C2 9629   5.337   4.311   6.643 -0.3837  0.2415  0.6615
   97SAPS    HS 9630   5.342   4.422   6.647 -1.6203  0.5435 -2.9340
   97SAPS   O21 9631   5.416   4.240   6.739 -0.1196 -0.3581 -0.3931
   97SAPS   C21 9632   5.445   4.315   6.847 -0.3371 -0.1749  0.1045
   97SAPS   O22 9633   5.423   4.440   6.853 -0.3626  0.4756  0.2548
   97SAPS   C22 9634   5.507   4.224   6.948 -0.1924 -0.1794 -0.7910
   97SAPS   H2R 9635   5.505   4.119   6.910 -0.1960  0.1104 -1.6130
   97SAPS   H2S 9636   5.617   4.240   6.958 -0.2285 -0.3333 -0.0924
   97SAPS    C3 9637   5.192   4.266   6.655 -0.2436  0.2225 -0.2216
   97SAPS    HX 9638   5.182   4.155   6.648  0.5340  0.0871  0.6784
   97SAPS    HY 9639   5.131   4.306   6.571  0.1047  0.1353 -0.5193
   97SAPS   O31 9640   5.133   4.300   6.784 -0.1758  0.1995 -0.5054
   97SAPS   C31 9641   5.115   4.431   6.798 -0.3193 -0.4550  0.0093
   97SAPS   O32 9642   5.148   4.516   6.719  0.1322  0.5888  0.0832
   97SAPS   C32 9643   5.020   4.460   6.918  0.3269 -0.1463 -1.1615
   97SAPS   H2X 9644   4.922   4.412   6.899 -0.3935  1.5420 -1.9460
   97SAPS   H2Y 9645   5.006   4.570   6.927  0.5148  0.0650 -3.0856
   97SAPS   C23 9646   5.416   4.225   7.078 -0.3585  0.2343 -0.6869
   97SAPS   H3R 9647   5.309   4.201   7.059 -0.2550 -2.0498  1.0621
   97SAPS   H3S 9648   5.415   4.330   7.112 -0.9253 -0.1865  0.6763
   97SAPS   C24 9649   5.471   4.146   7.194 -0.6824  0.2684  0.1509
   97SAPS   H4R 9650   5.570   4.194   7.203 -0.2969 -0.0132 -2.0684
   97SAPS   H4S 9651   5.476   4.038   7.168  0.3576  0.7514 -1.7866
   97SAPS   C25 9652   5.380   4.162   7.318 -0.2778  0.2301  0.4070
   97SAPS   H5R 9653   5.272   4.161   7.300 -0.4310 -2.5506  0.9575
   97SAPS   C26 9654   5.415   4.173   7.444 -0.5466 -0.1921 -0.8118
   97SAPS   H6R 9655   5.332   4.156   7.513 -0.9919 -0.1240 -1.3281
   97SAPS   C27 9656   5.547   4.171   7.511 -0.0002 -0.6282  0.5703
   97SAPS   H7R 9657   5.588   4.261   7.562 -3.7033  0.0572  2.7302
   97SAPS   H7S 9658   5.610   4.151   7.423 -1.4901 -2.2321 -0.1898
   97SAPS   C28 9659   5.548   4.048   7.599  0.4663 -0.7671 -0.4306
   97SAPS   H8R 9660   5.515   3.962   7.538 -1.6919  0.2673 -0.8187
   97SAPS   C29 9661   5.569   4.029   7.728  0.1207  0.6203 -0.4268
   97SAPS   H9R 9662   5.561   3.927   7.770 -1.9184  0.8608 -0.1548
   97SAPS  C210 9663   5.607   4.138   7.828 -0.2206 -0.0174  0.4328
   97SAPS  H10R 9664   5.603   4.102   7.933  0.9207  2.9903  1.6334
   97SAPS  H10S 9665   5.538   4.224   7.839 -1.2872 -0.9744  1.5221
   97SAPS  C211 9666   5.744   4.205   7.804  0.7246 -0.0308 -0.7147
   97SAPS  H11R 9667   5.775   4.218   7.700  0.8486 -1.4652 -0.8811
   97SAPS  C212 9668   5.841   4.225   7.892 -0.0539  0.0079  0.3456
   97SAPS  H12R 9669   5.940   4.266   7.868  1.3799 -2.1595  2.1371
   97SAPS  C213 9670   5.826   4.202   8.045  0.4105  0.1695 -0.0031
   97SAPS  H13R 9671   5.722   4.208   8.083  0.3092  0.2795 -0.2980
   97SAPS  H13S 9672   5.875   4.288   8.095  2.0139 -1.6423  1.7429
   97SAPS  C214 9673   5.910   4.087   8.099  0.2199  0.2312 -0.5275
   97SAPS  H14R 9674   5.982   4.047   8.026  0.0315 -1.1886  0.0205
   97SAPS  C215 9675   5.897   4.033   8.221  0.5257 -0.3292 -0.5249
   97SAPS  H15R 9676   5.957   3.944   8.245 -0.7016 -0.8354  0.8029
   97SAPS  C216 9677   5.801   4.077   8.328 -0.9769  0.0720 -0.0052
   97SAPS  H16R 9678   5.773   3.979   8.372 -1.5245  0.8423  1.3984
   97SAPS  H16S 9679   5.713   4.130   8.285  0.0439  1.8456 -0.0359
   97SAPS  C217 9680   5.884   4.165   8.417 -0.4121 -0.1777 -0.1554
   97SAPS  H17R 9681   5.903   4.263   8.367 -0.4441  0.4667  1.0521
   97SAPS  H17S 9682   5.983   4.123   8.442 -0.6993 -0.2139  0.9893
   97SAPS  C218 9683   5.814   4.183   8.553  0.0327 -0.2180  0.5677
   97SAPS  H18R 9684   5.798   4.090   8.612 -2.8247  0.3599  0.8329
   97SAPS  H18S 9685   5.708   4.213   8.537 -0.8573 -2.2156  2.2783
   97SAPS  C219 9686   5.882   4.289   8.632  0.3912  0.5118 -0.4032
   97SAPS  H19R 9687   5.881   4.374   8.562  1.2265  1.3997  0.6189
   97SAPS  H19S 9688   5.989   4.259   8.644 -0.1049 -1.0830  0.4242
   97SAPS  C220 9689   5.809   4.314   8.766  0.0172 -1.0478 -0.0538
   97SAPS  H20R 9690   5.826   4.229   8.835  3.3866 -0.9477 -0.6035
   97SAPS  H20S 9691   5.701   4.336   8.749  0.1124 -1.0900 -0.7812
   97SAPS  H20T 9692   5.854   4.403   8.815  0.5730 -0.6819 -1.1797
   97SAPS   C33 9693   5.072   4.403   7.058 -0.1603  0.1971 -0.1829
   97SAPS   H3X 9694   5.167   4.453   7.086 -0.3930  1.2223 -1.1365
   97SAPS   H3Y 9695   5.099   4.296   7.049  0.9385  0.3806  0.7867
   97SAPS   C34 9696   4.966   4.421   7.167 -0.3403  0.2243 -0.5105
   97SAPS   H4X 9697   4.873   4.369   7.138  0.3155 -0.9161 -0.6366
   97SAPS   H4Y 9698   4.948   4.529   7.185  0.4175 -0.0780  2.6126
   97SAPS   C35 9699   5.014   4.343   7.290 -0.4694  0.0251  0.4478
   97SAPS   H5X 9700   5.113   4.380   7.324 -0.9035  1.4273  0.2190
   97SAPS   H5Y 9701   5.028   4.236   7.262  0.9967 -0.0270  1.2540
   97SAPS   C36 9702   4.921   4.355   7.416  0.3603 -1.3543  0.6933
   97SAPS   H6X 9703   4.820   4.327   7.379  0.9517 -0.9496 -1.3216
   97SAPS   H6Y 9704   4.916   4.464   7.437 -1.1367 -1.4673  1.0751
   97SAPS   C37 9705   4.981   4.277   7.527  0.0578 -0.6154 -0.4287
   97SAPS   H7X 9706   5.078   4.327   7.545 -1.0170  2.5090 -2.4468
   97SAPS   H7Y 9707   4.982   4.167   7.508  0.3937 -0.9973  1.6241
   97SAPS   C38 9708   4.917   4.291   7.665  0.1859  0.5915  0.5320
   97SAPS   H8X 9709   4.813   4.259   7.646  0.5730 -0.9480  0.8952
   97SAPS   H8Y 9710   4.934   4.397   7.696  1.1955  1.1183 -1.6473
   97SAPS   C39 9711   4.977   4.194   7.774  0.0817  0.0288  0.3145
   97SAPS   H9X 9712   5.085   4.222   7.782  0.1766 -0.4616  0.7653
   97SAPS   H9Y 9713   4.973   4.089   7.738  1.3944  0.6026 -1.6905
   97SAPS  C310 9714   4.917   4.204   7.917 -1.0566 -0.5557  0.3936
   97SAPS  H10X 9715   4.809   4.184   7.901 -0.6933 -2.6308  0.2323
   97SAPS  H10Y 9716   4.940   4.306   7.954  1.4214 -0.1412 -1.9351
   97SAPS  C311 9717   4.981   4.101   8.004 -1.0407  0.4036 -0.3738
   97SAPS  H11X 9718   5.091   4.117   7.998 -1.1827  1.9500  0.5578
   97SAPS  H11Y 9719   4.968   3.996   7.971  1.4534  0.0237 -0.3269
   97SAPS  C312 9720   4.928   4.112   8.150 -0.0949 -0.2710 -0.8090
   97SAPS  H12X 9721   4.974   4.029   8.208  0.6916 -0.3068 -1.4708
   97SAPS  H12Y 9722   4.821   4.084   8.156 -0.9286  2.4564 -1.4860
   97SAPS  C313 9723   4.975   4.246   8.224 -0.5322  0.7441  0.4012
   97SAPS  H13X 9724   4.947   4.325   8.151 -1.5845 -0.9630 -1.1328
   97SAPS  H13Y 9725   5.086   4.243   8.237 -0.6197 -0.4379  0.9784
   97SAPS  C314 9726   4.911   4.264   8.364  0.1831  0.0802  0.2766
   97SAPS  H14X 9727   4.944   4.180   8.427 -2.6088 -0.8457  0.6626
   97SAPS  H14Y 9728   4.802   4.243   8.350  0.3687 -1.5348  1.0018
   97SAPS  C315 9729   4.947   4.400   8.430  0.4954  0.7606 -0.1978
   97SAPS  H15X 9730   4.850   4.435   8.472 -0.5405 -1.6728 -0.3740
   97SAPS  H15Y 9731   4.971   4.466   8.343 -1.4350 -0.2553 -1.5798
   97SAPS  C316 9732   5.059   4.398   8.538  0.1076  0.3101  0.2745
   97SAPS  H16X 9733   5.019   4.349   8.629  2.4044 -0.2890  1.0263
   97SAPS  H16Y 9734   5.071   4.504   8.571  0.7544  0.0460  0.8951
   97SAPS  C317 9735   5.189   4.331   8.502  0.2123 -0.2468  0.2602
   97SAPS  H17X 9736   5.236   4.384   8.416 -0.5133  1.1164  0.6887
   97SAPS  H17Y 9737   5.177   4.227   8.464 -1.1435 -0.5074  1.3485
   97SAPS  C318 9738   5.287   4.329   8.621 -0.8030  0.3863 -0.1793
   97SAPS  H18X 9739   5.369   4.256   8.606 -2.7917 -2.1738  0.5865
   97SAPS  H18Y 9740   5.248   4.302   8.722  1.1526 -1.5772  0.1237
   97SAPS  H18Z 9741   5.331   4.430   8.624  1.4264 -0.5346 -0.4298
   98SAPS     N 9742   3.890   4.050   5.776  0.0495  0.3308 -0.3891
   98SAPS   HN1 9743   3.864   3.969   5.836 -1.4907 -0.0233 -1.4581
   98SAPS   HN2 9744   3.835   4.130   5.813  0.0328  0.4441 -0.6564
   98SAPS   HN3 9745   3.848   4.037   5.681 -1.5979 -2.4658  0.5914
   98SAPS   C12 9746   4.033   4.095   5.777 -0.3598 -0.2276  0.4519
   98SAPS  H12A 9747   4.091   4.007   5.752  2.5720  1.6037  0.3551
   98SAPS   C13 9748   4.070   4.216   5.689  0.5232 -0.1781  0.3603
   98SAPS  O13A 9749   3.980   4.292   5.640  0.7866  0.0260 -0.2957
   98SAPS  O13B 9750   4.193   4.254   5.686  0.6979 -0.2534  0.0730
   98SAPS   C11 9751   4.081   4.129   5.919  0.3766 -0.0461  0.8765
   98SAPS  H11A 9752   4.017   4.208   5.965  1.5755  1.0211  0.7610
   98SAPS  H11B 9753   4.183   4.173   5.914 -0.7043  2.5594 -0.2892
   98SAPS     P 9754   4.153   3.972   6.127 -0.3527 -0.0139 -1.0875
   98SAPS   O13 9755   4.129   3.832   6.179 -0.0428 -0.2118  0.0029
   98SAPS   O14 9756   4.294   4.007   6.108  0.3002 -0.4054 -0.7316
   98SAPS   O12 9757   4.072   4.012   6.000 -0.0538  0.7784  0.3619
   98SAPS   O11 9758   4.097   4.072   6.241 -0.3064 -0.9078  0.1976
   98SAPS    C1 9759   3.961   4.074   6.282 -0.2199  0.4436  0.1328
   98SAPS    HA 9760   3.908   4.146   6.215 -0.2547 -1.0895 -1.5816
   98SAPS    HB 9761   3.913   3.975   6.265  0.0047 -0.3509  3.4465
   98SAPS    C2 9762   3.948   4.114   6.428  0.1363 -0.1315 -0.2473
   98SAPS    HS 9763   3.838   4.124   6.442 -0.2691 -0.3431 -2.8590
   98SAPS   O21 9764   4.012   4.245   6.440  0.1604 -0.0795 -0.0837
   98SAPS   C21 9765   3.955   4.318   6.536 -0.6554  0.7389  0.6001
   98SAPS   O22 9766   3.862   4.287   6.607  0.0871 -1.1895  0.0340
   98SAPS   C22 9767   4.026   4.452   6.538  0.1280  0.2045 -0.1626
   98SAPS   H2R 9768   4.058   4.477   6.435  0.8008  0.5971  0.1355
   98SAPS   H2S 9769   3.951   4.528   6.567 -0.3467  0.5331 -2.0879
   98SAPS    C3 9770   4.010   4.013   6.529 -0.3322  0.8402 -0.1186
   98SAPS    HX 9771   4.109   4.060   6.549 -0.3235 -0.1025  2.3103
   98SAPS    HY 9772   4.017   3.921   6.468 -0.8845  0.3893  0.4884
   98SAPS   O31 9773   3.935   4.002   6.653 -0.0400 -0.1645 -0.2959
   98SAPS   C31 9774   4.005   3.937   6.748 -0.1111 -0.5510 -1.2189
   98SAPS   O32 9775   4.119   3.897   6.741 -0.4277  0.0966 -0.0861
   98SAPS   C32 9776   3.902   3.909   6.860  0.4092  0.4457  0.2162
   98SAPS   H2X 9777   3.826   3.839   6.819  0.5283  0.8064 -0.6656
   98SAPS   H2Y 9778   3.855   4.009   6.875  1.1581  0.8135  0.1650
   98SAPS   C23 9779   4.140   4.459   6.651 -0.4110 -0.1623  0.4285
   98SAPS   H3R 9780   4.199   4.553   6.643 -0.6129 -0.0343  0.4368
   98SAPS   H3S 9781   4.203   4.372   6.623  2.8640  2.0551  0.3645
   98SAPS   C24 9782   4.087   4.427   6.785 -0.9157 -0.6214 -0.0823
   98SAPS   H4R 9783   4.039   4.327   6.788 -1.0315 -0.5551  0.3215
   98SAPS   H4S 9784   4.000   4.495   6.799 -0.1507  0.2353  0.6425
   98SAPS   C25 9785   4.198   4.454   6.886  0.0762  0.4605  0.5083
   98SAPS   H5R 9786   4.256   4.546   6.869 -1.7116  2.3198  3.5907
   98SAPS   C26 9787   4.233   4.375   6.987 -0.1122 -0.0108 -0.8748
   98SAPS   H6R 9788   4.322   4.405   7.045  0.0504 -0.4815 -0.8732
   98SAPS   C27 9789   4.164   4.246   7.026 -0.2407  0.1710 -0.0278
   98SAPS   H7R 9790   4.233   4.191   7.093 -0.5814 -0.4452 -0.1770
   98SAPS   H7S 9791   4.142   4.186   6.935 -0.7904  0.0269  0.2032
   98SAPS   C28 9792   4.034   4.276   7.091 -0.7060 -0.3337  0.4963
   98SAPS   H8R 9793   3.968   4.328   7.021  0.9535  0.2608 -0.6753
   98SAPS   C29 9794   3.990   4.251   7.213  0.5209  0.2100  0.7316
   98SAPS   H9R 9795   3.891   4.291   7.242  1.2189  1.4694  1.4359
   98SAPS  C210 9796   4.063   4.174   7.321 -0.1282 -0.0494  0.6141
   98SAPS  H10R 9797   4.145   4.110   7.281  0.5609  1.0522  0.2204
   98SAPS  H10S 9798   3.996   4.106   7.378 -1.3779 -0.5824 -1.4040
   98SAPS  C211 9799   4.138   4.274   7.399  0.6650  0.3541 -0.8001
   98SAPS  H11R 9800   4.195   4.359   7.356 -0.1886  1.7335  0.6626
   98SAPS  C212 9801   4.142   4.298   7.535 -0.8544  0.5749  0.5792
   98SAPS  H12R 9802   4.213   4.368   7.581 -0.0075  1.7744 -2.3509
   98SAPS  C213 9803   4.082   4.207   7.638 -0.4595 -0.1618 -0.6608
   98SAPS  H13R 9804   4.051   4.109   7.594 -0.0799 -0.0017 -1.3085
   98SAPS  H13S 9805   3.984   4.247   7.672 -0.9243 -0.8313 -1.1685
   98SAPS  C214 9806   4.169   4.174   7.752  0.5583 -0.1713  0.7557
   98SAPS  H14R 9807   4.258   4.119   7.716  0.0466 -1.1142  0.8874
   98SAPS  C215 9808   4.152   4.172   7.888 -0.0392  0.3950  0.0497
   98SAPS  H15R 9809   4.223   4.119   7.955  0.1347 -2.0689 -1.9339
   98SAPS  C216 9810   4.032   4.225   7.956  0.0641 -0.5953 -0.3185
   98SAPS  H16R 9811   3.948   4.157   7.930 -0.9180  0.1313  0.7963
   98SAPS  H16S 9812   3.999   4.325   7.921 -2.6920 -0.4038  2.3600
   98SAPS  C217 9813   4.024   4.224   8.109 -0.1471  0.1677 -0.7501
   98SAPS  H17R 9814   3.921   4.258   8.133  0.6979  1.7727  0.7666
   98SAPS  H17S 9815   4.094   4.299   8.151 -0.3715 -1.0626  2.0392
   98SAPS  C218 9816   4.045   4.088   8.180 -0.2029  0.2527 -0.1162
   98SAPS  H18R 9817   4.143   4.042   8.153  0.2409  0.5758  0.8530
   98SAPS  H18S 9818   3.962   4.025   8.142 -0.0283  0.3554 -0.6757
   98SAPS  C219 9819   4.030   4.107   8.336  0.6276 -0.1191 -0.8451
   98SAPS  H19R 9820   3.926   4.140   8.359  0.9923 -0.1598  0.9743
   98SAPS  H19S 9821   4.091   4.196   8.363  0.9907 -0.6116 -0.0382
   98SAPS  C220 9822   4.058   3.982   8.420 -0.7600 -0.1160 -0.3880
   98SAPS  H20R 9823   4.151   3.930   8.390  0.1433  2.3074 -2.1129
   98SAPS  H20S 9824   3.976   3.907   8.414 -0.5102 -0.3132 -1.5092
   98SAPS  H20T 9825   4.069   4.003   8.529  2.5676 -0.1605 -0.6244
   98SAPS   C33 9826   3.961   3.856   6.990 -1.0967 -0.3076  0.4665
   98SAPS   H3X 9827   4.062   3.896   7.015 -0.4939 -2.0715  0.9525
   98SAPS   H3Y 9828   3.982   3.749   6.971 -4.5230 -0.6544 -2.4819
   98SAPS   C34 9829   3.870   3.862   7.102  0.2333 -0.3300 -0.4334
   98SAPS   H4X 9830   3.776   3.808   7.074 -0.2550 -1.0704  2.3069
   98SAPS   H4Y 9831   3.849   3.971   7.110  2.9407  0.2103  0.3099
   98SAPS   C35 9832   3.918   3.820   7.244  0.0053  0.5351  0.1983
   98SAPS   H5X 9833   4.005   3.887   7.259 -0.2932  1.5901 -2.1993
   98SAPS   H5Y 9834   3.940   3.711   7.237  0.5582  0.4932  2.1197
   98SAPS   C36 9835   3.811   3.845   7.347  0.4101 -0.0164 -0.6424
   98SAPS   H6X 9836   3.712   3.809   7.314 -0.2431 -0.1017  1.2908
   98SAPS   H6Y 9837   3.800   3.954   7.363 -0.6656 -0.1196 -0.6186
   98SAPS   C37 9838   3.831   3.784   7.492  0.6106  0.0703  0.5735
   98SAPS   H7X 9839   3.838   3.674   7.476  1.8055  0.2733 -0.4586
   98SAPS   H7Y 9840   3.742   3.818   7.549  0.4568 -0.5629  0.7189
   98SAPS   C38 9841   3.960   3.821   7.558 -0.3512 -0.4948 -0.6436
   98SAPS   H8X 9842   3.955   3.932   7.567 -3.8638 -0.5607 -0.4935
   98SAPS   H8Y 9843   4.044   3.788   7.493  0.5363  0.7217 -0.1707
   98SAPS   C39 9844   3.959   3.765   7.696  0.5868  0.4069 -0.0027
   98SAPS   H9X 9845   3.973   3.658   7.670  0.3171 -0.1962  2.1762
   98SAPS   H9Y 9846   3.859   3.768   7.745 -0.0956 -1.5500 -1.1246
   98SAPS  C310 9847   4.073   3.797   7.784 -0.5123  0.5055 -0.5810
   98SAPS  H10X 9848   4.080   3.907   7.791 -0.3707  0.4236  0.8491
   98SAPS  H10Y 9849   4.160   3.763   7.725  0.6610  1.7477  0.3690
   98SAPS  C311 9850   4.071   3.725   7.924  0.1150 -0.5059  0.4331
   98SAPS  H11X 9851   4.148   3.773   7.987 -0.2752  1.3698 -0.4581
   98SAPS  H11Y 9852   4.096   3.620   7.897 -0.4659 -0.2376 -1.2898
   98SAPS  C312 9853   3.938   3.729   7.997  0.6662  0.2380 -0.5550
   98SAPS  H12X 9854   3.862   3.666   7.947  0.3428  0.2690 -0.1138
   98SAPS  H12Y 9855   3.896   3.830   8.017 -0.9919 -0.3088 -1.1421
   98SAPS  C313 9856   3.951   3.672   8.138 -0.1696  0.0060 -0.5822
   98SAPS  H13X 9857   4.012   3.750   8.188  1.0300  0.4979 -2.6895
   98SAPS  H13Y 9858   3.997   3.572   8.134 -0.2156 -0.0770  0.6654
   98SAPS  C314 9859   3.813   3.657   8.203 -0.2688 -0.0550  0.1556
   98SAPS  H14X 9860   3.819   3.599   8.298 -3.1391 -1.0768 -0.1687
   98SAPS  H14Y 9861   3.752   3.595   8.134  1.0958 -0.3144 -0.8541
   98SAPS  C315 9862   3.738   3.780   8.238  0.1339 -0.1376 -0.6873
   98SAPS  H15X 9863   3.694   3.833   8.151  1.8706 -0.4438 -1.8001
   98SAPS  H15Y 9864   3.824   3.838   8.280 -0.9450  2.2506 -1.5981
   98SAPS  C316 9865   3.639   3.752   8.346  0.1911  0.2710  0.3577
   98SAPS  H16X 9866   3.584   3.842   8.379 -2.2281 -0.7258 -0.6870
   98SAPS  H16Y 9867   3.675   3.709   8.442 -0.2401  1.8480  1.2548
   98SAPS  C317 9868   3.529   3.664   8.309 -0.3043  0.4441  0.4984
   98SAPS  H17X 9869   3.563   3.559   8.298 -1.7246  0.0959 -0.9276
   98SAPS  H17Y 9870   3.500   3.696   8.206 -0.2635  0.2151  0.4156
   98SAPS  C318 9871   3.417   3.672   8.422 -0.4542  0.0756 -0.3564
   98SAPS  H18X 9872   3.328   3.608   8.402  0.1846 -1.0076  0.1733
   98SAPS  H18Y 9873   3.383   3.776   8.439  0.5680  0.4675 -0.6482
   98SAPS  H18Z 9874   3.458   3.642   8.521  2.0783 -0.5030 -1.5038
   99SAPS     N 9875   3.410   2.319   6.160  0.0152 -0.1848 -0.0820
   99SAPS   HN1 9876   3.415   2.359   6.256 -2.4496  0.4873 -0.1464
   99SAPS   HN2 9877   3.332   2.250   6.159 -0.5482  0.3670 -2.8611
   99SAPS   HN3 9878   3.501   2.274   6.138 -0.4472 -0.1661 -2.2663
   99SAPS   C12 9879   3.384   2.428   6.066  0.0648 -0.2200  0.6966
   99SAPS  H12A 9880   3.412   2.523   6.110  2.5354  0.1899 -1.5112
   99SAPS   C13 9881   3.462   2.428   5.927  0.7623  0.0386 -0.3525
   99SAPS  O13A 9882   3.554   2.347   5.919  0.6082 -0.5606  0.1711
   99SAPS  O13B 9883   3.465   2.527   5.853 -0.2658 -0.5218  0.2428
   99SAPS   C11 9884   3.231   2.426   6.035 -0.2591 -0.0035  1.0388
   99SAPS  H11A 9885   3.209   2.324   5.996 -3.3768  0.5330  1.1879
   99SAPS  H11B 9886   3.204   2.495   5.952 -0.4309 -0.4794  0.6966
   99SAPS     P 9887   3.119   2.571   6.228 -0.2561  0.0990 -0.1024
   99SAPS   O13 9888   3.199   2.684   6.173 -0.3933 -0.1102  0.4160
   99SAPS   O14 9889   2.975   2.600   6.255 -0.2665  0.0952 -0.1911
   99SAPS   O12 9890   3.142   2.438   6.145 -0.2831 -0.2699  0.5900
   99SAPS   O11 9891   3.193   2.525   6.360  0.4711 -0.0512 -0.1767
   99SAPS    C1 9892   3.178   2.396   6.418 -0.0208  0.9575  0.1639
   99SAPS    HA 9893   3.145   2.313   6.352  0.4716  1.4312 -0.6844
   99SAPS    HB 9894   3.278   2.364   6.454  0.0454 -1.5226 -1.9796
   99SAPS    C2 9895   3.068   2.405   6.526 -0.0543  0.2123 -0.2663
   99SAPS    HS 9896   2.987   2.472   6.494 -0.1213  0.1715 -0.1814
   99SAPS   O21 9897   3.135   2.462   6.638 -0.4692  0.2749  0.1357
   99SAPS   C21 9898   3.093   2.583   6.680  0.2140  0.5757  0.6067
   99SAPS   O22 9899   3.012   2.653   6.620 -0.2650 -0.2571  0.1158
   99SAPS   C22 9900   3.149   2.618   6.819 -0.5458 -0.2698 -0.0406
   99SAPS   H2R 9901   3.179   2.527   6.874  2.7467 -1.3272 -3.2204
   99SAPS   H2S 9902   3.240   2.679   6.801  0.2019 -1.2794  0.2480
   99SAPS    C3 9903   3.005   2.275   6.581  0.2592 -0.1586  0.4838
   99SAPS    HX 9904   3.087   2.201   6.599  0.5081  0.3016  1.2889
   99SAPS    HY 9905   2.944   2.228   6.501 -0.0781  1.8215 -0.4850
   99SAPS   O31 9906   2.932   2.284   6.712  0.0045 -0.0614  0.7243
   99SAPS   C31 9907   2.832   2.365   6.724 -0.1848  0.3685  0.2813
   99SAPS   O32 9908   2.781   2.430   6.632  0.2761 -0.0025  0.2917
   99SAPS   C32 9909   2.765   2.365   6.865  0.3694  0.0444  0.1304
   99SAPS   H2X 9910   2.839   2.398   6.941  1.4721 -1.2703 -0.3169
   99SAPS   H2Y 9911   2.750   2.256   6.885  3.4102 -0.7380 -1.1900
   99SAPS   C23 9912   3.048   2.706   6.908 -0.4841 -0.1245 -0.0670
   99SAPS   H3R 9913   2.962   2.642   6.937  0.4445 -1.0568  0.7267
   99SAPS   H3S 9914   2.998   2.782   6.845 -2.6700 -1.7458 -0.4411
   99SAPS   C24 9915   3.121   2.766   7.028  0.1540 -0.0857  0.1627
   99SAPS   H4R 9916   3.185   2.681   7.063  1.4132  0.5944 -0.4157
   99SAPS   H4S 9917   3.049   2.793   7.108  0.4380  2.3134 -0.3058
   99SAPS   C25 9918   3.194   2.892   6.999 -0.7576 -0.0666 -0.5396
   99SAPS   H5R 9919   3.156   2.964   6.925 -1.2892 -1.1198 -1.3107
   99SAPS   C26 9920   3.315   2.914   7.047 -0.3775  0.4079  0.0745
   99SAPS   H6R 9921   3.376   3.003   7.026  0.1887  0.5168  1.9362
   99SAPS   C27 9922   3.391   2.818   7.135 -0.2386 -0.2585  0.2104
   99SAPS   H7R 9923   3.418   2.728   7.074  2.4460 -1.4027  2.8620
   99SAPS   H7S 9924   3.312   2.791   7.209  0.2201  1.0989  1.2296
   99SAPS   C28 9925   3.517   2.876   7.195  0.0539 -0.2548 -0.0515
   99SAPS   H8R 9926   3.520   2.986   7.205 -2.3677 -0.1720  0.3723
   99SAPS   C29 9927   3.616   2.802   7.251 -0.0211 -0.5344 -0.4309
   99SAPS   H9R 9928   3.687   2.857   7.316 -0.3978 -0.8758  0.2838
   99SAPS  C210 9929   3.627   2.651   7.271 -0.6657  0.1517  0.3338
   99SAPS  H10R 9930   3.716   2.643   7.337  0.7962  2.3423 -1.2286
   99SAPS  H10S 9931   3.655   2.603   7.175 -0.6917  0.1955  0.3044
   99SAPS  C211 9932   3.512   2.581   7.335  0.2350  0.1553  0.1004
   99SAPS  H11R 9933   3.414   2.606   7.293 -0.4800  0.1706  1.7234
   99SAPS  C212 9934   3.516   2.485   7.429 -0.0233 -0.2036  0.2045
   99SAPS  H12R 9935   3.417   2.443   7.448  0.7069 -1.7724  0.7089
   99SAPS  C213 9936   3.642   2.421   7.498 -0.8247 -0.5121  0.2414
   99SAPS  H13R 9937   3.656   2.469   7.597 -1.3845  0.5132 -0.1542
   99SAPS  H13S 9938   3.732   2.436   7.435 -1.7584  0.5697 -0.9003
   99SAPS  C214 9939   3.615   2.275   7.522  0.2673  0.7200 -1.0093
   99SAPS  H14R 9940   3.594   2.218   7.431  1.6994 -1.5822  0.0031
   99SAPS  C215 9941   3.625   2.194   7.634  0.0574 -0.0621 -0.0945
   99SAPS  H15R 9942   3.584   2.092   7.627 -1.1446  0.0079  3.6100
   99SAPS  C216 9943   3.651   2.255   7.767  0.4558  0.4308  0.0851
   99SAPS  H16R 9944   3.721   2.342   7.761  0.9120  0.0585 -0.0495
   99SAPS  H16S 9945   3.707   2.175   7.819 -0.9578 -1.0737 -0.6245
   99SAPS  C217 9946   3.530   2.301   7.849 -0.4292  0.0216 -0.1999
   99SAPS  H17R 9947   3.476   2.207   7.873 -0.0733  0.2297  1.5438
   99SAPS  H17S 9948   3.472   2.375   7.790 -0.3089 -0.6126 -1.1445
   99SAPS  C218 9949   3.578   2.367   7.982 -0.4114  0.0345  0.3670
   99SAPS  H18R 9950   3.651   2.291   8.017 -2.1784 -2.2414 -0.6325
   99SAPS  H18S 9951   3.495   2.387   8.054 -0.7999 -1.1935  0.2843
   99SAPS  C219 9952   3.653   2.505   7.963  0.4232  0.4735  0.4128
   99SAPS  H19R 9953   3.588   2.564   7.896 -0.7151  1.6702  2.4814
   99SAPS  H19S 9954   3.747   2.481   7.908 -0.1083 -0.0436 -0.2863
   99SAPS  C220 9955   3.681   2.579   8.090 -0.0435 -0.5472  0.2984
   99SAPS  H20R 9956   3.723   2.678   8.062  1.2718 -1.4015 -0.8763
   99SAPS  H20S 9957   3.754   2.530   8.159  0.2891  1.2129  1.2714
   99SAPS  H20T 9958   3.589   2.612   8.142  0.0765 -0.5670  0.5267
   99SAPS   C33 9959   2.646   2.458   6.883  0.6156 -0.1433 -0.2294
   99SAPS   H3X 9960   2.564   2.415   6.822  0.2937  1.2809 -0.8627
   99SAPS   H3Y 9961   2.673   2.561   6.850  0.8957  1.0656  3.3005
   99SAPS   C34 9962   2.601   2.472   7.031 -0.8030  0.0326  0.1910
   99SAPS   H4X 9963   2.582   2.372   7.075 -1.3170  0.2334  0.4378
   99SAPS   H4Y 9964   2.508   2.532   7.040 -1.1206 -0.2884 -0.8776
   99SAPS   C35 9965   2.708   2.548   7.120  0.7420  0.2611  0.3582
   99SAPS   H5X 9966   2.738   2.646   7.077 -0.1768  0.3885 -0.0223
   99SAPS   H5Y 9967   2.795   2.480   7.127  0.8022  0.2848 -0.1744
   99SAPS   C36 9968   2.659   2.586   7.261  0.1361  0.4503  0.1510
   99SAPS   H6X 9969   2.631   2.498   7.323  3.5931 -1.0674 -0.1775
   99SAPS   H6Y 9970   2.577   2.660   7.256  0.5156  0.9468  0.9723
   99SAPS   C37 9971   2.777   2.656   7.331  0.3158  0.4156 -0.0261
   99SAPS   H7X 9972   2.814   2.725   7.252 -1.0974  0.1667 -0.9434
   99SAPS   H7Y 9973   2.856   2.581   7.352  0.2740 -0.3435 -2.3268
   99SAPS   C38 9974   2.733   2.737   7.461  0.0109  0.3328 -0.6414
   99SAPS   H8X 9975   2.653   2.811   7.440  1.3902  1.7256 -1.2138
   99SAPS   H8Y 9976   2.819   2.781   7.516 -0.8587 -0.3862  1.4011
   99SAPS   C39 9977   2.671   2.642   7.563 -1.0366  0.5447  0.1855
   99SAPS   H9X 9978   2.748   2.566   7.587 -1.2411  0.5784  0.9875
   99SAPS   H9Y 9979   2.589   2.584   7.517  1.1370 -0.2701 -2.9734
   99SAPS  C310 9980   2.636   2.698   7.704  0.3518  0.3307  0.0662
   99SAPS  H10X 9981   2.578   2.627   7.767 -0.2676  0.4872 -0.3166
   99SAPS  H10Y 9982   2.583   2.796   7.696  0.4858  0.2506 -2.4128
   99SAPS  C311 9983   2.764   2.720   7.792  0.6274 -0.0332  0.7457
   99SAPS  H11X 9984   2.813   2.809   7.746 -3.8286  1.3888 -1.9533
   99SAPS  H11Y 9985   2.833   2.636   7.774  0.4233  0.1241 -0.9074
   99SAPS  C312 9986   2.730   2.749   7.940  0.3782 -0.1187  0.4495
   99SAPS  H12X 9987   2.682   2.662   7.987  1.9815 -1.0256  0.4887
   99SAPS  H12Y 9988   2.668   2.841   7.951 -0.6480 -0.9226  1.4900
   99SAPS  C313 9989   2.855   2.767   8.032  0.5458  0.6814  1.0169
   99SAPS  H13X 9990   2.900   2.862   7.995 -0.6086  0.9236  0.1681
   99SAPS  H13Y 9991   2.917   2.678   8.008 -1.5382 -0.6855  0.5404
   99SAPS  C314 9992   2.811   2.785   8.174  0.4143  0.2635  0.4442
   99SAPS  H14X 9993   2.752   2.700   8.214 -1.6958  1.4422 -0.0055
   99SAPS  H14Y 9994   2.732   2.863   8.171 -0.9201 -1.0786 -1.1729
   99SAPS  C315 9995   2.931   2.818   8.268  0.2808 -0.5962  0.0231
   99SAPS  H15X 9996   2.890   2.843   8.368 -0.7955 -1.9118 -0.0577
   99SAPS  H15Y 9997   2.970   2.908   8.216  1.8155 -1.8568 -1.1079
   99SAPS  C316 9998   3.050   2.725   8.276 -0.5831  0.5075  1.7238
   99SAPS  H16X 9999   3.028   2.631   8.221 -0.7741  0.5499  1.7286
   99SAPS  H16Y10000   3.049   2.680   8.378  0.5161 -0.2421  1.4239
   99SAPS  C31710001   3.192   2.775   8.239  0.0877 -0.2141 -0.5626
   99SAPS  H17X10002   3.214   2.869   8.293 -2.8837  1.5245 -2.1370
   99SAPS  H17Y10003   3.187   2.801   8.131 -1.8102 -0.1328 -0.4853
   99SAPS  C31810004   3.312   2.676   8.276  0.8752 -0.2889 -1.1002
   99SAPS  H18X10005   3.305   2.661   8.385  1.2524 -0.3199 -1.0791
   99SAPS  H18Y10006   3.411   2.717   8.244  1.2167 -0.0415  0.2288
   99SAPS  H18Z10007   3.306   2.574   8.232  1.8107 -1.0543  0.4691
  100SAPS     N10008   5.735   2.694   6.278 -0.0480 -0.3000  0.1674
  100SAPS   HN110009   5.839   2.701   6.280 -0.0913  0.9826 -0.8687
  100SAPS   HN210010   5.690   2.749   6.354  0.7671 -0.0544  0.4776
  100SAPS   HN310011   5.710   2.595   6.297 -1.0622  0.0385  0.6815
  100SAPS   C1210012   5.696   2.741   6.143  0.0467 -0.1758  0.5109
  100SAPS  H12A10013   5.629   2.826   6.153 -1.3420 -0.9734 -1.3651
  100SAPS   C1310014   5.807   2.788   6.052  0.2414  0.0737  0.3594
  100SAPS  O13A10015   5.924   2.777   6.096 -0.5101  0.4790 -0.6166
  100SAPS  O13B10016   5.788   2.817   5.934 -0.0223 -0.5694  0.0107
  100SAPS   C1110017   5.616   2.632   6.078 -0.0834 -0.3796 -0.2430
  100SAPS  H11A10018   5.583   2.685   5.986  0.7974  3.5074  1.4335
  100SAPS  H11B10019   5.528   2.620   6.145  1.0739  2.6772  2.0996
  100SAPS     P10020   5.660   2.383   6.119  0.1940  0.0760 -0.4501
  100SAPS   O1310021   5.516   2.360   6.097 -0.3175 -0.0126 -0.0773
  100SAPS   O1410022   5.758   2.280   6.085  0.3693 -0.3362  0.0171
  100SAPS   O1210023   5.703   2.519   6.056 -0.1464 -0.0062  0.5459
  100SAPS   O1110024   5.678   2.423   6.271 -0.4080  0.0261  0.0609
  100SAPS    C110025   5.767   2.352   6.360 -0.0507  0.1647  0.3602
  100SAPS    HA10026   5.764   2.242   6.340 -0.6322  0.4168 -1.0443
  100SAPS    HB10027   5.867   2.396   6.340  0.3493 -1.8041 -2.5943
  100SAPS    C210028   5.730   2.374   6.510 -0.0451 -0.0326 -0.2611
  100SAPS    HS10029   5.620   2.362   6.519 -0.1319  0.9955  0.2749
  100SAPS   O2110030   5.765   2.510   6.558 -0.2193 -0.9118 -0.3877
  100SAPS   C2110031   5.687   2.556   6.652  0.6951  0.0942  0.1793
  100SAPS   O2210032   5.595   2.498   6.704  0.3520  0.1868 -1.0323
  100SAPS   C2210033   5.749   2.682   6.702 -0.0070  0.0879  0.4613
  100SAPS   H2R10034   5.855   2.660   6.727 -0.8325 -2.2286  2.2528
  100SAPS   H2S10035   5.753   2.743   6.609 -2.1142 -0.9348 -0.3573
  100SAPS    C310036   5.810   2.268   6.593  0.0724 -0.2501 -0.6810
  100SAPS    HX10037   5.912   2.291   6.555  0.5459  0.1760  0.7533
  100SAPS    HY10038   5.789   2.165   6.558  2.5866 -1.2931  0.6563
  100SAPS   O3110039   5.809   2.277   6.736 -0.1795  0.1122 -0.8844
  100SAPS   C3110040   5.694   2.236   6.791 -0.2674  0.4768  0.0716
  100SAPS   O3210041   5.605   2.178   6.731 -0.3993 -0.7641  0.6497
  100SAPS   C3210042   5.702   2.255   6.938  0.2817 -0.4570 -0.2557
  100SAPS   H2X10043   5.637   2.339   6.968  0.2743 -0.2072 -0.9720
  100SAPS   H2Y10044   5.806   2.283   6.967  0.5916 -0.8417 -0.9727
  100SAPS   C2310045   5.668   2.750   6.815  0.3042 -0.5158  0.4071
  100SAPS   H3R10046   5.684   2.691   6.908  0.7626 -0.0228  0.6470
  100SAPS   H3S10047   5.563   2.762   6.782  0.3910 -0.1907  0.2448
  100SAPS   C2410048   5.724   2.893   6.841  0.2891  0.1604 -0.0136
  100SAPS   H4R10049   5.746   2.943   6.744 -0.9568 -2.6960 -1.9017
  100SAPS   H4S10050   5.817   2.872   6.899 -0.8180  0.3777  1.9350
  100SAPS   C2510051   5.635   2.981   6.930 -0.3510  0.0622 -0.8691
  100SAPS   H5R10052   5.554   3.029   6.872 -1.0913 -2.1383 -1.7731
  100SAPS   C2610053   5.640   2.999   7.064  0.0340  0.8082 -0.3551
  100SAPS   H6R10054   5.569   3.071   7.107  1.7135  0.3052  3.7403
  100SAPS   C2710055   5.750   2.955   7.155  0.0888  0.2784 -0.0492
  100SAPS   H7R10056   5.830   3.030   7.137  0.1559  0.3159  0.4124
  100SAPS   H7S10057   5.779   2.858   7.110  1.7202  0.8889 -0.3956
  100SAPS   C2810058   5.713   2.955   7.300 -0.3987 -0.5672 -1.2286
  100SAPS   H8R10059   5.693   2.858   7.349  0.7388 -0.5039 -0.6026
  100SAPS   C2910060   5.720   3.064   7.381 -0.0510 -0.7151  0.0251
  100SAPS   H9R10061   5.691   3.048   7.486 -0.1840  3.0241  0.7124
  100SAPS  C21010062   5.743   3.207   7.342 -0.1670  0.0221 -0.5015
  100SAPS  H10R10063   5.769   3.220   7.235 -1.6517 -0.9427 -1.0128
  100SAPS  H10S10064   5.829   3.238   7.405  0.2588 -2.8669  0.5058
  100SAPS  C21110065   5.620   3.296   7.374 -0.0929  0.1794 -0.5321
  100SAPS  H11R10066   5.551   3.322   7.292 -0.2003 -0.5721 -0.6833
  100SAPS  C21210067   5.583   3.343   7.499  0.2620  0.1985 -0.3760
  100SAPS  H12R10068   5.509   3.423   7.511  1.4984  1.3401  0.0026
  100SAPS  C21310069   5.661   3.317   7.626 -0.1331  0.3784  0.0633
  100SAPS  H13R10070   5.644   3.211   7.654  0.7531 -0.5402 -2.5316
  100SAPS  H13S10071   5.619   3.386   7.702 -0.2657 -0.2294  0.5446
  100SAPS  C21410072   5.813   3.351   7.633  0.8450 -0.9002  0.5240
  100SAPS  H14R10073   5.846   3.394   7.537  1.4141 -0.5036  0.8911
  100SAPS  C21510074   5.894   3.350   7.739  0.5700  0.7340  0.4581
  100SAPS  H15R10075   5.994   3.396   7.732  0.7995  0.3044  0.8532
  100SAPS  C21610076   5.858   3.295   7.867  0.3489  0.6684 -0.6619
  100SAPS  H16R10077   5.759   3.246   7.867 -0.0585  1.4576  0.2187
  100SAPS  H16S10078   5.837   3.378   7.938 -0.5308 -0.8152  0.8686
  100SAPS  C21710079   5.962   3.192   7.930 -0.3556 -0.5429 -0.3453
  100SAPS  H17R10080   6.049   3.250   7.969 -1.0152  0.4106 -0.2586
  100SAPS  H17S10081   5.994   3.116   7.856  1.9573 -0.5553  0.5627
  100SAPS  C21810082   5.893   3.109   8.047 -0.1252 -0.0992  0.2201
  100SAPS  H18R10083   5.959   3.021   8.065 -0.8529 -0.6555  0.1901
  100SAPS  H18S10084   5.794   3.078   8.007  0.8712 -0.7013 -1.9358
  100SAPS  C21910085   5.881   3.192   8.178 -0.7821 -0.0932  0.4886
  100SAPS  H19R10086   5.785   3.246   8.192 -0.8478 -0.0911  0.0126
  100SAPS  H19S10087   5.957   3.273   8.167 -1.3600  0.3926 -0.0182
  100SAPS  C22010088   5.915   3.103   8.307 -0.7724  0.1701 -0.0093
  100SAPS  H20R10089   6.001   3.035   8.289  0.2164  1.7030 -1.4735
  100SAPS  H20S10090   5.826   3.039   8.327 -2.3756  2.0836 -0.6612
  100SAPS  H20T10091   5.931   3.158   8.402  1.2053 -0.0997 -0.1409
  100SAPS   C3310092   5.670   2.132   7.027  0.4719  0.6593  0.1169
  100SAPS   H3X10093   5.750   2.055   7.022 -1.5603 -1.6039  0.4429
  100SAPS   H3Y10094   5.577   2.079   6.995 -0.2926  0.6219  2.2025
  100SAPS   C3410095   5.657   2.183   7.176 -0.4110 -0.5938  0.1292
  100SAPS   H4X10096   5.556   2.157   7.213  0.7009 -2.2865  2.2595
  100SAPS   H4Y10097   5.670   2.293   7.169  0.5890 -0.6788  0.4191
  100SAPS   C3510098   5.753   2.118   7.268 -0.2420 -0.3148 -0.3046
  100SAPS   H5X10099   5.853   2.162   7.245 -0.5248  0.9549  0.7977
  100SAPS   H5Y10100   5.747   2.007   7.262 -3.0371 -0.1718 -2.0075
  100SAPS   C3610101   5.718   2.159   7.416 -0.3851  0.0641  0.3685
  100SAPS   H6X10102   5.624   2.104   7.440  1.0619 -1.3628  3.3190
  100SAPS   H6Y10103   5.709   2.269   7.421  1.8037  0.4836 -2.5502
  100SAPS   C3710104   5.831   2.113   7.510  0.5081 -0.1711 -0.1165
  100SAPS   H7X10105   5.921   2.176   7.500 -0.3791  0.7863 -3.6688
  100SAPS   H7Y10106   5.856   2.005   7.501  3.1142  0.4732 -1.4408
  100SAPS   C3810107   5.786   2.139   7.655  0.7894  0.3567  0.0178
  100SAPS   H8X10108   5.693   2.080   7.670  0.8319  0.4021  0.4782
  100SAPS   H8Y10109   5.763   2.247   7.664  0.2552  0.0927  2.3414
  100SAPS   C3910110   5.885   2.091   7.764 -0.1094  0.1866  0.0609
  100SAPS   H9X10111   5.973   2.157   7.781 -0.9762  0.9358  1.9073
  100SAPS   H9Y10112   5.921   1.993   7.725  1.6359  1.0316 -0.5833
  100SAPS  C31010113   5.815   2.059   7.901  0.5895 -0.4724  0.5751
  100SAPS  H10X10114   5.755   1.967   7.887 -0.5418  0.0720  1.5848
  100SAPS  H10Y10115   5.746   2.144   7.922 -0.1152 -1.0787  0.7545
  100SAPS  C31110116   5.912   2.059   8.016  0.0527  0.2008 -0.4032
  100SAPS  H11X10117   5.860   2.022   8.107  0.4107  0.1601 -0.2122
  100SAPS  H11Y10118   5.954   2.159   8.040 -2.1878  0.6766  1.9776
  100SAPS  C31210119   6.025   1.966   7.993 -0.1957  0.3256 -0.1537
  100SAPS  H12X10120   6.065   1.985   7.891 -2.4016  1.0029 -0.9590
  100SAPS  H12Y10121   5.984   1.863   7.994  1.0305 -0.1772 -0.0048
  100SAPS  C31310122   6.124   1.979   8.107  0.0039 -0.6390  0.2924
  100SAPS  H13X10123   6.077   2.037   8.188  0.6029  3.4528 -2.0466
  100SAPS  H13Y10124   6.213   2.032   8.068 -0.0498 -0.5615  0.2760
  100SAPS  C31410125   6.158   1.839   8.169  0.5273  0.0450  0.7056
  100SAPS  H14X10126   6.210   1.783   8.088  0.7195  2.4389 -0.9092
  100SAPS  H14Y10127   6.069   1.776   8.190  1.5010 -2.2639 -1.4658
  100SAPS  C31510128   6.241   1.869   8.292 -0.7228 -0.2084 -0.7643
  100SAPS  H15X10129   6.179   1.916   8.371  1.7083  0.3671  0.9517
  100SAPS  H15Y10130   6.319   1.945   8.270 -0.9507  0.0459 -0.7019
  100SAPS  C31610131   6.307   1.740   8.359  0.8994 -0.2588  0.3986
  100SAPS  H16X10132   6.392   1.695   8.304  1.7921 -0.2665  1.7438
  100SAPS  H16Y10133   6.231   1.664   8.387  1.3428 -1.1484 -0.7406
  100SAPS  C31710134   6.370   1.785   8.498 -0.7972  0.4617  0.1942
  100SAPS  H17X10135   6.288   1.807   8.570 -1.9907 -0.6324 -0.7891
  100SAPS  H17Y10136   6.443   1.869   8.493 -1.3698  1.1351  2.2721
  100SAPS  C31810137   6.447   1.667   8.564 -0.2259 -0.3482  0.0794
  100SAPS  H18X10138   6.497   1.684   8.661  1.8337  0.1708 -1.0249
  100SAPS  H18Y10139   6.532   1.650   8.495  0.3763 -0.6927  0.9045
  100SAPS  H18Z10140   6.380   1.579   8.573 -0.5466 -0.3632 -1.9469
  101OSM      N10141   1.570   5.557  10.865 -0.0766 -0.3312 -0.3349
  101OSM    C1510142   1.459   5.554  10.966  0.1160  0.2638 -0.4716
  101OSM   H15A10143   1.363   5.529  10.924  0.5653  0.8187 -1.9183
  101OSM   H15B10144   1.444   5.650  11.015  2.3907 -0.4143  1.7682
  101OSM   H15C10145   1.485   5.480  11.040  0.4748 -0.6397 -1.4762
  101OSM    C1410146   1.572   5.685  10.791 -0.7221  0.7808 -0.3154
  101OSM   H14A10147   1.597   5.770  10.852  0.3433  1.4332 -1.6184
  101OSM   H14B10148   1.473   5.704  10.751 -0.0019 -0.1497 -2.7145
  101OSM   H14C10149   1.653   5.691  10.720  0.5250  3.0758  1.2108
  101OSM    C1310150   1.700   5.538  10.936  0.2662 -0.3262  0.4546
  101OSM   H13A10151   1.735   5.631  10.979  3.3597 -0.2433 -1.8706
  101OSM   H13B10152   1.777   5.515  10.864  0.2324  0.5211  0.1390
  101OSM   H13C10153   1.698   5.457  11.007 -0.2237  0.2005  1.0538
  101OSM    C1210154   1.558   5.430  10.777 -0.3328  0.1365 -0.1713
  101OSM   H12A10155   1.453   5.413  10.756 -0.4042 -0.6907  0.8120
  101OSM   H12B10156   1.596   5.344  10.830 -1.8051 -1.7484 -1.9858
  101OSM    C1110157   1.635   5.422  10.644 -0.4790 -0.1835  0.5255
  101OSM   H11A10158   1.602   5.516  10.596  1.3697  1.3679  2.1710
  101OSM   H11B10159   1.605   5.327  10.595  2.4067 -1.4065  0.9114
  101OSM      P10160   1.877   5.319  10.695 -0.1967 -0.2530 -0.0744
  101OSM    O1310161   1.984   5.376  10.775 -0.1043  0.4088  0.2848
  101OSM    O1410162   1.802   5.211  10.757  0.2077 -0.1338 -0.5126
  101OSM    O1110163   1.932   5.270  10.559 -0.1991 -0.0461 -0.3824
  101OSM    O1210164   1.777   5.431  10.660 -0.2896  0.6684  0.4548
  101OSM    C1S10165   1.965   5.365  10.455  0.0087  0.3074 -0.7898
  101OSM    H1S10166   2.019   5.455  10.493 -0.0271 -0.7018  1.8654
  101OSM    H1T10167   1.871   5.398  10.406 -0.6677  1.5766  1.2423
  101OSM     NF10168   2.083   5.387  10.242  0.3562 -0.2368 -0.4366
  101OSM    HNF10169   2.017   5.399  10.169 -1.9183  2.0886  1.8028
  101OSM    C2S10170   2.048   5.293  10.344 -0.3817 -0.1922 -1.0439
  101OSM    H2S10171   2.135   5.257  10.402 -2.0712 -1.1155  1.0389
  101OSM    C3S10172   1.982   5.161  10.293  0.4533  0.2173  0.1337
  101OSM    H3S10173   1.885   5.191  10.246  1.5520  2.2678 -0.9890
  101OSM     O310174   1.962   5.066  10.391  0.0885  0.0822 -0.6245
  101OSM    HO310175   1.983   5.115  10.471 -1.2406 -0.2638 -0.0221
  101OSM    C4S10176   2.072   5.111  10.185 -0.4124  0.7284 -0.0370
  101OSM    H4S10177   2.070   5.175  10.096  1.0679  1.7167  0.5968
  101OSM    C5S10178   2.163   5.012  10.167  0.2369  0.0989 -0.6465
  101OSM    H5S10179   2.173   4.947  10.255 -2.3275  1.3563  0.6884
  101OSM    C6S10180   2.253   4.971  10.052 -0.8754  0.5077 -0.1044
  101OSM    H6S10181   2.224   4.869  10.022  2.1001 -1.7762  3.7441
  101OSM    H6T10182   2.359   4.974  10.086 -1.2974 -1.8105  1.6270
  101OSM    C7S10183   2.252   5.065   9.924 -0.5749 -0.6416  0.7351
  101OSM    H7S10184   2.297   5.160   9.959  1.4495 -1.6880  1.1733
  101OSM    H7T10185   2.147   5.064   9.890 -0.5278  0.9817  0.4851
  101OSM    C8S10186   2.342   5.012   9.810  0.1223  0.3531 -0.3251
  101OSM    H8S10187   2.344   4.901   9.803 -0.2032  0.3878 -1.1108
  101OSM    H8T10188   2.445   5.053   9.824  0.7155 -0.4220 -1.9919
  101OSM    C9S10189   2.300   5.061   9.667  0.1212  0.6384 -0.0931
  101OSM    H9S10190   2.307   5.171   9.658 -2.6896  1.0350  1.4529
  101OSM    H9T10191   2.193   5.037   9.649 -1.6069  5.2251  2.4385
  101OSM   C10S10192   2.391   4.998   9.558  0.3610  0.1895  0.2974
  101OSM   H10S10193   2.398   4.887   9.570  0.6477 -0.0586 -1.8174
  101OSM   H10T10194   2.498   5.022   9.578  0.4302 -0.8084  1.2117
  101OSM   C11S10195   2.356   5.033   9.415 -0.4091  0.2852 -0.0666
  101OSM   H11S10196   2.369   5.143   9.413  0.1542  0.2943  1.9845
  101OSM   H11T10197   2.248   5.005   9.406 -1.0218  2.2141  0.8084
  101OSM   C12S10198   2.437   4.972   9.304  0.2114 -0.4992  0.2949
  101OSM   H12S10199   2.452   4.863   9.317  1.0728 -0.3222  0.8399
  101OSM   H12T10200   2.534   5.026   9.298 -0.4225  0.6750  0.3214
  101OSM   C13S10201   2.372   4.995   9.168  0.4782 -0.4514 -0.6301
  101OSM   H13S10202   2.304   5.083   9.166 -0.1493 -0.8851  0.7992
  101OSM   H13T10203   2.294   4.916   9.162  2.1641 -2.0979 -2.3981
  101OSM   C14S10204   2.465   4.987   9.052 -0.3989  0.1087  0.1425
  101OSM   H14S10205   2.518   4.889   9.049  0.2680  0.4540  0.2688
  101OSM   H14T10206   2.550   5.057   9.068  0.7592 -1.3661  0.7205
  101OSM   C15S10207   2.400   5.016   8.925  0.3170  0.1268  0.1609
  101OSM   H15S10208   2.333   5.102   8.948  1.3909  0.5807  1.7509
  101OSM   H15T10209   2.345   4.926   8.890  0.3507  0.4527 -0.7413
  101OSM   C16S10210   2.502   5.058   8.817 -0.8584 -0.1570  0.6875
  101OSM   H16S10211   2.562   5.141   8.860 -0.4668  0.7071 -1.4199
  101OSM   H16T10212   2.454   5.080   8.719  0.1504 -0.1828  0.1657
  101OSM   C17S10213   2.589   4.937   8.774  0.9661  0.5085 -0.0452
  101OSM   H17S10214   2.518   4.851   8.778 -2.4090  3.0075 -1.1370
  101OSM   H17T10215   2.668   4.930   8.852  1.2921  0.8115 -0.3491
  101OSM   C18S10216   2.660   4.955   8.639 -0.7898  0.3777  0.5521
  101OSM   H18S10217   2.734   5.037   8.629 -3.0369  2.5661  0.8991
  101OSM   H18T10218   2.587   4.964   8.556 -0.4362 -0.1256  0.1794
  101OSM   H18U10219   2.724   4.868   8.610 -0.0017  0.8866  0.7455
  101OSM    C1F10220   2.172   5.481  10.259 -0.6109 -0.2653 -0.0789
  101OSM     OF10221   2.246   5.490  10.360 -0.3458 -0.1411 -0.0243
  101OSM    C2F10222   2.188   5.581  10.148 -0.2905  0.1613 -0.1244
  101OSM    H2F10223   2.229   5.675  10.189  0.0338 -0.1574  0.3020
  101OSM    H2G10224   2.089   5.606  10.105 -0.4321  0.5663  0.4234
  101OSM    C3F10225   2.285   5.526  10.037  0.5994 -0.0045 -0.3155
  101OSM    H3F10226   2.264   5.417  10.027  1.8913 -0.2195 -0.9303
  101OSM    H3G10227   2.390   5.553  10.059  0.8739 -1.3214  0.0886
  101OSM    C4F10228   2.240   5.584   9.898  0.0158  0.7379 -0.7241
  101OSM    H4F10229   2.253   5.695   9.900 -0.6819  0.8195  0.0322
  101OSM    H4G10230   2.138   5.547   9.873  0.2224 -0.0804 -0.3790
  101OSM    C5F10231   2.322   5.510   9.789  0.0840 -0.2495 -0.0017
  101OSM    H5F10232   2.275   5.410   9.779 -0.0775 -0.1692 -0.0518
  101OSM    H5G10233   2.427   5.505   9.826  0.3285  0.7443 -0.5273
  101OSM    C6F10234   2.328   5.581   9.652  0.7166  0.7299  0.3265
  101OSM    H6F10235   2.222   5.602   9.623  0.7592 -1.7515 -1.9807
  101OSM    H6G10236   2.362   5.512   9.572 -1.7768  0.7912 -0.9097
  101OSM    C7F10237   2.423   5.702   9.636  0.4336  0.4609  0.2198
  101OSM    H7F10238   2.524   5.690   9.681  0.6620 -0.5292 -0.5132
  101OSM    H7G10239   2.375   5.777   9.703  1.4123  0.9690  0.3629
  101OSM    C8F10240   2.432   5.774   9.498  1.4507 -0.0279 -0.1877
  101OSM    H8F10241   2.479   5.874   9.496  0.7051  0.3112 -1.5520
  101OSM    H8G10242   2.333   5.809   9.463  0.5669  0.0033  2.1348
  101OSM    C9F10243   2.502   5.688   9.404  0.0274  0.6946 -0.1569
  101OSM    H9F10244   2.599   5.645   9.435 -0.8366 -0.9487  0.3832
  101OSM   C10F10245   2.473   5.669   9.270 -0.4920 -0.5120 -0.3407
  101OSM   H10F10246   2.538   5.597   9.218  1.0577  0.2454  0.4587
  101OSM   C11F10247   2.366   5.732   9.191  0.5247 -0.1946 -0.3318
  101OSM   H11F10248   2.370   5.842   9.200  0.8682 -0.0549 -1.9092
  101OSM   H11G10249   2.265   5.696   9.218 -0.3167  1.9518 -0.4427
  101OSM   C12F10250   2.382   5.703   9.040  0.4385  1.0189  0.8433
  101OSM   H12F10251   2.488   5.678   9.021  0.0581  0.3554 -0.5720
  101OSM   H12G10252   2.346   5.797   8.991  2.2427  2.3515  1.9473
  101OSM   C13F10253   2.291   5.588   8.984 -0.5605 -0.1499 -0.1135
  101OSM   H13F10254   2.183   5.607   9.003 -0.7099 -2.5527  2.0055
  101OSM   H13G10255   2.318   5.494   9.036 -1.7170 -0.9924 -0.9897
  101OSM   C14F10256   2.324   5.568   8.837 -0.6839 -0.5143 -0.2084
  101OSM   H14F10257   2.434   5.567   8.825 -0.7018 -1.5745 -0.4462
  101OSM   H14G10258   2.283   5.655   8.782  1.2366 -0.1462 -1.1240
  101OSM   C15F10259   2.268   5.437   8.776 -0.1309 -0.4277  0.3076
  101OSM   H15F10260   2.160   5.427   8.799 -0.5477 -0.2299 -1.4301
  101OSM   H15G10261   2.333   5.352   8.804  1.1665 -0.7728 -3.2139
  101OSM   C16F10262   2.286   5.446   8.626  0.1787  0.5401  0.4311
  101OSM   H16F10263   2.389   5.467   8.589 -0.1409 -1.8789 -2.2118
  101OSM   H16G10264   2.211   5.524   8.604 -1.1731  0.4202  4.0545
  101OSM   C17F10265   2.242   5.316   8.548 -0.6347  0.0228 -0.2831
  101OSM   H17F10266   2.327   5.246   8.562 -1.4570 -0.8424  0.5554
  101OSM   H17G10267   2.236   5.338   8.439  0.7878  0.4837 -0.2804
  101OSM   C18F10268   2.106   5.254   8.588 -0.5800  0.3350 -0.1111
  101OSM   H18F10269   2.030   5.335   8.598  1.5757  2.2892  1.3454
  101OSM   H18G10270   2.116   5.198   8.683  1.0526 -0.7733 -0.9047
  101OSM   H18H10271   2.082   5.185   8.505  0.4624 -0.6211  0.3662
  102OSM      N10272   2.177   3.835  10.878  0.1337  0.3164 -0.1356
  102OSM    C1510273   2.106   3.708  10.901  0.4046  1.2971 -0.4694
  102OSM   H15A10274   2.117   3.678  11.004 -0.2990  2.2680 -0.0968
  102OSM   H15B10275   2.156   3.636  10.838 -1.1491 -1.6421  1.4317
  102OSM   H15C10276   2.000   3.705  10.880  0.6931 -0.5879 -1.9595
  102OSM    C1410277   2.315   3.813  10.904  0.4365  0.4674  0.3822
  102OSM   H14A10278   2.333   3.745  10.986  0.8534  0.1648  0.0434
  102OSM   H14B10279   2.362   3.910  10.916 -1.3621  1.3697  0.4297
  102OSM   H14C10280   2.364   3.766  10.820  1.8934  4.8061 -1.5316
  102OSM    C1310281   2.154   3.885  10.741 -0.3432  0.1719  0.6387
  102OSM   H13A10282   2.183   3.809  10.670 -3.0531  0.0139 -0.4280
  102OSM   H13B10283   2.199   3.979  10.711  1.6482 -0.4221  1.6558
  102OSM   H13C10284   2.049   3.912  10.731 -0.3920 -0.1607  0.2061
  102OSM    C1210285   2.134   3.933  10.984 -0.0354 -0.8369  0.1991
  102OSM   H12A10286   2.191   4.022  10.960  0.1867 -0.6855  1.2246
  102OSM   H12B10287   2.187   3.908  11.075  1.0905  0.4640 -0.0680
  102OSM    C1110288   1.987   3.964  11.000 -0.2253  0.3953 -0.4128
  102OSM   H11A10289   1.969   4.036  11.082 -0.9979 -1.1435  0.8426
  102OSM   H11B10290   1.922   3.878  11.030 -1.6278  1.3852 -0.4908
  102OSM      P10291   1.936   4.172  10.859 -0.5197 -0.2178 -0.1281
  102OSM    O1310292   1.825   4.234  10.935  0.0021  0.2153 -0.2227
  102OSM    O1410293   2.076   4.229  10.873 -0.0377 -0.3029 -0.4097
  102OSM    O1110294   1.895   4.192  10.714 -0.1031  0.0453 -0.1608
  102OSM    O1210295   1.933   4.017  10.880  0.6299  0.2916 -0.6978
  102OSM    C1S10296   1.778   4.145  10.654  0.3731  0.0862  0.1186
  102OSM    H1S10297   1.699   4.221  10.676  0.7905  0.1574  1.4563
  102OSM    H1T10298   1.744   4.048  10.696  1.1174  0.2881  1.2174
  102OSM     NF10299   1.649   4.158  10.436  0.1971  0.7472 -0.6953
  102OSM    HNF10300   1.602   4.075  10.404 -0.1487  0.6542  0.0461
  102OSM    C2S10301   1.780   4.133  10.497  0.6427 -0.5856  0.5241
  102OSM    H2S10302   1.844   4.214  10.456 -1.6132  0.5820 -0.8926
  102OSM    C3S10303   1.841   3.997  10.461 -0.3759  0.2433 -0.4049
  102OSM    H3S10304   1.781   3.921  10.515 -2.4436  1.9215 -0.2144
  102OSM     O310305   1.964   3.994  10.528 -0.1221  0.2786  0.0844
  102OSM    HO310306   1.966   4.076  10.578 -2.8451  1.5689 -1.6583
  102OSM    C4S10307   1.851   3.973  10.312  0.8174  0.3275  0.4477
  102OSM    H4S10308   1.783   3.893  10.277 -0.8507  1.4746  0.9397
  102OSM    C5S10309   1.942   4.016  10.222  0.1515  0.5402  0.1030
  102OSM    H5S10310   2.035   4.067  10.250  0.3551  0.7340 -0.9061
  102OSM    C6S10311   1.942   3.983  10.075  0.3587  1.0423  0.1336
  102OSM    H6S10312   2.007   3.897  10.047  0.1232  1.9188 -3.7393
  102OSM    H6T10313   2.003   4.058  10.020  3.8769 -1.0402  0.8359
  102OSM    C7S10314   1.817   3.959   9.990  0.0617 -0.4544  0.5407
  102OSM    H7S10315   1.759   4.054   9.997  2.1672  1.0441 -1.0597
  102OSM    H7T10316   1.758   3.876  10.034  0.0290 -2.1682 -2.4822
  102OSM    C8S10317   1.851   3.936   9.835  0.2462  0.3603  0.0471
  102OSM    H8S10318   1.914   3.846   9.828  0.3402  0.5029 -1.2314
  102OSM    H8T10319   1.906   4.022   9.790 -1.2773  1.5390  0.3226
  102OSM    C9S10320   1.728   3.897   9.756  1.0407 -0.1112  1.3946
  102OSM    H9S10321   1.660   3.982   9.780  2.5383  1.8263 -0.7615
  102OSM    H9T10322   1.683   3.800   9.783 -4.3763  1.4109 -0.8846
  102OSM   C10S10323   1.744   3.899   9.604 -0.0235 -0.6430  0.0558
  102OSM   H10S10324   1.742   4.002   9.562 -2.6613  0.8934  3.4254
  102OSM   H10T10325   1.649   3.858   9.563  1.0113 -0.4057 -2.8207
  102OSM   C11S10326   1.849   3.805   9.546  0.2878 -0.0125 -0.1152
  102OSM   H11S10327   1.856   3.720   9.617 -0.6161  0.6773  0.8296
  102OSM   H11T10328   1.944   3.860   9.557  0.2557 -0.0512  0.3639
  102OSM   C12S10329   1.825   3.759   9.405 -0.0575 -0.5937  0.3466
  102OSM   H12S10330   1.727   3.707   9.397 -1.2652  1.4953  0.7913
  102OSM   H12T10331   1.900   3.682   9.377 -0.2872 -0.6978 -0.0017
  102OSM   C13S10332   1.826   3.882   9.307  0.0258 -0.2476 -0.0270
  102OSM   H13S10333   1.886   3.967   9.346  0.6297 -0.5018 -0.3819
  102OSM   H13T10334   1.722   3.921   9.298  0.4042  0.7595 -0.1957
  102OSM   C14S10335   1.870   3.844   9.170  0.0671  0.2588 -0.3732
  102OSM   H14S10336   1.798   3.764   9.142  1.7268 -0.8520 -1.6685
  102OSM   H14T10337   1.972   3.799   9.168  1.0707  2.3652  0.3270
  102OSM   C15S10338   1.875   3.962   9.066 -0.3618 -0.2829  0.2349
  102OSM   H15S10339   1.956   4.035   9.086 -0.1706 -0.9586  2.0603
  102OSM   H15T10340   1.780   4.017   9.082 -0.7713 -0.5696 -1.0730
  102OSM   C16S10341   1.864   3.913   8.918 -0.2674  0.5173 -0.4540
  102OSM   H16S10342   1.819   3.812   8.929  3.3718 -1.2297  0.0672
  102OSM   H16T10343   1.969   3.890   8.891  0.3683 -0.0058  2.1576
  102OSM   C17S10344   1.793   4.008   8.832 -0.2182 -0.6144 -0.1799
  102OSM   H17S10345   1.857   4.100   8.833 -0.5749 -0.3577 -0.8171
  102OSM   H17T10346   1.695   4.040   8.872 -0.0475 -0.1205 -0.1492
  102OSM   C18S10347   1.784   3.967   8.686  0.5625  0.2249  0.2264
  102OSM   H18S10348   1.753   4.058   8.631 -1.2816 -0.5107 -0.0218
  102OSM   H18T10349   1.698   3.897   8.676  0.9703 -0.2709  0.1857
  102OSM   H18U10350   1.879   3.922   8.650  0.7384  1.2004 -0.5760
  102OSM    C1F10351   1.576   4.271  10.448 -0.0392  0.2708  0.1778
  102OSM     OF10352   1.634   4.371  10.485 -0.2706 -0.3213  0.3779
  102OSM    C2F10353   1.427   4.262  10.412  0.1744  0.1116 -0.6930
  102OSM    H2F10354   1.371   4.293  10.503 -1.0465  1.6485 -1.9164
  102OSM    H2G10355   1.400   4.156  10.390  0.0993 -0.0625  0.1932
  102OSM    C3F10356   1.391   4.353  10.292  0.0546  0.2339  0.2061
  102OSM    H3F10357   1.420   4.458  10.313  1.6798 -0.0939 -0.2589
  102OSM    H3G10358   1.280   4.364  10.287  0.2120  2.0473  0.0152
  102OSM    C4F10359   1.446   4.319  10.152 -0.4013 -0.0431  0.6003
  102OSM    H4F10360   1.557   4.318  10.152 -0.3626 -1.4687 -1.6181
  102OSM    H4G10361   1.415   4.395  10.077  0.3879  0.4547  0.7703
  102OSM    C5F10362   1.397   4.188  10.098  0.5239  0.7182 -0.3944
  102OSM    H5F10363   1.287   4.186  10.104  0.1688 -2.9678 -3.6187
  102OSM    H5G10364   1.427   4.104  10.164 -0.7654  0.8964  0.4442
  102OSM    C6F10365   1.443   4.144   9.954  0.4630 -0.7427 -0.0168
  102OSM    H6F10366   1.396   4.047   9.927  0.5827 -1.8218  3.1634
  102OSM    H6G10367   1.553   4.125   9.950  0.7159  0.8427 -1.9590
  102OSM    C7F10368   1.411   4.267   9.856  0.3518 -0.6053 -0.3039
  102OSM    H7F10369   1.467   4.356   9.891 -0.4541  0.4137 -1.5260
  102OSM    H7G10370   1.301   4.286   9.863  0.6608  0.9041  0.9068
  102OSM    C8F10371   1.474   4.256   9.713  0.3364  0.2404  1.1756
  102OSM    H8F10372   1.583   4.239   9.719  0.1807 -0.3897  3.2344
  102OSM    H8G10373   1.457   4.344   9.648  2.0046 -0.6643 -0.5761
  102OSM    C9F10374   1.415   4.137   9.639 -0.4557 -0.9573  0.2781
  102OSM    H9F10375   1.349   4.082   9.708 -0.5413  0.6359  1.5209
  102OSM   C10F10376   1.443   4.109   9.509 -0.4078  0.5639  0.3480
  102OSM   H10F10377   1.395   4.018   9.470 -0.5211 -0.0728  1.8950
  102OSM   C11F10378   1.535   4.182   9.428 -0.5405  0.3626  0.0008
  102OSM   H11F10379   1.618   4.116   9.396  0.3492  2.0587 -1.4014
  102OSM   H11G10380   1.578   4.268   9.484  0.0729  1.0558 -1.4662
  102OSM   C12F10381   1.466   4.243   9.301 -0.0660  0.2301  0.0696
  102OSM   H12F10382   1.386   4.311   9.334  1.3285  2.5111 -1.0162
  102OSM   H12G10383   1.419   4.157   9.248  0.5467  1.4128 -2.5835
  102OSM   C13F10384   1.573   4.311   9.211  0.3495 -0.2734  0.0793
  102OSM   H13F10385   1.663   4.246   9.208 -1.3668 -3.4243  5.1066
  102OSM   H13G10386   1.608   4.411   9.244  0.1488 -0.1996  0.0656
  102OSM   C14F10387   1.517   4.342   9.077 -0.1134  0.2652 -0.0224
  102OSM   H14F10388   1.420   4.396   9.089  0.7121  1.6058  0.9509
  102OSM   H14G10389   1.507   4.248   9.019  0.2983  0.4478 -0.3985
  102OSM   C15F10390   1.617   4.424   8.993  0.0457 -0.7047  0.3710
  102OSM   H15F10391   1.720   4.399   9.025  0.5479  1.4367  0.5741
  102OSM   H15G10392   1.600   4.531   9.016  2.6764 -0.2064  0.2279
  102OSM   C16F10393   1.592   4.419   8.839 -1.0888  0.6945  0.0217
  102OSM   H16F10394   1.487   4.450   8.818 -2.6938 -3.3715  1.0158
  102OSM   H16G10395   1.596   4.315   8.801 -3.4774  1.0063 -1.2960
  102OSM   C17F10396   1.684   4.516   8.763 -0.1223  0.1961 -0.3268
  102OSM   H17F10397   1.785   4.477   8.789 -0.6782 -0.1473  1.5025
  102OSM   H17G10398   1.672   4.612   8.818  1.9991  1.2190 -1.5286
  102OSM   C18F10399   1.655   4.539   8.615  0.5038 -0.2846 -0.4532
  102OSM   H18F10400   1.660   4.449   8.550 -0.0041  0.4087 -1.5019
  102OSM   H18G10401   1.723   4.617   8.573  2.8323 -2.7973 -1.6537
  102OSM   H18H10402   1.548   4.570   8.611  0.1178 -1.5046  0.0743
  103OSM      N10403   3.455   1.157  11.269  0.1486 -0.4439 -0.0762
  103OSM    C1510404   3.516   1.025  11.311  0.0681 -0.7506 -0.3464
  103OSM   H15A10405   3.479   1.003  11.410 -0.1331 -1.5406 -0.5900
  103OSM   H15B10406   3.622   1.043  11.310 -0.2381  1.5087  1.3291
  103OSM   H15C10407   3.490   0.944  11.244 -0.1963  1.3649 -2.9956
  103OSM    C1410408   3.306   1.149  11.272  0.4163  0.2349  0.5473
  103OSM   H14A10409   3.277   1.068  11.207 -0.3771  0.2657  0.8538
  103OSM   H14B10410   3.260   1.245  11.257 -1.1483 -0.2586  1.9236
  103OSM   H14C10411   3.263   1.114  11.365 -0.2372 -0.5202 -0.0220
  103OSM    C1310412   3.499   1.256  11.371  0.1782  0.3011  1.0290
  103OSM   H13A10413   3.466   1.355  11.346 -0.7844 -0.2167  0.2138
  103OSM   H13B10414   3.605   1.277  11.374  0.1162  0.8201 -0.0286
  103OSM   H13C10415   3.460   1.225  11.467 -0.1965  1.1844  1.1696
  103OSM    C1210416   3.502   1.187  11.130  0.0686 -0.1365 -0.2405
  103OSM   H12A10417   3.609   1.196  11.128  0.1577 -1.0382  0.0615
  103OSM   H12B10418   3.467   1.285  11.104 -1.1410 -0.3062  0.6483
  103OSM    C1110419   3.463   1.091  11.014  0.1756 -0.8106  0.3774
  103OSM   H11A10420   3.500   1.142  10.922  0.4021 -2.1424 -0.2930
  103OSM   H11B10421   3.354   1.081  10.995  0.2178  0.5381 -0.7643
  103OSM      P10422   3.651   0.923  10.949  0.3812  0.4460 -0.4412
  103OSM    O1310423   3.694   1.034  10.856 -0.6162 -0.0340  0.2995
  103OSM    O1410424   3.749   0.872  11.054  0.2263  0.1245  0.0594
  103OSM    O1110425   3.604   0.795  10.860 -0.0099 -0.1913  0.1668
  103OSM    O1210426   3.520   0.962  11.024  0.1302  0.5010  0.1146
  103OSM    C1S10427   3.460   0.785  10.839  0.7224 -0.7054  0.2612
  103OSM    H1S10428   3.400   0.791  10.932  1.1449  0.0250  0.4936
  103OSM    H1T10429   3.430   0.683  10.804 -0.6063 -0.3632  0.3682
  103OSM     NF10430   3.264   0.820  10.700  0.1128 -0.6179 -0.0603
  103OSM    HNF10431   3.260   0.750  10.628 -0.5530 -1.2892  0.6137
  103OSM    C2S10432   3.404   0.873  10.722  0.1068 -0.0639 -0.1453
  103OSM    H2S10433   3.400   0.980  10.750  2.0858  0.5511 -1.9242
  103OSM    C3S10434   3.495   0.860  10.593  0.5777 -0.0339  0.0111
  103OSM    H3S10435   3.530   0.755  10.585  1.0438  0.0122  1.2265
  103OSM     O310436   3.615   0.938  10.605 -0.4072  0.0284 -0.3074
  103OSM    HO310437   3.615   0.970  10.695  1.2578 -2.2321  0.5591
  103OSM    C4S10438   3.420   0.913  10.469 -0.3835 -0.0111  0.1106
  103OSM    H4S10439   3.423   1.022  10.458  2.2244 -0.1287 -1.1361
  103OSM    C5S10440   3.362   0.839  10.376  0.1559 -0.3154  0.6762
  103OSM    H5S10441   3.394   0.734  10.372 -0.8618 -0.8637  3.9547
  103OSM    C6S10442   3.292   0.895  10.251  0.1119 -0.1885 -0.3953
  103OSM    H6S10443   3.270   1.002  10.271 -1.6000 -0.9522  2.3430
  103OSM    H6T10444   3.189   0.859  10.232 -0.3830  0.6419  0.6146
  103OSM    C7S10445   3.387   0.865  10.137  0.2087  0.1085 -0.3007
  103OSM    H7S10446   3.407   0.756  10.131 -0.9644 -0.1580  0.2656
  103OSM    H7T10447   3.479   0.927  10.142 -0.7268  1.6991 -1.7896
  103OSM    C8S10448   3.316   0.913  10.000 -0.2329  0.3467  0.0962
  103OSM    H8S10449   3.287   1.020  10.008  1.1842  0.8230 -0.7293
  103OSM    H8T10450   3.217   0.865   9.991 -0.5320  1.0542 -0.4203
  103OSM    C9S10451   3.406   0.919   9.883  0.4443  0.3811  0.1017
  103OSM    H9S10452   3.436   0.814   9.866 -0.0224 -0.0344  1.6672
  103OSM    H9T10453   3.494   0.985   9.901 -0.3178  1.0010  1.8136
  103OSM   C10S10454   3.347   0.955   9.748  0.1677 -1.1469  0.6169
  103OSM   H10S10455   3.326   1.064   9.740  0.1681 -0.9629  2.5931
  103OSM   H10T10456   3.246   0.916   9.724 -0.1827  0.2543 -0.3012
  103OSM   C11S10457   3.427   0.926   9.621  0.5316 -0.5235 -0.2960
  103OSM   H11S10458   3.394   0.825   9.587  1.2287 -0.0303 -2.6558
  103OSM   H11T10459   3.536   0.932   9.643  1.2366 -0.2803 -3.3876
  103OSM   C12S10460   3.409   1.026   9.509 -0.1702 -0.6217 -0.6025
  103OSM   H12S10461   3.426   1.131   9.542  1.9412 -1.2513  0.5340
  103OSM   H12T10462   3.305   1.032   9.472  0.0268  1.0165 -1.0015
  103OSM   C13S10463   3.510   0.997   9.392  0.0854  0.5396  0.8774
  103OSM   H13S10464   3.504   0.889   9.366 -0.6044  1.1096 -1.6275
  103OSM   H13T10465   3.609   1.025   9.433 -0.2946  2.5942  0.5475
  103OSM   C14S10466   3.477   1.073   9.262 -0.6788 -0.8513 -0.5164
  103OSM   H14S10467   3.518   1.175   9.278  0.8180 -1.4559 -0.3557
  103OSM   H14T10468   3.366   1.073   9.260 -0.8670  2.8794  0.9335
  103OSM   C15S10469   3.557   0.999   9.156  0.1699  0.0021  0.7358
  103OSM   H15S10470   3.502   0.904   9.136 -0.1962  0.0216  1.5928
  103OSM   H15T10471   3.654   0.955   9.186  0.9924  0.9840 -0.4057
  103OSM   C16S10472   3.576   1.074   9.024 -0.2435  0.5849 -0.6328
  103OSM   H16S10473   3.583   1.180   9.055  0.9399 -0.3533  2.6479
  103OSM   H16T10474   3.488   1.062   8.957  0.6793 -0.5106 -1.7092
  103OSM   C17S10475   3.712   1.034   8.946  1.1312 -0.4259 -0.6570
  103OSM   H17S10476   3.724   0.926   8.966  2.8680 -0.1497 -0.0381
  103OSM   H17T10477   3.801   1.080   8.994  2.4579 -1.2986 -2.1742
  103OSM   C18S10478   3.713   1.076   8.805 -0.0799  0.8329 -0.6171
  103OSM   H18S10479   3.729   1.185   8.793  3.0453  0.3412 -1.9160
  103OSM   H18T10480   3.629   1.044   8.739 -0.5318 -0.3016  0.4579
  103OSM   H18U10481   3.803   1.026   8.763  0.2538 -0.6336  1.6760
  103OSM    C1F10482   3.150   0.856  10.765 -0.6208 -0.4240  0.4030
  103OSM     OF10483   3.162   0.943  10.852 -0.5691 -0.1487  0.3727
  103OSM    C2F10484   3.019   0.784  10.732 -0.7393 -0.7688  0.2231
  103OSM    H2F10485   2.939   0.850  10.773  0.1444 -0.6804  1.8835
  103OSM    H2G10486   3.008   0.678  10.765  0.1551 -1.4264 -1.4801
  103OSM    C3F10487   2.998   0.777  10.574 -0.6327  0.4879 -0.1542
  103OSM    H3F10488   2.915   0.704  10.573  0.2778 -0.6095  0.8431
  103OSM    H3G10489   3.076   0.725  10.514 -0.4322  0.4871  0.1079
  103OSM    C4F10490   2.960   0.908  10.503 -0.3534 -0.4092 -0.2077
  103OSM    H4F10491   3.040   0.985  10.511  1.4062 -1.9214 -2.1606
  103OSM    H4G10492   2.869   0.947  10.553 -0.1845  1.3576 -1.1792
  103OSM    C5F10493   2.919   0.885  10.351  0.3810 -0.2922  0.2065
  103OSM    H5F10494   2.825   0.825  10.346  0.2049  0.0236 -0.6184
  103OSM    H5G10495   3.004   0.844  10.292  0.7376  1.5295 -0.6181
  103OSM    C6F10496   2.897   1.026  10.294  0.0642 -0.0275  0.3466
  103OSM    H6F10497   2.987   1.084  10.323  0.0454 -1.1025  2.8377
  103OSM    H6G10498   2.807   1.075  10.338 -0.8598  0.1893 -1.6718
  103OSM    C7F10499   2.888   1.028  10.137  0.0715  0.0587  0.1160
  103OSM    H7F10500   2.798   0.969  10.112 -0.6295  0.4857  1.5698
  103OSM    H7G10501   2.980   0.981  10.094  0.8729  1.6918 -0.0525
  103OSM    C8F10502   2.885   1.174  10.080 -0.2573  0.5570  1.1179
  103OSM    H8F10503   2.826   1.243  10.145  0.4110 -0.0958  2.4496
  103OSM    H8G10504   2.821   1.178   9.989  0.8995 -2.3314  0.0760
  103OSM    C9F10505   3.027   1.230  10.053  0.6442  0.3229 -0.0391
  103OSM    H9F10506   3.105   1.187  10.117  0.3482 -0.1249  0.0251
  103OSM   C10F10507   3.065   1.316   9.958  0.5406  0.4493  0.6519
  103OSM   H10F10508   3.172   1.330   9.938  0.4467  0.9045  0.4275
  103OSM   C11F10509   2.971   1.356   9.852  0.1397 -0.5304  1.1405
  103OSM   H11F10510   2.995   1.460   9.822  3.3450 -1.8421 -1.4987
  103OSM   H11G10511   2.864   1.363   9.880  0.0820  0.8179  0.6554
  103OSM   C12F10512   2.959   1.261   9.721 -0.6723 -0.0149  0.2069
  103OSM   H12F10513   2.869   1.297   9.665 -1.6812 -2.2833  0.2674
  103OSM   H12G10514   2.945   1.155   9.749  1.3742 -1.5861 -3.9246
  103OSM   C13F10515   3.085   1.266   9.628 -0.0008  0.3136  0.5841
  103OSM   H13F10516   3.180   1.260   9.686  0.5156 -2.5469 -0.4428
  103OSM   H13G10517   3.078   1.178   9.561 -1.3489  0.6793  0.2125
  103OSM   C14F10518   3.101   1.392   9.546 -0.0009 -0.2056 -0.0798
  103OSM   H14F10519   3.108   1.484   9.607 -1.0303  0.7953 -1.4164
  103OSM   H14G10520   3.011   1.398   9.482 -0.4715  1.8722  0.6894
  103OSM   C15F10521   3.223   1.404   9.455 -0.0328 -0.5125 -0.7060
  103OSM   H15F10522   3.216   1.325   9.378  1.4124  0.2410 -1.6677
  103OSM   H15G10523   3.320   1.402   9.511  0.6301 -0.4724 -1.8216
  103OSM   C16F10524   3.223   1.541   9.381 -0.8161  0.8593 -0.3625
  103OSM   H16F10525   3.214   1.616   9.462  0.5053  2.0415 -1.2753
  103OSM   H16G10526   3.129   1.542   9.321  0.0379  0.7397 -1.7242
  103OSM   C17F10527   3.338   1.584   9.293  0.6848 -0.1800 -0.0352
  103OSM   H17F10528   3.436   1.607   9.340 -0.4678  1.7029  1.6029
  103OSM   H17G10529   3.315   1.683   9.247  0.8080 -0.7911 -1.4685
  103OSM   C18F10530   3.368   1.500   9.162  0.2358 -0.6766 -0.9535
  103OSM   H18F10531   3.476   1.513   9.139  0.2095  1.5277 -0.0775
  103OSM   H18G10532   3.303   1.532   9.078 -2.5746 -0.1599  1.2439
  103OSM   H18H10533   3.353   1.391   9.177  0.8699 -0.7222 -0.6194
  104OSM      N10534   1.565   2.066  10.701  0.1362  0.0445 -0.3284
  104OSM    C1510535   1.470   2.069  10.579 -0.5148  0.0789  0.1240
  104OSM   H15A10536   1.407   2.156  10.573 -2.6035 -1.4258 -1.4464
  104OSM   H15B10537   1.402   1.986  10.581 -2.8140  1.6681 -3.3024
  104OSM   H15C10538   1.530   2.062  10.489  0.4538 -1.1589  0.8287
  104OSM    C1410539   1.663   1.953  10.675 -0.4578  0.1265  0.2097
  104OSM   H14A10540   1.725   1.971  10.589 -0.4506 -0.1691  0.1541
  104OSM   H14B10541   1.606   1.863  10.658  2.9245 -1.8128 -2.0257
  104OSM   H14C10542   1.726   1.944  10.762 -0.6169 -3.2006  0.1087
  104OSM    C1310543   1.644   2.200  10.699 -0.4309  0.8657  0.2300
  104OSM   H13A10544   1.742   2.197  10.744 -0.3678  4.8496  0.7271
  104OSM   H13B10545   1.598   2.290  10.737 -2.2977  0.3247 -0.6581
  104OSM   H13C10546   1.662   2.219  10.594 -1.5038 -1.1862 -0.3746
  104OSM    C1210547   1.481   2.044  10.824  0.4797 -0.5269 -0.4058
  104OSM   H12A10548   1.416   2.127  10.849 -1.8363 -2.6147  0.9000
  104OSM   H12B10549   1.552   2.033  10.904 -0.1677 -0.3888  0.1931
  104OSM    C1110550   1.391   1.925  10.825  0.1988  0.9030 -0.2432
  104OSM   H11A10551   1.306   1.957  10.761 -0.1263  1.6362  0.5276
  104OSM   H11B10552   1.340   1.913  10.923 -0.6708  0.4922 -0.7411
  104OSM      P10553   1.374   1.672  10.744 -0.3053  0.1118 -0.0310
  104OSM    O1310554   1.473   1.560  10.723 -0.3676 -0.0991 -0.2403
  104OSM    O1410555   1.267   1.643  10.842 -0.0735  0.0116  0.2349
  104OSM    O1110556   1.318   1.712  10.603  0.1131  0.1019 -0.1268
  104OSM    O1210557   1.452   1.797  10.791  0.1064 -0.3036 -0.5151
  104OSM    C1S10558   1.350   1.622  10.492 -0.1034  0.0248 -0.2586
  104OSM    H1S10559   1.322   1.518  10.517 -1.2849  0.3485 -0.2071
  104OSM    H1T10560   1.460   1.630  10.478 -0.0476  0.8075  0.5504
  104OSM     NF10561   1.317   1.576  10.245  0.4885 -0.1985  0.0507
  104OSM    HNF10562   1.394   1.607  10.189  1.3820 -0.3206  1.1765
  104OSM    C2S10563   1.283   1.665  10.356 -0.3376  0.0268 -0.7563
  104OSM    H2S10564   1.175   1.655  10.377 -0.3433  0.5947 -0.5030
  104OSM    C3S10565   1.311   1.816  10.331  0.0816  0.0685  0.0056
  104OSM    H3S10566   1.419   1.838  10.325  0.2677 -0.8980 -0.3965
  104OSM     O310567   1.259   1.901  10.434  0.3162  0.5479 -0.4035
  104OSM    HO310568   1.249   1.841  10.508  0.4540 -0.2035 -0.9855
  104OSM    C4S10569   1.236   1.850  10.195 -0.5250  0.4479 -0.3161
  104OSM    H4S10570   1.302   1.843  10.107 -2.2458  0.0936 -1.6341
  104OSM    C5S10571   1.110   1.889  10.184 -0.0659 -0.4139 -0.0610
  104OSM    H5S10572   1.037   1.872  10.265 -0.8222  0.5853 -0.5115
  104OSM    C6S10573   1.040   1.913  10.047 -0.6592 -1.0561  0.7274
  104OSM    H6S10574   1.026   2.023  10.041  0.2604 -0.9585  0.2028
  104OSM    H6T10575   0.938   1.869  10.050 -0.3051 -1.8922  0.7866
  104OSM    C7S10576   1.132   1.866   9.938 -0.8191  0.3022  0.5964
  104OSM    H7S10577   1.141   1.756   9.930 -0.4106  0.3118  0.9449
  104OSM    H7T10578   1.233   1.913   9.937  0.7440 -2.8065  1.5518
  104OSM    C8S10579   1.059   1.919   9.808  0.4467 -0.2309 -0.1999
  104OSM    H8S10580   1.033   2.027   9.822  0.1986 -0.5674  2.4869
  104OSM    H8T10581   0.971   1.852   9.803  0.3830 -0.1222 -0.5804
  104OSM    C9S10582   1.137   1.906   9.672 -0.1028 -0.4313  0.0072
  104OSM    H9S10583   1.144   1.799   9.646  0.0586 -1.2997  3.1760
  104OSM    H9T10584   1.239   1.946   9.692  0.3831 -0.8335 -1.5182
  104OSM   C10S10585   1.051   1.964   9.561 -0.9949  0.8103  0.3443
  104OSM   H10S10586   1.042   2.075   9.562  0.3373  0.9435  1.8721
  104OSM   H10T10587   0.942   1.942   9.568 -1.4056  2.5006 -0.3217
  104OSM   C11S10588   1.106   1.930   9.423  1.1574  0.1302  0.0168
  104OSM   H11S10589   1.079   1.826   9.394  2.3352 -0.3966  0.7157
  104OSM   H11T10590   1.217   1.939   9.431  0.8528  2.9427  2.8884
  104OSM   C12S10591   1.076   2.041   9.320 -0.5608  0.2525  0.4883
  104OSM   H12S10592   1.134   2.134   9.338 -0.6280  0.4817 -0.4213
  104OSM   H12T10593   0.967   2.062   9.325 -0.9130 -1.0943 -0.7189
  104OSM   C13S10594   1.110   1.997   9.176 -0.4487 -0.5403 -0.1542
  104OSM   H13S10595   1.032   1.924   9.145 -2.0419  1.1438 -0.2094
  104OSM   H13T10596   1.213   1.955   9.185  0.2098  1.2167  1.1941
  104OSM   C14S10597   1.111   2.111   9.074  0.5697 -0.4008 -0.1935
  104OSM   H14S10598   1.200   2.177   9.085 -0.2553  0.5416  1.2919
  104OSM   H14T10599   1.020   2.173   9.092  0.6497 -0.1063 -0.7656
  104OSM   C15S10600   1.092   2.054   8.931  0.1500 -0.2814  0.0626
  104OSM   H15S10601   1.062   2.128   8.855  1.4751 -1.1616 -1.3847
  104OSM   H15T10602   1.009   1.979   8.932  0.1743 -0.3277 -0.5909
  104OSM   C16S10603   1.226   1.993   8.886 -0.1345 -0.3643  0.2143
  104OSM   H16S10604   1.250   1.912   8.959 -2.5043 -2.0757 -0.7879
  104OSM   H16T10605   1.306   2.070   8.877  0.3884 -1.0140 -0.9548
  104OSM   C17S10606   1.216   1.909   8.760 -0.3818  0.5875 -0.2274
  104OSM   H17S10607   1.157   1.817   8.776 -0.9946  1.1007  0.5118
  104OSM   H17T10608   1.320   1.869   8.748 -0.6461 -0.6901  1.4220
  104OSM   C18S10609   1.172   1.984   8.635  0.1880 -0.2288 -0.2212
  104OSM   H18S10610   1.247   2.063   8.612  0.8355 -1.1971 -1.5723
  104OSM   H18T10611   1.076   2.039   8.642 -0.1654 -0.7716 -0.7599
  104OSM   H18U10612   1.178   1.927   8.540 -0.3461 -0.6709  0.0096
  104OSM    C1F10613   1.290   1.444  10.244  0.0774  0.2685 -0.7937
  104OSM     OF10614   1.198   1.389  10.312  0.2667 -0.3759  0.0499
  104OSM    C2F10615   1.375   1.356  10.162  0.8999  0.3762 -0.0108
  104OSM    H2F10616   1.390   1.274  10.235 -0.1640  0.0966 -0.0944
  104OSM    H2G10617   1.476   1.397  10.143  0.2225  3.0272  1.5679
  104OSM    C3F10618   1.296   1.300  10.041  0.3791  0.3680  0.0698
  104OSM    H3F10619   1.203   1.246  10.070  0.5049  0.0618 -0.0879
  104OSM    H3G10620   1.361   1.219  10.000 -0.3804 -0.9317  1.3606
  104OSM    C4F10621   1.266   1.400   9.923 -0.2967 -0.4048  0.1586
  104OSM    H4F10622   1.186   1.467   9.962 -0.9301 -2.4054  2.6567
  104OSM    H4G10623   1.234   1.330   9.842  0.2933  0.6676 -1.0182
  104OSM    C5F10624   1.389   1.489   9.881 -0.3463 -0.2138 -0.0099
  104OSM    H5F10625   1.470   1.412   9.883 -0.3409 -0.2158  2.5486
  104OSM    H5G10626   1.426   1.559   9.959  2.0464 -1.7566  0.3505
  104OSM    C6F10627   1.367   1.564   9.749 -0.4366  0.4161 -0.0903
  104OSM    H6F10628   1.275   1.623   9.766 -0.0131  0.8694  0.6981
  104OSM    H6G10629   1.337   1.488   9.673 -1.6416  0.3832  0.3921
  104OSM    C7F10630   1.484   1.651   9.700 -0.1647 -0.8189 -0.9639
  104OSM    H7F10631   1.504   1.716   9.788 -1.7981 -2.0016  0.3374
  104OSM    H7G10632   1.453   1.717   9.617  1.2111  0.9655 -0.1328
  104OSM    C8F10633   1.606   1.567   9.662 -0.3570  0.5787  0.4994
  104OSM    H8F10634   1.624   1.488   9.738 -0.5283  2.4861  2.6181
  104OSM    H8G10635   1.697   1.629   9.661  0.2208 -0.2496  0.2043
  104OSM    C9F10636   1.577   1.494   9.523  0.4212 -1.0152  0.6277
  104OSM    H9F10637   1.491   1.426   9.530 -0.9327  0.2957 -1.8806
  104OSM   C10F10638   1.643   1.501   9.405 -0.7213 -0.6001  0.7086
  104OSM   H10F10639   1.611   1.439   9.320 -1.2513 -0.4485  0.7923
  104OSM   C11F10640   1.759   1.597   9.375  0.5212 -0.0489 -0.1447
  104OSM   H11F10641   1.820   1.606   9.468 -0.1901 -0.9370  0.4263
  104OSM   H11G10642   1.718   1.699   9.357 -0.4081 -0.5194 -0.7753
  104OSM   C12F10643   1.856   1.559   9.266  0.1677 -0.2328  0.2109
  104OSM   H12F10644   1.802   1.586   9.172 -0.2183  2.1025  1.0500
  104OSM   H12G10645   1.862   1.448   9.255 -1.8413 -0.3702  0.0667
  104OSM   C13F10646   1.994   1.627   9.284 -0.3901  0.1239  0.4705
  104OSM   H13F10647   2.026   1.598   9.386  0.0862  0.4089  0.4070
  104OSM   H13G10648   1.997   1.738   9.281 -1.5943  0.1662 -0.1668
  104OSM   C14F10649   2.095   1.584   9.177 -0.6047 -0.2347  0.1886
  104OSM   H14F10650   2.074   1.479   9.149  0.4546 -0.7770  1.3051
  104OSM   H14G10651   2.197   1.604   9.218 -1.0852  1.5378  0.6011
  104OSM   C15F10652   2.083   1.677   9.056 -0.5551 -0.3377  0.0528
  104OSM   H15F10653   2.110   1.775   9.102  0.1380  1.3080 -3.5722
  104OSM   H15G10654   1.976   1.685   9.028 -0.4105 -1.2322 -0.8019
  104OSM   C16F10655   2.170   1.634   8.942  0.1169  0.1208 -0.2595
  104OSM   H16F10656   2.274   1.612   8.973 -0.6440 -2.7784  0.5777
  104OSM   H16G10657   2.173   1.719   8.870  1.7755  1.2111  1.0241
  104OSM   C17F10658   2.129   1.509   8.864 -0.3399  0.2494  0.0437
  104OSM   H17F10659   2.082   1.429   8.925 -0.7441  1.0336  0.7868
  104OSM   H17G10660   2.220   1.461   8.822 -2.1749 -2.8553 -0.7363
  104OSM   C18F10661   2.039   1.544   8.748  0.9483  0.1287 -0.4183
  104OSM   H18F10662   1.954   1.605   8.786  2.0538  0.6443  1.3674
  104OSM   H18G10663   2.002   1.460   8.684 -3.6361 -0.3310  2.4039
  104OSM   H18H10664   2.088   1.616   8.680 -0.7097  2.1897  0.4696
  105OSM      N10665   1.237   0.408  10.934 -0.5830 -0.0012 -0.2327
  105OSM    C1510666   1.340   0.354  10.834  0.2717 -0.0415 -1.2999
  105OSM   H15A10667   1.291   0.342  10.738  1.4684 -2.0501 -1.7013
  105OSM   H15B10668   1.371   0.256  10.866  0.7313  0.8371  1.0912
  105OSM   H15C10669   1.422   0.422  10.817  0.8935  0.0991  1.7930
  105OSM    C1410670   1.314   0.426  11.066 -0.6906 -0.1114  0.1047
  105OSM   H14A10671   1.397   0.492  11.045  0.7483 -2.5216 -2.4945
  105OSM   H14B10672   1.356   0.331  11.096  0.4446 -0.0882 -1.2927
  105OSM   H14C10673   1.259   0.477  11.144  0.5796  0.0202  0.9355
  105OSM    C1310674   1.180   0.547  10.906 -0.7014  0.1447  0.4379
  105OSM   H13A10675   1.136   0.543  10.807 -3.0177 -0.5302  1.4517
  105OSM   H13B10676   1.256   0.624  10.909 -1.9515  1.4012  0.5572
  105OSM   H13C10677   1.105   0.565  10.981  0.8435 -1.8569  2.5972
  105OSM    C1210678   1.129   0.312  10.961  0.3107  0.6091  0.2194
  105OSM   H12A10679   1.057   0.356  11.029  1.8087  1.6302  1.1981
  105OSM   H12B10680   1.167   0.221  11.006 -1.1662 -0.1138  0.0979
  105OSM    C1110681   1.061   0.257  10.830 -0.7780 -0.1148  0.4253
  105OSM   H11A10682   1.025   0.337  10.762 -1.0624 -2.9641 -3.0710
  105OSM   H11B10683   0.969   0.207  10.867 -1.2836  1.3212  1.1802
  105OSM      P10684   1.138   0.015  10.768 -0.1319 -0.2763 -0.2701
  105OSM    O1310685   1.201  -0.033  10.894  0.0332  0.6787 -0.5098
  105OSM    O1410686   0.993  -0.023  10.747 -0.7196 -0.3026 -0.1299
  105OSM    O1110687   1.217  -0.038  10.641  0.2501 -0.2431  0.0663
  105OSM    O1210688   1.143   0.169  10.754  0.2723  0.1047 -1.4162
  105OSM    C1S10689   1.182   0.018  10.516 -0.8997  0.3649  0.3271
  105OSM    H1S10690   1.188   0.128  10.528  1.7005  0.5225 -1.5463
  105OSM    H1T10691   1.081  -0.018  10.487 -1.4904  2.8008 -0.9176
  105OSM     NF10692   1.222   0.034  10.265 -0.4356 -0.5349 -0.4469
  105OSM    HNF10693   1.165  -0.029  10.213  2.0875 -2.9394 -0.5216
  105OSM    C2S10694   1.278  -0.021  10.390 -0.0643 -0.0573 -0.2527
  105OSM    H2S10695   1.374   0.030  10.414  0.0257 -1.0418  1.6604
  105OSM    C3S10696   1.295  -0.172  10.385  0.3436 -0.3690 -0.6126
  105OSM    H3S10697   1.201  -0.230  10.378 -0.7575  1.2627  0.0934
  105OSM     O310698   1.357  -0.233  10.499 -0.4994 -0.2316  0.0450
  105OSM    HO310699   1.350  -0.171  10.572 -1.4159 -2.0612  1.6001
  105OSM    C4S10700   1.376  -0.197  10.263 -0.2490  0.2554  0.4517
  105OSM    H4S10701   1.476  -0.153  10.255  0.3658 -0.8042  1.7978
  105OSM    C5S10702   1.340  -0.281  10.162 -0.0277 -0.4534 -0.0021
  105OSM    H5S10703   1.252  -0.345  10.176  0.2998 -0.7208  0.8774
  105OSM    C6S10704   1.420  -0.294  10.031  0.3368  0.1874 -0.3481
  105OSM    H6S10705   1.433  -0.402  10.009  0.0243 -0.3508  1.8084
  105OSM    H6T10706   1.523  -0.253  10.042  1.3959 -2.7433  2.4066
  105OSM    C7S10707   1.330  -0.230   9.929 -0.2219 -0.7421 -0.0461
  105OSM    H7S10708   1.318  -0.120   9.937 -0.3193 -0.7902  0.5662
  105OSM    H7T10709   1.227  -0.272   9.940  0.8263 -3.1646  1.2218
  105OSM    C8S10710   1.371  -0.263   9.788  0.4026 -0.4151  0.0261
  105OSM    H8S10711   1.358  -0.371   9.766 -1.7089 -0.1305 -0.2824
  105OSM    H8T10712   1.476  -0.225   9.792 -0.0981  0.9370  1.6819
  105OSM    C9S10713   1.293  -0.189   9.681  0.4648  0.1985 -0.2639
  105OSM    H9S10714   1.271  -0.081   9.698 -0.8080 -0.2224  0.9878
  105OSM    H9T10715   1.189  -0.229   9.686 -0.1873  1.4442 -2.4087
  105OSM   C10S10716   1.340  -0.214   9.534 -0.5106  0.2476 -0.2165
  105OSM   H10S10717   1.331  -0.323   9.514  0.4555  0.0996  0.0857
  105OSM   H10T10718   1.447  -0.188   9.524 -0.5279  1.0440  1.3248
  105OSM   C11S10719   1.255  -0.146   9.428 -0.0652 -0.4691  0.1758
  105OSM   H11S10720   1.220  -0.048   9.465 -0.4243 -0.9773  1.2032
  105OSM   H11T10721   1.158  -0.195   9.402 -0.6691  1.0924 -0.6756
  105OSM   C12S10722   1.312  -0.131   9.285  0.0900  0.5589 -1.4739
  105OSM   H12S10723   1.329  -0.233   9.243 -0.7017 -1.7319  3.0501
  105OSM   H12T10724   1.409  -0.079   9.291  0.7942 -0.8743  1.9419
  105OSM   C13S10725   1.230  -0.044   9.190 -0.9077 -0.2403  0.1996
  105OSM   H13S10726   1.198   0.052   9.236  0.8472 -0.5081  2.1067
  105OSM   H13T10727   1.131  -0.088   9.164 -1.6463  0.8770  1.0083
  105OSM   C14S10728   1.309  -0.011   9.060 -0.4861 -0.0611  0.2837
  105OSM   H14S10729   1.323  -0.106   9.004 -0.9050  0.5544 -0.9016
  105OSM   H14T10730   1.406   0.031   9.094 -0.7219 -0.4894  1.5488
  105OSM   C15S10731   1.247   0.101   8.974 -0.1929 -0.0234 -0.0446
  105OSM   H15S10732   1.260   0.198   9.028  1.0834  0.5406 -1.3063
  105OSM   H15T10733   1.139   0.082   8.959  0.3190 -1.1328 -2.7627
  105OSM   C16S10734   1.333   0.136   8.852  0.7510 -0.2356  0.6082
  105OSM   H16S10735   1.366   0.042   8.803 -1.1160 -1.2263  1.1373
  105OSM   H16T10736   1.429   0.188   8.873 -0.4169  3.1648 -1.5708
  105OSM   C17S10737   1.251   0.211   8.745  0.3522  0.7910 -0.1822
  105OSM   H17S10738   1.222   0.314   8.773 -4.0596  0.2386 -1.8318
  105OSM   H17T10739   1.162   0.145   8.748  1.1837 -0.5763 -2.4536
  105OSM   C18S10740   1.304   0.220   8.604 -0.2685 -0.3313 -0.0666
  105OSM   H18S10741   1.412   0.245   8.613 -0.0100 -2.0071  2.3333
  105OSM   H18T10742   1.255   0.305   8.552 -1.2714  0.9697  2.7825
  105OSM   H18U10743   1.278   0.128   8.547  0.4557 -0.7480  0.2688
  105OSM    C1F10744   1.222   0.164  10.244 -0.6760 -0.1971  0.2516
  105OSM     OF10745   1.304   0.234  10.305  0.1577 -0.0353  0.4075
  105OSM    C2F10746   1.131   0.205  10.142  0.5038 -0.1451  0.0778
  105OSM    H2F10747   1.046   0.260  10.188 -2.0206 -2.3487 -1.6485
  105OSM    H2G10748   1.087   0.114  10.097 -1.4478 -0.5932  2.6572
  105OSM    C3F10749   1.183   0.287  10.023  0.6513  0.2127 -0.0746
  105OSM    H3F10750   1.252   0.217   9.972  0.4437  0.3154 -0.4990
  105OSM    H3G10751   1.243   0.374  10.058 -0.3762  0.6827  0.5773
  105OSM    C4F10752   1.068   0.317   9.928  0.0282  0.2055 -0.0755
  105OSM    H4F10753   1.010   0.401   9.971 -0.6323 -0.0843 -0.3910
  105OSM    H4G10754   1.001   0.233   9.901  1.0962 -1.0993  1.2158
  105OSM    C5F10755   1.113   0.365   9.789  0.3196 -0.5555  0.2258
  105OSM    H5F10756   1.132   0.474   9.790 -1.0727 -0.2960 -0.0676
  105OSM    H5G10757   1.025   0.353   9.722  1.1248 -2.2712 -0.5978
  105OSM    C6F10758   1.223   0.281   9.729  0.3851  0.1081 -0.0412
  105OSM    H6F10759   1.192   0.180   9.763 -0.8113  0.0922 -1.1250
  105OSM    H6G10760   1.320   0.311   9.776 -0.7618  2.9829  0.7307
  105OSM    C7F10761   1.229   0.279   9.579  0.4351 -0.0142 -0.4697
  105OSM    H7F10762   1.126   0.299   9.540  0.4407  1.4630  0.2208
  105OSM    H7G10763   1.257   0.178   9.541 -2.4849 -1.0581 -0.1185
  105OSM    C8F10764   1.320   0.381   9.509  0.0956 -0.4925  0.5208
  105OSM    H8F10765   1.343   0.345   9.407  1.6176 -1.4449  1.1677
  105OSM    H8G10766   1.424   0.387   9.547  0.8339 -1.1587 -1.2890
  105OSM    C9F10767   1.261   0.521   9.524 -0.5238  1.3327  0.2141
  105OSM    H9F10768   1.239   0.565   9.623 -0.7527  1.2732  0.1911
  105OSM   C10F10769   1.196   0.580   9.425  0.6979  0.4434 -0.4439
  105OSM   H10F10770   1.159   0.683   9.438  1.7173  0.5723  2.0771
  105OSM   C11F10771   1.177   0.519   9.284 -0.3494 -0.6604 -0.2963
  105OSM   H11F10772   1.077   0.538   9.238 -0.0330 -3.5199 -2.4098
  105OSM   H11G10773   1.177   0.408   9.289 -0.0459 -0.5960  1.4850
  105OSM   C12F10774   1.289   0.554   9.185 -0.4784  0.0049 -0.4882
  105OSM   H12F10775   1.276   0.472   9.112 -2.3203 -0.0574 -0.1412
  105OSM   H12G10776   1.391   0.538   9.226 -1.0002 -1.4143  0.3235
  105OSM   C13F10777   1.268   0.683   9.108 -0.1308  0.3583 -0.0197
  105OSM   H13F10778   1.227   0.750   9.187 -0.1733 -1.0263  1.1763
  105OSM   H13G10779   1.177   0.677   9.045 -2.8084  0.7472  3.4642
  105OSM   C14F10780   1.391   0.752   9.045  0.5003 -0.1137 -0.3771
  105OSM   H14F10781   1.463   0.748   9.129 -0.6857  0.8545  0.7268
  105OSM   H14G10782   1.370   0.854   9.007 -2.0656 -0.7774 -0.9824
  105OSM   C15F10783   1.448   0.669   8.934 -0.5022 -0.1196 -0.2274
  105OSM   H15F10784   1.386   0.688   8.844  0.2491  2.7120 -0.2700
  105OSM   H15G10785   1.439   0.559   8.946  0.4543 -0.5976 -3.1161
  105OSM   C16F10786   1.596   0.704   8.917  0.1561 -0.1917  0.5124
  105OSM   H16F10787   1.643   0.637   8.992  0.7514  1.1168  1.3653
  105OSM   H16G10788   1.602   0.807   8.960 -2.5378  0.7219 -1.0490
  105OSM   C17F10789   1.645   0.703   8.770 -0.4193  0.7978 -0.3252
  105OSM   H17F10790   1.739   0.761   8.757 -0.0182  0.5777  1.2861
  105OSM   H17G10791   1.557   0.750   8.720 -1.3692 -0.3442  0.2134
  105OSM   C18F10792   1.661   0.559   8.701  0.1255 -0.1225 -0.5331
  105OSM   H18F10793   1.740   0.508   8.761  1.0201 -0.9190 -2.3110
  105OSM   H18G10794   1.694   0.575   8.596  0.8157 -0.2825 -0.3485
  105OSM   H18H10795   1.567   0.501   8.709 -0.6603  1.1326 -0.4745
  106OSM      N10796   1.484   4.050  11.068 -0.4746 -0.3797  0.7215
  106OSM    C1510797   1.462   4.172  11.156  0.0345 -0.2264  0.6997
  106OSM   H15A10798   1.509   4.261  11.118 -0.9557  0.1410  0.2835
  106OSM   H15B10799   1.492   4.153  11.258 -0.4995 -0.5765  0.7972
  106OSM   H15C10800   1.356   4.196  11.159  0.3576  1.8540 -1.4276
  106OSM    C1410801   1.628   4.022  11.072  0.0394 -0.0369 -0.1493
  106OSM   H14A10802   1.691   4.109  11.056 -0.4615  0.2311 -0.6776
  106OSM   H14B10803   1.654   3.937  11.011  1.4512  0.4974 -0.3413
  106OSM   H14C10804   1.649   3.997  11.175 -0.9116  2.7670  0.8246
  106OSM    C1310805   1.403   3.938  11.115 -0.2583 -0.0225 -0.1200
  106OSM   H13A10806   1.297   3.960  11.112 -0.6387 -1.1757  2.3225
  106OSM   H13B10807   1.424   3.914  11.219  0.2476  0.7990 -0.0267
  106OSM   H13C10808   1.426   3.858  11.047 -0.2266  1.6898 -2.2098
  106OSM    C1210809   1.447   4.088  10.924 -0.0813  0.2519 -0.2935
  106OSM   H12A10810   1.513   4.171  10.901 -1.4035  1.3437 -0.2745
  106OSM   H12B10811   1.344   4.119  10.929 -0.6905 -1.3844 -1.9047
  106OSM    C1110812   1.458   3.999  10.804 -0.2020  0.0344 -0.4260
  106OSM   H11A10813   1.560   3.956  10.797  0.2957  1.3636 -1.7836
  106OSM   H11B10814   1.444   4.054  10.708  1.1813 -0.7590 -1.1099
  106OSM      P10815   1.372   3.773  10.710 -0.1224 -0.2226  0.0374
  106OSM    O1310816   1.366   3.648  10.787 -0.3862 -0.5107  0.2335
  106OSM    O1410817   1.265   3.780  10.614  0.0980  0.4360  0.6657
  106OSM    O1110818   1.508   3.782  10.633 -0.0567  0.5735  0.9574
  106OSM    O1210819   1.364   3.891  10.815 -0.7084 -0.7436 -0.0645
  106OSM    C1S10820   1.563   3.681  10.548 -0.5271  0.1317 -0.5035
  106OSM    H1S10821   1.562   3.585  10.604  2.3615  0.2483 -0.0802
  106OSM    H1T10822   1.670   3.703  10.528 -0.3619 -0.3642 -0.2026
  106OSM     NF10823   1.542   3.528  10.350  0.5236 -0.7505  1.0282
  106OSM    HNF10824   1.598   3.535  10.268 -2.3990  0.1520 -1.0781
  106OSM    C2S10825   1.490   3.653  10.414 -0.2027  0.0830  0.8255
  106OSM    H2S10826   1.380   3.647  10.426 -0.4989  0.5773 -1.2450
  106OSM    C3S10827   1.503   3.778  10.325  0.7006  0.2417  0.3258
  106OSM    H3S10828   1.611   3.806  10.324  1.1140 -1.2775  0.1191
  106OSM     O310829   1.463   3.900  10.378  0.3725 -0.2969 -0.5011
  106OSM    HO310830   1.451   3.884  10.471 -1.4566  0.6440 -0.5256
  106OSM    C4S10831   1.433   3.766  10.190 -0.6157  1.2236 -0.3322
  106OSM    H4S10832   1.500   3.723  10.114  0.1848  1.8560 -0.0007
  106OSM    C5S10833   1.308   3.799  10.154  0.6635 -1.1774  0.4779
  106OSM    H5S10834   1.251   3.851  10.233  1.2125 -0.2433  0.2868
  106OSM    C6S10835   1.249   3.797  10.017  0.4616 -0.3098  0.9289
  106OSM    H6S10836   1.245   3.899   9.973  2.5391 -0.4958  0.1775
  106OSM    H6T10837   1.146   3.756  10.017 -0.0082  0.8171  0.1975
  106OSM    C7S10838   1.335   3.720   9.914 -0.1574 -0.0574 -0.8074
  106OSM    H7S10839   1.352   3.620   9.959 -0.1257  0.7815  1.1617
  106OSM    H7T10840   1.433   3.772   9.908  0.5090 -1.0416  0.7469
  106OSM    C8S10841   1.272   3.714   9.775  0.2486  0.3303 -0.6369
  106OSM    H8S10842   1.269   3.820   9.741 -3.6738  0.5455 -0.1036
  106OSM    H8T10843   1.173   3.663   9.776  0.5007 -0.2340  2.0611
  106OSM    C9S10844   1.358   3.653   9.663 -0.0783 -0.3264  0.5984
  106OSM    H9S10845   1.358   3.542   9.665  2.6896 -0.4681 -1.4405
  106OSM    H9T10846   1.465   3.678   9.681 -0.4358  1.7684  0.0172
  106OSM   C10S10847   1.319   3.702   9.526 -0.3066 -0.2454  0.1003
  106OSM   H10S10848   1.322   3.813   9.532 -0.5764 -0.2484  0.2850
  106OSM   H10T10849   1.211   3.685   9.508 -0.7787  0.7078  1.8616
  106OSM   C11S10850   1.416   3.652   9.406  0.0759  0.2175  0.3877
  106OSM   H11S10851   1.415   3.541   9.402  0.7795  0.2293 -0.5168
  106OSM   H11T10852   1.520   3.687   9.427  0.7238 -0.1672 -1.9305
  106OSM   C12S10853   1.397   3.704   9.261  0.4376  0.2656 -0.5992
  106OSM   H12S10854   1.292   3.687   9.227  1.4091 -0.3230 -3.6194
  106OSM   H12T10855   1.465   3.649   9.192 -2.4946 -2.5136 -1.5496
  106OSM   C13S10856   1.430   3.854   9.233 -0.7207 -0.1700  0.4690
  106OSM   H13S10857   1.512   3.889   9.299 -0.7748  0.9989 -0.0697
  106OSM   H13T10858   1.341   3.914   9.261 -0.8856  0.0086 -0.4208
  106OSM   C14S10859   1.483   3.880   9.088  0.0448  0.2568 -0.3128
  106OSM   H14S10860   1.586   3.843   9.068 -0.9952 -2.3966 -1.1475
  106OSM   H14T10861   1.490   3.990   9.072  0.2524  0.1355 -1.0870
  106OSM   C15S10862   1.382   3.816   8.984 -0.3939 -0.1684  0.3739
  106OSM   H15S10863   1.276   3.849   8.991 -0.0331  1.5522 -1.4416
  106OSM   H15T10864   1.380   3.709   9.012 -0.9619 -0.4024 -0.5351
  106OSM   C16S10865   1.416   3.833   8.833  0.3965  0.1557 -0.2818
  106OSM   H16S10866   1.515   3.785   8.822 -0.8105 -3.3070  2.0950
  106OSM   H16T10867   1.428   3.938   8.797  2.5969 -0.7678 -2.5258
  106OSM   C17S10868   1.331   3.758   8.730 -0.4539 -1.1336 -0.4409
  106OSM   H17S10869   1.323   3.654   8.766 -0.9061 -0.6709  0.8381
  106OSM   H17T10870   1.386   3.764   8.633  0.9419  0.9983  0.4129
  106OSM   C18S10871   1.200   3.821   8.712 -0.7271  0.2707  0.6660
  106OSM   H18S10872   1.159   3.844   8.812 -0.6776 -0.1959  0.7928
  106OSM   H18T10873   1.124   3.764   8.655  0.6112 -0.3106 -0.6160
  106OSM   H18U10874   1.215   3.916   8.656 -0.0043  0.8472  1.8085
  106OSM    C1F10875   1.517   3.410  10.405 -0.1256  0.4303 -0.0101
  106OSM     OF10876   1.433   3.401  10.498  0.2742  0.3354  0.2042
  106OSM    C2F10877   1.590   3.290  10.348  0.2590 -0.5428 -0.5189
  106OSM    H2F10878   1.653   3.241  10.425  0.7584  0.2040 -0.4351
  106OSM    H2G10879   1.654   3.330  10.267 -2.3495  0.7628 -2.0689
  106OSM    C3F10880   1.506   3.183  10.281  0.0157  0.1964  0.0310
  106OSM    H3F10881   1.444   3.133  10.358 -0.6183 -1.2498 -1.3567
  106OSM    H3G10882   1.578   3.110  10.237 -0.8924 -0.5055 -0.3202
  106OSM    C4F10883   1.418   3.241  10.165  0.4833  0.2954  0.3904
  106OSM    H4F10884   1.467   3.316  10.099 -1.2077 -1.2116 -2.8152
  106OSM    H4G10885   1.341   3.295  10.224  1.6708  0.0618  2.2325
  106OSM    C5F10886   1.349   3.135  10.074  0.7042 -0.9867 -0.1911
  106OSM    H5F10887   1.312   3.050  10.137 -0.2013  0.7986  1.8040
  106OSM    H5G10888   1.425   3.087  10.010 -0.6813 -0.7642 -2.0831
  106OSM    C6F10889   1.241   3.187   9.983  0.4625  0.1316  0.6069
  106OSM    H6F10890   1.167   3.229  10.054 -1.2252 -1.1833 -0.2944
  106OSM    H6G10891   1.196   3.099   9.931 -1.1514  1.5819 -0.5565
  106OSM    C7F10892   1.286   3.270   9.870 -0.3608 -0.4642  0.3696
  106OSM    H7F10893   1.326   3.361   9.919 -0.4271 -0.1829 -0.0914
  106OSM    H7G10894   1.190   3.291   9.818 -0.6011  2.7541  1.8285
  106OSM    C8F10895   1.398   3.217   9.781  0.0303  0.3689 -0.2635
  106OSM    H8F10896   1.486   3.198   9.846 -1.5295  1.7462  2.4458
  106OSM    H8G10897   1.432   3.303   9.720 -1.7003  2.1490  1.1508
  106OSM    C9F10898   1.371   3.082   9.713  0.3301 -0.3998 -0.1600
  106OSM    H9F10899   1.410   2.990   9.758 -2.2839 -0.5874  1.9859
  106OSM   C10F10900   1.284   3.068   9.608 -0.2011  0.1224 -0.1748
  106OSM   H10F10901   1.260   2.968   9.568  2.8968 -1.0240  0.5298
  106OSM   C11F10902   1.207   3.175   9.543  0.7098  0.1730 -0.1002
  106OSM   H11F10903   1.178   3.262   9.605 -0.4017  1.8119 -2.7479
  106OSM   H11G10904   1.108   3.136   9.511  0.5706 -1.4689  2.1223
  106OSM   C12F10905   1.279   3.247   9.423 -0.7692 -0.9857 -0.5919
  106OSM   H12F10906   1.387   3.263   9.438 -0.8613 -0.7195 -0.2060
  106OSM   H12G10907   1.231   3.346   9.415  0.9180 -0.1855 -1.2953
  106OSM   C13F10908   1.233   3.203   9.280 -0.6917  0.2798  0.1333
  106OSM   H13F10909   1.127   3.179   9.303 -0.2460  1.2106  3.8041
  106OSM   H13G10910   1.287   3.115   9.239 -2.1601  0.6087 -2.7604
  106OSM   C14F10911   1.239   3.316   9.178 -0.3699 -0.3439 -0.3807
  106OSM   H14F10912   1.335   3.367   9.199 -0.6621  0.5555 -1.1432
  106OSM   H14G10913   1.158   3.387   9.206 -1.4160 -2.1100  1.3616
  106OSM   C15F10914   1.245   3.265   9.032 -0.0563 -0.0246 -0.8729
  106OSM   H15F10915   1.143   3.254   8.990  0.3488 -0.8236 -1.6701
  106OSM   H15G10916   1.287   3.162   9.034 -1.0265 -0.4328 -0.1815
  106OSM   C16F10917   1.334   3.350   8.938  0.4823 -0.4701  0.1887
  106OSM   H16F10918   1.439   3.317   8.947  0.2107 -1.6384 -0.6750
  106OSM   H16G10919   1.316   3.454   8.973  0.9483 -0.3345  0.0381
  106OSM   C17F10920   1.304   3.337   8.784 -1.1616 -0.2637 -0.6556
  106OSM   H17F10921   1.344   3.235   8.761  1.0572  1.0964 -3.3894
  106OSM   H17G10922   1.370   3.415   8.742 -1.2030  0.2508  0.2125
  106OSM   C18F10923   1.159   3.340   8.741 -0.4836  0.1286 -0.1523
  106OSM   H18F10924   1.112   3.248   8.783  1.1148  0.3494  2.2942
  106OSM   H18G10925   1.154   3.334   8.630 -0.7208 -1.0080 -0.0964
  106OSM   H18H10926   1.115   3.435   8.778  2.3923  0.6521  2.2341
  107OSM      N10927   3.162   2.553  11.020 -0.5028 -0.4808 -0.2691
  107OSM    C1510928   3.116   2.675  10.948 -0.0425  0.7072  0.6667
  107OSM   H15A10929   3.014   2.663  10.914  0.0838  0.5403  0.3435
  107OSM   H15B10930   3.183   2.697  10.866  0.7495  0.8958  1.3565
  107OSM   H15C10931   3.125   2.765  11.007  0.9160 -0.2965  2.1042
  107OSM    C1410932   3.303   2.580  11.079 -0.3675 -0.5465  0.4966
  107OSM   H14A10933   3.329   2.486  11.125  1.6724 -0.6682 -0.8007
  107OSM   H14B10934   3.298   2.648  11.163  1.0085 -2.5771  2.3235
  107OSM   H14C10935   3.382   2.604  11.010 -0.5559  1.7882  0.9980
  107OSM    C1310936   3.065   2.523  11.140 -0.3369  0.4123  0.7766
  107OSM   H13A10937   3.067   2.604  11.212 -0.3018  1.3475 -0.2468
  107OSM   H13B10938   3.098   2.436  11.194 -1.5165 -0.5827 -0.0605
  107OSM   H13C10939   2.965   2.525  11.101 -0.4010 -1.1796  0.8100
  107OSM    C1210940   3.172   2.427  10.937  0.4710  0.0523 -0.2253
  107OSM   H12A10941   3.200   2.342  10.996  0.6762  1.0878  1.2247
  107OSM   H12B10942   3.256   2.432  10.869  1.6531 -0.9544  1.1253
  107OSM    C1110943   3.054   2.375  10.853  0.7400 -0.6276  0.1572
  107OSM   H11A10944   3.080   2.289  10.788  1.0287 -0.5270  0.1378
  107OSM   H11B10945   3.020   2.454  10.783 -0.7834 -0.0820  1.4630
  107OSM      P10946   2.918   2.235  11.019  0.0673  0.1402  0.3548
  107OSM    O1310947   3.048   2.216  11.087 -0.1977  0.6571 -0.5561
  107OSM    O1410948   2.806   2.261  11.114 -0.4452 -0.0989 -0.3253
  107OSM    O1110949   2.881   2.106  10.935 -0.5262  0.3062  0.6860
  107OSM    O1210950   2.930   2.354  10.923 -0.5033  0.0825 -0.4449
  107OSM    C1S10951   2.754   2.107  10.857  0.3860  0.1646 -0.3331
  107OSM    H1S10952   2.672   2.156  10.914  3.0483  1.6931  2.5024
  107OSM    H1T10953   2.714   2.005  10.837 -1.8982  1.1215 -0.8772
  107OSM     NF10954   2.649   2.191  10.647  0.0338 -0.6002 -0.2384
  107OSM    HNF10955   2.611   2.120  10.588 -1.3930  0.4230 -0.6030
  107OSM    C2S10956   2.777   2.153  10.708 -0.0982 -0.3856 -0.3271
  107OSM    H2S10957   2.838   2.245  10.710  0.7486 -0.9088  2.7611
  107OSM    C3S10958   2.857   2.054  10.611  0.4142 -0.3805 -0.3755
  107OSM    H3S10959   2.795   1.963  10.599 -0.1356 -0.7995  4.1927
  107OSM     O310960   2.987   2.020  10.670  0.1721  0.0012 -0.1315
  107OSM    HO310961   2.981   2.068  10.753  1.0721  0.5621 -0.3716
  107OSM    C4S10962   2.869   2.121  10.477 -0.5521  0.0522 -0.4820
  107OSM    H4S10963   2.795   2.088  10.402 -0.4058 -0.5763 -0.3605
  107OSM    C5S10964   2.980   2.198  10.441  0.0475  0.1793  0.2906
  107OSM    H5S10965   3.047   2.234  10.520 -0.6627 -0.2026  1.0905
  107OSM    C6S10966   2.998   2.258  10.305 -0.3040 -0.4825 -0.3475
  107OSM    H6S10967   3.107   2.261  10.280  0.0557 -0.0205  1.1511
  107OSM    H6T10968   2.986   2.368  10.317  1.1881 -0.4673  1.4813
  107OSM    C7S10969   2.899   2.214  10.196 -0.0675  0.0719 -0.1654
  107OSM    H7S10970   2.793   2.241  10.219  0.1349  2.5369 -1.7224
  107OSM    H7T10971   2.922   2.106  10.184  2.1418  0.6312 -1.5634
  107OSM    C8S10972   2.927   2.281  10.058 -0.4376 -0.2149  0.3588
  107OSM    H8S10973   3.037   2.296  10.048 -0.2560 -2.1963 -1.3262
  107OSM    H8T10974   2.884   2.383  10.071  1.4028  0.7625 -0.7621
  107OSM    C9S10975   2.855   2.216   9.940 -0.2696 -0.3302  0.6953
  107OSM    H9S10976   2.745   2.214   9.955 -0.5796 -0.1114 -1.3306
  107OSM    H9T10977   2.892   2.111   9.942  2.6407  0.5966  1.1769
  107OSM   C10S10978   2.876   2.280   9.805  0.3401 -0.5241  0.1670
  107OSM   H10S10979   2.984   2.278   9.780  0.2509 -1.6996 -0.2017
  107OSM   H10T10980   2.852   2.388   9.804 -0.4465 -0.6774  0.9250
  107OSM   C11S10981   2.804   2.200   9.695  0.1273  0.1283  0.0519
  107OSM   H11S10982   2.696   2.211   9.717 -0.0271  1.6503 -1.2240
  107OSM   H11T10983   2.833   2.093   9.701 -1.3109 -0.2333  1.3540
  107OSM   C12S10984   2.829   2.260   9.559  0.2871 -0.5734 -0.8471
  107OSM   H12S10985   2.940   2.265   9.551  0.1696  1.4040 -1.7686
  107OSM   H12T10986   2.784   2.361   9.554  0.2773 -0.6295 -2.3308
  107OSM   C13S10987   2.776   2.190   9.438 -0.6348  0.5385  0.1155
  107OSM   H13S10988   2.667   2.171   9.451 -0.3297 -1.0819  0.5084
  107OSM   H13T10989   2.825   2.091   9.433  1.1516  1.2339  2.2947
  107OSM   C14S10990   2.792   2.266   9.307  0.6903  0.5018  0.7968
  107OSM   H14S10991   2.897   2.254   9.271  0.6713  2.3331  0.0336
  107OSM   H14T10992   2.763   2.371   9.327  1.0931  0.9436 -0.8345
  107OSM   C15S10993   2.712   2.209   9.186  0.4991 -0.9039  0.1649
  107OSM   H15S10994   2.605   2.230   9.204 -0.1840 -1.1212 -2.9870
  107OSM   H15T10995   2.720   2.098   9.181  1.1386 -0.9344  1.5473
  107OSM   C16S10996   2.753   2.278   9.056 -0.6190 -0.4365  0.0118
  107OSM   H16S10997   2.864   2.277   9.057 -0.3126  3.8718 -2.4284
  107OSM   H16T10998   2.731   2.387   9.056  1.2702  0.0073 -1.1706
  107OSM   C17S10999   2.701   2.222   8.923  0.4613 -0.6567 -0.0650
  107OSM   H17S11000   2.719   2.113   8.918  0.8320 -0.5611 -3.7274
  107OSM   H17T11001   2.736   2.280   8.835 -3.4284  0.8563 -0.8480
  107OSM   C18S11002   2.553   2.262   8.908  0.4636 -0.0046  0.1187
  107OSM   H18S11003   2.492   2.217   8.989  0.3359  1.3246  0.7810
  107OSM   H18T11004   2.513   2.226   8.811 -2.2964 -0.0743  1.1943
  107OSM   H18U11005   2.535   2.371   8.898 -1.1633 -0.0194  2.2932
  107OSM    C1F11006   2.592   2.308  10.661 -0.9534  0.1356 -0.0201
  107OSM     OF11007   2.624   2.388  10.749  0.4848 -0.2627  0.3094
  107OSM    C2F11008   2.464   2.338  10.585 -0.1322  1.2665 -0.1502
  107OSM    H2F11009   2.400   2.374  10.668  0.4231  2.2394 -0.1293
  107OSM    H2G11010   2.429   2.245  10.534  2.1714 -0.0951  0.5830
  107OSM    C3F11011   2.496   2.447  10.481  0.2393 -0.1426 -0.3866
  107OSM    H3F11012   2.546   2.537  10.523 -1.1358 -0.5017  2.1810
  107OSM    H3G11013   2.401   2.485  10.438  0.7514  0.2678 -1.1760
  107OSM    C4F11014   2.578   2.385  10.363  0.0291 -0.3694 -0.4886
  107OSM    H4F11015   2.537   2.287  10.331  0.4393 -0.6402 -0.1975
  107OSM    H4G11016   2.681   2.368  10.401 -0.1672 -2.2277 -0.6828
  107OSM    C5F11017   2.589   2.479  10.247  0.0579  0.1749  0.7715
  107OSM    H5F11018   2.686   2.534  10.243  1.1150 -1.6089  0.6412
  107OSM    H5G11019   2.518   2.561  10.271 -0.9819 -0.1842 -0.9029
  107OSM    C6F11020   2.533   2.440  10.109  0.0758  0.1255 -0.1017
  107OSM    H6F11021   2.435   2.395  10.136  0.7352 -0.7957  0.8771
  107OSM    H6G11022   2.587   2.354  10.064 -0.0470 -1.5239  2.6337
  107OSM    C7F11023   2.499   2.551  10.024  0.0132 -0.0884  0.5378
  107OSM    H7F11024   2.589   2.609   9.995 -0.2188 -0.4429 -0.9820
  107OSM    H7G11025   2.435   2.626  10.075 -2.6139 -0.6819 -1.6415
  107OSM    C8F11026   2.437   2.510   9.888 -0.4215 -0.2374 -0.4726
  107OSM    H8F11027   2.364   2.587   9.853  1.6575  1.6386 -0.9532
  107OSM    H8G11028   2.379   2.416   9.899 -1.6862  0.5854  0.2725
  107OSM    C9F11029   2.547   2.488   9.781 -0.7764  0.2340  0.0125
  107OSM    H9F11030   2.630   2.421   9.808 -0.9509 -0.2039 -0.5111
  107OSM   C10F11031   2.568   2.545   9.661 -0.2381  0.1819  0.0782
  107OSM   H10F11032   2.658   2.523   9.602 -0.7616 -0.2248 -0.5790
  107OSM   C11F11033   2.476   2.644   9.594 -0.0103  0.1211 -0.4839
  107OSM   H11F11034   2.530   2.737   9.565  3.3348 -1.5313  0.0019
  107OSM   H11G11035   2.392   2.679   9.658 -0.0687 -0.9058  0.0083
  107OSM   C12F11036   2.410   2.591   9.466  0.4039 -0.3469 -0.8258
  107OSM   H12F11037   2.346   2.675   9.434  0.2625 -1.0792 -2.5793
  107OSM   H12G11038   2.341   2.508   9.495  0.9254 -0.1395  1.1323
  107OSM   C13F11039   2.497   2.550   9.351 -1.1735 -0.3973 -0.1709
  107OSM   H13F11040   2.553   2.454   9.359 -2.3877 -1.1429 -0.3863
  107OSM   H13G11041   2.580   2.623   9.341 -1.5258 -0.0603 -0.6891
  107OSM   C14F11042   2.431   2.565   9.217  0.2747  0.2547  0.1022
  107OSM   H14F11043   2.506   2.572   9.135 -1.0400  0.3309 -1.1326
  107OSM   H14G11044   2.368   2.657   9.215 -0.7627 -0.4447  0.1468
  107OSM   C15F11045   2.358   2.439   9.184 -0.1376  0.5002  0.2001
  107OSM   H15F11046   2.292   2.415   9.271  0.5454  0.5621  0.7504
  107OSM   H15G11047   2.437   2.362   9.170  0.1485  1.0042 -1.1023
  107OSM   C16F11048   2.272   2.455   9.066  0.8135 -0.2581  0.8784
  107OSM   H16F11049   2.341   2.491   8.987  0.4175 -0.3018  0.5063
  107OSM   H16G11050   2.207   2.542   9.091  0.2222 -0.8291  1.3553
  107OSM   C17F11051   2.196   2.329   9.037  0.4989  0.0955 -0.4884
  107OSM   H17F11052   2.133   2.314   9.128  0.7739  0.6059 -0.2120
  107OSM   H17G11053   2.261   2.239   9.034 -1.5088 -1.6754  2.6204
  107OSM   C18F11054   2.100   2.343   8.920  0.3168 -0.0801 -0.0433
  107OSM   H18F11055   2.158   2.379   8.832 -0.2358 -1.5749 -1.0650
  107OSM   H18G11056   2.025   2.420   8.949  0.4259 -0.3129  0.8853
  107OSM   H18H11057   2.038   2.253   8.898 -0.4387  0.4585 -0.1551
  108OSM      N11058   0.523   6.095  11.260  0.3309  0.0893  0.1221
  108OSM    C1511059   0.505   6.235  11.319 -0.4720  0.1941  0.0684
  108OSM   H15A11060   0.457   6.298  11.246 -1.3266  0.4567  0.8322
  108OSM   H15B11061   0.597   6.276  11.356  0.4534 -1.4785 -0.2836
  108OSM   H15C11062   0.427   6.215  11.392 -0.0849 -0.3190  0.3488
  108OSM    C1411063   0.654   6.088  11.207 -0.5430 -0.3913  0.6711
  108OSM   H14A11064   0.731   6.115  11.277 -1.3359 -0.3973  1.5599
  108OSM   H14B11065   0.658   6.154  11.122  0.7194 -2.2054 -0.7706
  108OSM   H14C11066   0.688   5.990  11.176 -0.4929 -0.1131 -0.1672
  108OSM    C1311067   0.514   5.992  11.369  0.9057  0.4956  0.2096
  108OSM   H13A11068   0.596   6.014  11.435  1.0046  0.5350  0.0757
  108OSM   H13B11069   0.525   5.891  11.332 -0.5831  0.1056  0.7678
  108OSM   H13C11070   0.420   6.002  11.421  0.5021 -1.3119 -0.0859
  108OSM    C1211071   0.413   6.062  11.156 -0.0209  0.4682  0.3258
  108OSM   H12A11072   0.316   6.058  11.203 -0.2313 -0.6980 -0.1766
  108OSM   H12B11073   0.435   5.965  11.113  0.8168 -0.6401  3.0759
  108OSM    C1111074   0.395   6.160  11.042  0.6122  0.6474 -0.2191
  108OSM   H11A11075   0.337   6.103  10.967  1.0493  1.4364 -1.1755
  108OSM   H11B11076   0.489   6.177  10.984  0.5496 -0.1490 -0.5563
  108OSM      P11077   0.175   6.281  11.128 -0.2488  0.1448  0.2584
  108OSM    O1311078   0.131   6.143  11.164  0.1717 -0.5835  0.2890
  108OSM    O1411079   0.157   6.382  11.234 -0.3522 -0.5339  0.1202
  108OSM    O1111080   0.104   6.331  11.002 -0.3862  0.2604  0.2079
  108OSM    O1211081   0.328   6.278  11.082 -0.1871  0.0005  0.5067
  108OSM    C1S11082   0.172   6.395  10.894  0.7805 -0.3997  0.0784
  108OSM    H1S11083   0.283   6.389  10.893  0.7823 -0.9874  1.3245
  108OSM    H1T11084   0.153   6.505  10.901  1.4119 -0.2212 -0.8766
  108OSM     NF11085   0.202   6.374  10.650  0.2926  0.0327  0.4308
  108OSM    HNF11086   0.162   6.422  10.573  2.0582  0.5485 -0.2161
  108OSM    C2S11087   0.111   6.348  10.756 -0.0242 -0.4558 -1.0865
  108OSM    H2S11088   0.107   6.237  10.764  2.1394 -0.6421 -1.8498
  108OSM    C3S11089  -0.033   6.409  10.739 -0.1166  0.2899  0.1424
  108OSM    H3S11090  -0.017   6.517  10.718 -0.6413  0.2285 -0.6324
  108OSM     O311091  -0.104   6.406  10.858 -0.9364  0.5718 -0.6246
  108OSM    HO311092  -0.049   6.355  10.919 -2.1574 -0.1008 -0.0575
  108OSM    C4S11093  -0.113   6.340  10.630 -0.8932  0.9637  0.3206
  108OSM    H4S11094  -0.110   6.394  10.534  0.5008  0.6256  0.1449
  108OSM    C5S11095  -0.161   6.211  10.628 -0.2422  0.3360  0.0321
  108OSM    H5S11096  -0.147   6.161  10.725  1.3882  2.5897  1.0573
  108OSM    C6S11097  -0.233   6.130  10.514 -0.1744 -0.4456 -0.6577
  108OSM    H6S11098  -0.338   6.118  10.547 -0.2711  0.9731 -0.3821
  108OSM    H6T11099  -0.189   6.028  10.507  0.1475 -0.2448 -1.9287
  108OSM    C7S11100  -0.233   6.194  10.373 -0.7274 -0.7093 -1.4568
  108OSM    H7S11101  -0.129   6.214  10.340 -1.5848 -1.9601 -5.5142
  108OSM    H7T11102  -0.286   6.291  10.381  0.4168 -0.2122  1.0714
  108OSM    C8S11103  -0.283   6.100  10.266 -0.5111 -0.2140 -0.7971
  108OSM    H8S11104  -0.383   6.058  10.292 -0.2487 -1.0957 -1.1677
  108OSM    H8T11105  -0.209   6.020  10.243 -0.7235 -1.4351  2.2946
  108OSM    C9S11106  -0.295   6.175  10.134  0.0301 -0.4220  0.7335
  108OSM    H9S11107  -0.191   6.199  10.103 -1.1886  0.7726 -2.9553
  108OSM    H9T11108  -0.350   6.271  10.136  0.2595 -0.0575 -2.9433
  108OSM   C10S11109  -0.353   6.083  10.032  0.1508 -1.4696  0.7267
  108OSM   H10S11110  -0.456   6.060  10.066  0.3311 -2.5716  0.5498
  108OSM   H10T11111  -0.295   5.988  10.034  1.5108 -0.7199 -0.5275
  108OSM   C11S11112  -0.361   6.129   9.886 -0.2726  0.1269 -0.0880
  108OSM   H11S11113  -0.254   6.144   9.864 -0.2145  0.2646  0.2781
  108OSM   H11T11114  -0.424   6.221   9.887 -3.4087 -1.8160 -1.1573
  108OSM   C12S11115  -0.437   6.036   9.794  0.2944 -0.1921 -0.9926
  108OSM   H12S11116  -0.545   6.025   9.817  0.7099  0.7130  1.7759
  108OSM   H12T11117  -0.405   5.930   9.800  0.1594 -0.2272 -0.8999
  108OSM   C13S11118  -0.404   6.083   9.651 -0.3327  0.2443 -0.2632
  108OSM   H13S11119  -0.294   6.101   9.648 -0.7752  3.4403 -2.4224
  108OSM   H13T11120  -0.454   6.181   9.633 -1.5132 -0.0098  1.4534
  108OSM   C14S11121  -0.449   5.999   9.527 -0.1912 -0.3781 -0.0836
  108OSM   H14S11122  -0.557   5.975   9.517 -0.2980 -0.6166  1.4517
  108OSM   H14T11123  -0.387   5.906   9.533  0.9684  0.0782 -3.0185
  108OSM   C15S11124  -0.404   6.068   9.397 -0.8573 -0.5469 -0.6877
  108OSM   H15S11125  -0.297   6.095   9.390 -1.1013  0.9772  0.8324
  108OSM   H15T11126  -0.467   6.157   9.377  0.7941  0.5736 -1.0435
  108OSM   C16S11127  -0.436   5.975   9.280  0.3970  0.2139 -0.4217
  108OSM   H16S11128  -0.545   5.956   9.276 -0.1851  2.8550  0.6736
  108OSM   H16T11129  -0.385   5.877   9.294  1.6075  0.8437 -0.2384
  108OSM   C17S11130  -0.403   6.029   9.146 -0.2914 -0.1497  0.6045
  108OSM   H17S11131  -0.297   6.062   9.151 -0.3081  0.1470 -0.5929
  108OSM   H17T11132  -0.465   6.118   9.121  0.5355  0.7906  1.7534
  108OSM   C18S11133  -0.423   5.929   9.027  0.3529  0.3964  0.0635
  108OSM   H18S11134  -0.396   5.961   8.924  0.8606 -2.5655 -0.8100
  108OSM   H18T11135  -0.533   5.912   9.026  0.6308 -2.1009  2.3191
  108OSM   H18U11136  -0.383   5.829   9.055 -1.1468  0.4246  2.6434
  108OSM    C1F11137   0.313   6.298  10.633 -0.0330 -0.2606  0.6612
  108OSM     OF11138   0.362   6.231  10.722  0.1626  0.5051  0.4976
  108OSM    C2F11139   0.370   6.297  10.491  0.4849  0.5610 -0.2374
  108OSM    H2F11140   0.393   6.402  10.464  2.1584  0.4527  0.6645
  108OSM    H2G11141   0.284   6.260  10.430  1.2551 -1.4948 -0.1716
  108OSM    C3F11142   0.501   6.216  10.478  0.4636 -0.0368 -0.2109
  108OSM    H3F11143   0.490   6.107  10.497  0.0972  0.0154 -0.1046
  108OSM    H3G11144   0.572   6.254  10.555 -0.6003 -2.4948  2.1465
  108OSM    C4F11145   0.549   6.239  10.332  0.0473  0.4016 -0.3072
  108OSM    H4F11146   0.643   6.188  10.302  1.3442  0.6854  2.8428
  108OSM    H4G11147   0.567   6.341  10.292  3.6469 -0.5436 -1.5001
  108OSM    C5F11148   0.456   6.181  10.225  0.3892  0.1870  0.0819
  108OSM    H5F11149   0.362   6.239  10.212  1.4559  2.3137  1.1717
  108OSM    H5G11150   0.428   6.076  10.247 -0.1052 -0.7341 -4.0853
  108OSM    C6F11151   0.515   6.180  10.081 -0.2054 -0.5515 -0.2768
  108OSM    H6F11152   0.452   6.127  10.007  0.4887  0.4796 -1.6449
  108OSM    H6G11153   0.603   6.112  10.073  0.1603  0.0826 -1.9408
  108OSM    C7F11154   0.544   6.316  10.017  0.5319 -0.0058 -0.0573
  108OSM    H7F11155   0.635   6.355  10.066  1.4299 -0.7821 -1.0772
  108OSM    H7G11156   0.457   6.378  10.049 -0.5596 -0.8921 -1.1845
  108OSM    C8F11157   0.558   6.300   9.859  0.0898 -0.5372  0.1512
  108OSM    H8F11158   0.645   6.233   9.847 -0.3503 -1.0431 -0.2493
  108OSM    H8G11159   0.572   6.405   9.823 -3.6946 -0.3842 -1.4253
  108OSM    C9F11160   0.439   6.235   9.785 -0.2578 -0.1226  0.0055
  108OSM    H9F11161   0.358   6.184   9.840  1.8086 -1.1414  2.2947
  108OSM   C10F11162   0.439   6.226   9.652  0.9285  0.5723 -0.5614
  108OSM   H10F11163   0.352   6.181   9.601  1.4997  0.7352 -1.7084
  108OSM   C11F11164   0.544   6.286   9.566  0.2467  0.8873 -0.3626
  108OSM   H11F11165   0.605   6.206   9.519  0.2428  0.8716 -0.3412
  108OSM   H11G11166   0.620   6.350   9.616  0.5430  1.3057 -1.3409
  108OSM   C12F11167   0.465   6.377   9.468  0.0785  0.4601 -0.8261
  108OSM   H12F11168   0.401   6.439   9.534 -2.6118 -1.9773 -0.9727
  108OSM   H12G11169   0.389   6.326   9.405  0.3298 -0.7249 -0.2014
  108OSM   C13F11170   0.563   6.456   9.379 -0.2531  0.4369  0.7149
  108OSM   H13F11171   0.632   6.384   9.330 -0.2121  0.4045  0.8190
  108OSM   H13G11172   0.621   6.524   9.446 -0.1061  2.7248 -1.5916
  108OSM   C14F11173   0.484   6.529   9.265  0.2765  0.6163  0.1592
  108OSM   H14F11174   0.531   6.626   9.237 -0.3244  1.3165  1.4641
  108OSM   H14G11175   0.383   6.564   9.296  0.4926  0.1409  1.4823
  108OSM   C15F11176   0.468   6.459   9.123 -0.4915 -0.3111 -0.2967
  108OSM   H15F11177   0.421   6.358   9.129 -2.1295  0.3092 -1.7525
  108OSM   H15G11178   0.572   6.441   9.089 -0.2225 -2.8547  1.5752
  108OSM   C16F11179   0.400   6.549   9.020 -0.0937  0.3152 -0.1323
  108OSM   H16F11180   0.450   6.647   9.011  1.0265 -0.0350  1.7114
  108OSM   H16G11181   0.295   6.571   9.049 -0.4256 -2.6962  1.4125
  108OSM   C17F11182   0.399   6.489   8.876 -0.9199 -0.6534 -1.2689
  108OSM   H17F11183   0.506   6.458   8.867 -0.6513 -0.4981  0.9007
  108OSM   H17G11184   0.381   6.581   8.817  2.9505  0.7562 -0.5905
  108OSM   C18F11185   0.298   6.372   8.852  0.4743 -0.0719 -0.3089
  108OSM   H18F11186   0.193   6.410   8.844  0.1884 -0.3254  1.7447
  108OSM   H18G11187   0.309   6.299   8.934 -1.5663 -0.6612 -0.4898
  108OSM   H18H11188   0.336   6.308   8.770  1.5986 -2.2760  1.8284
  109OSM      N11189   0.454   0.412  10.945  0.7045 -0.4734 -0.4942
  109OSM    C1511190   0.331   0.494  10.964 -0.2826 -0.1906 -0.3340
  109OSM   H15A11191   0.321   0.527  11.066 -1.4343 -2.3567  0.3146
  109OSM   H15B11192   0.239   0.442  10.943  0.3101 -1.5056  0.1472
  109OSM   H15C11193   0.341   0.586  10.908 -1.2516  0.2751  0.2391
  109OSM    C1411194   0.567   0.483  11.006 -0.4075 -0.3100 -0.4195
  109OSM   H14A11195   0.530   0.523  11.100 -0.5790  0.2600 -0.7276
  109OSM   H14B11196   0.602   0.562  10.943 -4.1295  1.7186 -0.2673
  109OSM   H14C11197   0.650   0.421  11.036  1.0744  2.3346  1.4003
  109OSM    C1311198   0.427   0.283  11.022 -0.5719 -0.1166  0.0664
  109OSM   H13A11199   0.440   0.305  11.127 -0.8247 -2.2417  0.5856
  109OSM   H13B11200   0.510   0.220  10.995 -0.9965 -0.2798 -0.8999
  109OSM   H13C11201   0.336   0.233  10.993 -1.3491  0.4260  1.4723
  109OSM    C1211202   0.478   0.392  10.794 -0.4712  0.2640 -0.3691
  109OSM   H12A11203   0.392   0.342  10.750  0.4787  0.2998 -2.4038
  109OSM   H12B11204   0.562   0.324  10.789  0.3655  1.1741  0.8552
  109OSM    C1111205   0.507   0.520  10.719  0.5403 -0.3897 -0.2431
  109OSM   H11A11206   0.430   0.594  10.753  1.8793  0.4029  1.1811
  109OSM   H11B11207   0.486   0.522  10.610  1.9302  1.9356 -0.5501
  109OSM      P11208   0.775   0.497  10.702 -0.1305  0.5343  0.0757
  109OSM    O1311209   0.884   0.576  10.759 -0.6415  0.4182  0.6519
  109OSM    O1411210   0.761   0.352  10.724 -0.0827 -0.3895  0.0329
  109OSM    O1111211   0.784   0.526  10.542  0.5846 -0.1014 -0.0345
  109OSM    O1211212   0.641   0.576  10.748 -0.1169 -0.3821  0.0030
  109OSM    C1S11213   0.704   0.628  10.481 -0.0883  0.7927  0.1447
  109OSM    H1S11214   0.687   0.714  10.550  0.1947  0.3438  0.7788
  109OSM    H1T11215   0.610   0.576  10.451  1.9476 -1.4640 -2.8712
  109OSM     NF11216   0.675   0.793  10.308 -0.4884 -0.4218  0.6853
  109OSM    HNF11217   0.608   0.770  10.238  0.3044 -1.4887  0.2591
  109OSM    C2S11218   0.760   0.684  10.347 -0.3047  0.0025  0.3973
  109OSM    H2S11219   0.862   0.723  10.365 -0.3404 -0.0536  0.7380
  109OSM    C3S11220   0.778   0.571  10.243  0.2971 -0.1190  0.2927
  109OSM    H3S11221   0.674   0.538  10.222  0.1498  0.3107  0.3226
  109OSM     O311222   0.850   0.455  10.289  0.3460 -0.1895  0.0329
  109OSM    HO311223   0.839   0.458  10.385  3.2246 -1.6393  0.5227
  109OSM    C4S11224   0.834   0.624  10.117  0.1892  0.1418  0.3662
  109OSM    H4S11225   0.940   0.652  10.126  0.1688 -0.1416  1.7086
  109OSM    C5S11226   0.769   0.622   9.997 -0.1562 -0.5833 -0.7134
  109OSM    H5S11227   0.662   0.605   9.983 -0.4380  2.4381 -3.1226
  109OSM    C6S11228   0.842   0.674   9.872  0.6326 -0.2126 -0.4059
  109OSM    H6S11229   0.952   0.677   9.887  0.7615 -3.6178  0.1168
  109OSM    H6T11230   0.834   0.784   9.864  1.4744  0.0330  1.5652
  109OSM    C7S11231   0.782   0.614   9.752 -0.5668  0.1664 -0.8618
  109OSM    H7S11232   0.672   0.600   9.758 -0.5351  0.2917  0.2247
  109OSM    H7T11233   0.820   0.511   9.761  1.9115  1.1069  0.4178
  109OSM    C8S11234   0.829   0.678   9.624  0.0777 -0.2762  0.3887
  109OSM    H8S11235   0.936   0.701   9.642 -0.0583 -0.8304  2.1682
  109OSM    H8T11236   0.787   0.779   9.605  3.1562  1.1559  0.6993
  109OSM    C9S11237   0.805   0.587   9.500 -0.0183  0.2849 -0.8382
  109OSM    H9S11238   0.696   0.573   9.490 -0.1948  2.8687 -4.3854
  109OSM    H9T11239   0.857   0.489   9.505  3.0907  1.8540  0.1371
  109OSM   C10S11240   0.845   0.665   9.376 -0.1017 -0.2968 -0.1520
  109OSM   H10S11241   0.954   0.675   9.357  0.1169  0.4215  1.3343
  109OSM   H10T11242   0.807   0.769   9.386  1.0641  0.1992 -0.6603
  109OSM   C11S11243   0.782   0.596   9.255 -0.3560 -0.7440 -0.0734
  109OSM   H11S11244   0.674   0.596   9.283 -1.2666  0.7759 -3.0699
  109OSM   H11T11245   0.811   0.489   9.244 -3.3486 -1.6724  0.1316
  109OSM   C12S11246   0.795   0.675   9.120 -0.8396  0.3033  0.3335
  109OSM   H12S11247   0.895   0.662   9.074 -1.7512 -1.4542 -1.2809
  109OSM   H12T11248   0.781   0.782   9.146 -2.5337 -0.2914  2.1582
  109OSM   C13S11249   0.710   0.632   9.003 -0.4812  0.1702 -0.1448
  109OSM   H13S11250   0.601   0.644   9.019 -0.1008  1.3191  2.0007
  109OSM   H13T11251   0.734   0.524   8.991 -0.0607  0.3001 -0.4894
  109OSM   C14S11252   0.746   0.718   8.882  0.7445 -0.1416 -0.6015
  109OSM   H14S11253   0.854   0.706   8.859  1.8387  0.4518  3.4766
  109OSM   H14T11254   0.728   0.822   8.917  0.8097 -0.3138 -0.0472
  109OSM   C15S11255   0.650   0.687   8.760 -0.0674 -0.3570 -0.4404
  109OSM   H15S11256   0.549   0.720   8.791 -0.4371 -0.0389 -1.8936
  109OSM   H15T11257   0.640   0.579   8.733 -0.3671 -0.7596  1.1825
  109OSM   C16S11258   0.682   0.748   8.627 -0.9619 -0.3019  1.0620
  109OSM   H16S11259   0.775   0.698   8.592 -0.4920  1.7763 -0.9234
  109OSM   H16T11260   0.703   0.857   8.634  0.7679 -0.7042  4.0694
  109OSM   C17S11261   0.583   0.733   8.510  0.4672 -0.0778 -0.6570
  109OSM   H17S11262   0.480   0.771   8.525  0.9653  1.9455 -1.9721
  109OSM   H17T11263   0.575   0.624   8.488 -1.7605 -0.2061  0.5092
  109OSM   C18S11264   0.635   0.792   8.379 -0.2097  0.5494  0.4023
  109OSM   H18S11265   0.742   0.769   8.361  0.0412  2.2723 -0.4214
  109OSM   H18T11266   0.635   0.903   8.374  2.9741  0.5759 -1.8179
  109OSM   H18U11267   0.579   0.753   8.291  2.0740 -1.6337 -0.1867
  109OSM    C1F11268   0.669   0.909  10.370 -0.3779 -0.6958 -0.0211
  109OSM     OF11269   0.736   0.934  10.470 -0.2918 -0.4542 -0.3004
  109OSM    C2F11270   0.576   1.012  10.308  0.1250  0.0015 -0.1723
  109OSM    H2F11271   0.521   1.068  10.387  3.4091  2.4886  0.5517
  109OSM    H2G11272   0.518   0.959  10.229  1.3206 -4.0697  1.4140
  109OSM    C3F11273   0.657   1.114  10.226 -0.2120 -0.2072  0.3014
  109OSM    H3F11274   0.737   1.161  10.288 -0.0479  0.7067 -0.5718
  109OSM    H3G11275   0.582   1.192  10.200 -0.3778 -0.8330 -1.1466
  109OSM    C4F11276   0.709   1.046  10.098  0.5691  0.0708 -0.2578
  109OSM    H4F11277   0.620   1.016  10.039  1.3475  1.6601 -2.3353
  109OSM    H4G11278   0.764   0.953  10.126 -1.5534 -1.0039  0.6181
  109OSM    C5F11279   0.786   1.142  10.004  0.1754  0.1348  0.2227
  109OSM    H5F11280   0.867   1.182  10.068 -0.2779 -1.5105  1.9274
  109OSM    H5G11281   0.722   1.224   9.966 -0.3477 -0.3716 -0.0093
  109OSM    C6F11282   0.832   1.068   9.878 -0.2814  0.0242  0.9074
  109OSM    H6F11283   0.735   1.033   9.838 -0.4256  0.6601  0.6983
  109OSM    H6G11284   0.886   0.972   9.898 -2.9603 -1.7920 -0.0749
  109OSM    C7F11285   0.910   1.153   9.778 -0.0548  0.3424  0.8043
  109OSM    H7F11286   1.006   1.179   9.828  1.0016 -1.0840 -0.3908
  109OSM    H7G11287   0.863   1.251   9.751  0.2715  0.4335  0.5592
  109OSM    C8F11288   0.949   1.078   9.647  0.3897  0.4462 -0.3208
  109OSM    H8F11289   1.000   0.987   9.685 -1.2862 -0.9987 -1.3581
  109OSM    H8G11290   1.031   1.147   9.618  2.7458 -1.1065  2.1408
  109OSM    C9F11291   0.829   1.057   9.553  0.0422 -0.0079 -0.6796
  109OSM    H9F11292   0.725   1.055   9.588  0.1524  2.8447  0.0515
  109OSM   C10F11293   0.842   1.049   9.420  0.2705 -0.5300 -0.1270
  109OSM   H10F11294   0.745   1.047   9.368 -1.1404  0.4503  2.2617
  109OSM   C11F11295   0.971   1.054   9.339  0.0535 -0.0091 -0.0283
  109OSM   H11F11296   1.042   0.977   9.376 -0.2188 -0.4879 -0.4927
  109OSM   H11G11297   1.010   1.155   9.360 -0.4156  0.4412 -1.2191
  109OSM   C12F11298   0.955   1.056   9.183 -0.2709  0.1147  0.1734
  109OSM   H12F11299   0.884   1.139   9.162 -0.5821 -0.0820  0.4377
  109OSM   H12G11300   0.889   0.971   9.154 -0.7448 -0.1022  1.8051
  109OSM   C13F11301   1.083   1.057   9.098  0.6495  0.8498  0.0400
  109OSM   H13F11302   1.140   0.963   9.114 -1.4500 -0.4808 -0.0020
  109OSM   H13G11303   1.150   1.141   9.128  0.6076  0.4971  1.1340
  109OSM   C14F11304   1.061   1.067   8.945 -0.1717  0.3915  0.1904
  109OSM   H14F11305   0.989   1.149   8.925  0.3548  0.8566  0.1660
  109OSM   H14G11306   1.036   0.965   8.908  2.2468 -0.7113  1.3288
  109OSM   C15F11307   1.192   1.099   8.876 -0.0501 -0.1723 -0.4876
  109OSM   H15F11308   1.276   1.047   8.927 -2.1793 -2.9251  0.4284
  109OSM   H15G11309   1.204   1.209   8.886  0.1894 -0.1571 -0.9075
  109OSM   C16F11310   1.180   1.083   8.727 -0.9159  0.3398  0.5000
  109OSM   H16F11311   1.077   1.118   8.705 -1.6158 -1.3589  0.9059
  109OSM   H16G11312   1.174   0.977   8.696  0.7449  0.4993 -0.5171
  109OSM   C17F11313   1.284   1.160   8.634  0.4756 -0.0976  0.2571
  109OSM   H17F11314   1.288   1.270   8.651 -0.0505  0.2692 -1.7194
  109OSM   H17G11315   1.241   1.146   8.533 -0.6745  1.2416  0.5330
  109OSM   C18F11316   1.416   1.092   8.633 -0.2292 -0.1929 -0.5287
  109OSM   H18F11317   1.418   1.018   8.550 -0.5177 -0.3094 -0.4313
  109OSM   H18G11318   1.438   1.043   8.729 -1.9762 -1.6246 -0.7988
  109OSM   H18H11319   1.492   1.170   8.610 -3.3391  3.1774 -0.5260
  110OSM      N11320   2.395   5.832  10.962  0.1251 -0.2620 -0.8231
  110OSM    C1511321   2.411   5.979  10.957 -0.4559 -0.0450  0.0082
  110OSM   H15A11322   2.339   6.038  11.013  0.2233  1.8344 -1.0251
  110OSM   H15B11323   2.402   6.013  10.855  3.3723  0.9864 -0.1358
  110OSM   H15C11324   2.505   6.017  10.993 -0.0083 -0.5051 -0.6629
  110OSM    C1411325   2.469   5.779  10.843 -0.6763 -0.3783  0.4189
  110OSM   H14A11326   2.408   5.796  10.755  0.4401  1.2145 -0.0963
  110OSM   H14B11327   2.494   5.674  10.851  0.4260 -0.1010  0.7516
  110OSM   H14C11328   2.565   5.829  10.841  0.4293 -2.3891 -0.8025
  110OSM    C1311329   2.460   5.774  11.085  0.1341 -0.4846  0.0068
  110OSM   H13A11330   2.469   5.667  11.080  0.0690 -0.4375 -4.1273
  110OSM   H13B11331   2.401   5.813  11.168 -1.8426  0.6071 -1.8017
  110OSM   H13C11332   2.562   5.806  11.098  0.9013 -2.6607 -0.4067
  110OSM    C1211333   2.245   5.796  10.952 -0.5363  0.0698  0.5681
  110OSM   H12A11334   2.234   5.690  10.930  2.3939  0.3192 -3.1364
  110OSM   H12B11335   2.189   5.838  10.869  0.0857 -2.5410 -1.3025
  110OSM    C1111336   2.162   5.843  11.076 -0.2625  0.3027 -0.4173
  110OSM   H11A11337   2.206   5.811  11.173 -0.9851  1.5382  0.3409
  110OSM   H11B11338   2.059   5.800  11.078 -1.4260  2.8282 -1.4717
  110OSM      P11339   2.025   6.059  11.032  0.1441 -0.1115 -0.0836
  110OSM    O1311340   1.924   6.017  11.131  0.2182  0.1119 -0.0272
  110OSM    O1411341   2.049   6.205  11.035  0.0813 -0.4933 -0.5531
  110OSM    O1111342   1.988   6.001  10.892 -0.1643  0.3693 -0.9153
  110OSM    O1211343   2.157   5.984  11.069 -0.1369 -0.1037  0.0650
  110OSM    C1S11344   2.069   6.037  10.776 -0.2531 -0.1135  0.0661
  110OSM    H1S11345   2.122   5.948  10.736 -0.0334 -0.4822  1.1297
  110OSM    H1T11346   2.136   6.123  10.798 -2.2102  1.6646 -0.6187
  110OSM     NF11347   2.072   6.113  10.544  0.3218 -0.2631  0.5059
  110OSM    HNF11348   2.075   6.208  10.513  0.5904  0.0781  1.5411
  110OSM    C2S11349   1.981   6.083  10.653 -0.1868 -0.3592 -0.6543
  110OSM    H2S11350   1.914   5.998  10.627 -0.8435 -0.1450  0.3011
  110OSM    C3S11351   1.884   6.199  10.689 -0.0527  0.4225  0.8721
  110OSM    H3S11352   1.946   6.273  10.745 -1.0792  1.3281  0.8421
  110OSM     O311353   1.791   6.165  10.792 -0.3750 -0.3083  0.2428
  110OSM    HO311354   1.829   6.088  10.834  0.1113  0.7237  1.8075
  110OSM    C4S11355   1.808   6.252  10.571 -0.5612 -0.8905  0.2581
  110OSM    H4S11356   1.749   6.170  10.529  0.5268 -2.5439  1.8124
  110OSM    C5S11357   1.813   6.372  10.514  0.9652  0.0350  0.4415
  110OSM    H5S11358   1.893   6.446  10.532  1.8403 -0.5062 -0.9876
  110OSM    C6S11359   1.723   6.395  10.393  0.3193 -0.0065 -1.1863
  110OSM    H6S11360   1.654   6.479  10.418 -0.1215 -0.8289  0.4764
  110OSM    H6T11361   1.671   6.307  10.351  0.6963 -1.3279  0.9693
  110OSM    C7S11362   1.806   6.447  10.272 -0.8157 -0.5058 -0.4244
  110OSM    H7S11363   1.884   6.517  10.309  0.9606 -2.6037  0.0654
  110OSM    H7T11364   1.750   6.500  10.192  1.8986 -0.1601 -2.2549
  110OSM    C8S11365   1.889   6.334  10.211 -0.7426  0.4025 -0.5765
  110OSM    H8S11366   1.836   6.237  10.199  0.5536 -0.7137  2.0112
  110OSM    H8T11367   1.974   6.303  10.276 -1.7321  0.3398  0.7316
  110OSM    C9S11368   1.933   6.370  10.073 -0.1873 -0.6102  0.3426
  110OSM    H9S11369   2.004   6.292  10.037 -0.3875 -0.4845 -0.3334
  110OSM    H9T11370   1.967   6.475  10.066 -1.8851 -0.1093 -1.5014
  110OSM   C10S11371   1.813   6.359   9.969  0.5380  0.2472  0.7134
  110OSM   H10S11372   1.749   6.450   9.958 -2.6364 -1.9081 -0.2937
  110OSM   H10T11373   1.740   6.276   9.984  1.7559 -0.7829  1.0876
  110OSM   C11S11374   1.865   6.321   9.833  0.1827 -0.2085  0.0173
  110OSM   H11S11375   1.903   6.217   9.826 -1.4886 -0.7906 -1.0209
  110OSM   H11T11376   1.954   6.383   9.810  0.3846 -0.7540 -0.7222
  110OSM   C12S11377   1.759   6.345   9.724 -0.1383 -0.0569  0.0986
  110OSM   H12S11378   1.723   6.447   9.747 -0.2628  0.1191 -0.8490
  110OSM   H12T11379   1.672   6.276   9.728 -0.0367 -0.4115 -2.2484
  110OSM   C13S11380   1.814   6.345   9.580 -0.6046  0.2477 -0.5226
  110OSM   H13S11381   1.840   6.238   9.569 -0.6775  0.4110 -3.0489
  110OSM   H13T11382   1.913   6.395   9.578 -0.9958  1.0369 -0.7472
  110OSM   C14S11383   1.732   6.384   9.454 -0.4173 -0.4289 -0.2683
  110OSM   H14S11384   1.737   6.494   9.437 -2.9989  0.2218  2.4402
  110OSM   H14T11385   1.629   6.355   9.483 -0.0579 -1.6710 -0.1856
  110OSM   C15S11386   1.771   6.293   9.336 -0.4133 -0.3306  0.0961
  110OSM   H15S11387   1.720   6.195   9.325 -0.9878  0.0925 -1.1297
  110OSM   H15T11388   1.880   6.273   9.346 -0.5052 -1.0262 -0.2023
  110OSM   C16S11389   1.742   6.361   9.194 -0.2441  0.9405 -0.1171
  110OSM   H16S11390   1.766   6.281   9.121 -0.4995  1.7292 -1.0800
  110OSM   H16T11391   1.810   6.446   9.172 -0.6296  1.4177  0.4943
  110OSM   C17S11392   1.599   6.410   9.185  0.1852  0.8617  0.6964
  110OSM   H17S11393   1.565   6.470   9.272  1.9214 -0.6455  2.5024
  110OSM   H17T11394   1.540   6.317   9.197  1.6262 -0.0506  0.9219
  110OSM   C18S11395   1.570   6.474   9.047 -0.5998 -0.0714  0.1678
  110OSM   H18S11396   1.461   6.463   9.031 -0.7361  0.3006  0.8219
  110OSM   H18T11397   1.614   6.413   8.965 -0.9370 -0.9759  0.6443
  110OSM   H18U11398   1.590   6.583   9.044 -1.5311  0.1049  0.1911
  110OSM    C1F11399   2.157   6.021  10.488 -0.2459 -1.0059 -0.4599
  110OSM     OF11400   2.132   5.906  10.498 -0.6198 -0.6197 -0.0914
  110OSM    C2F11401   2.263   6.070  10.401 -0.8595 -0.2083 -0.8406
  110OSM    H2F11402   2.361   6.057  10.453 -0.8597 -0.7274 -0.9590
  110OSM    H2G11403   2.247   6.178  10.380 -0.8317  0.0592  0.4491
  110OSM    C3F11404   2.261   5.994  10.275  0.6086 -0.9862 -0.4863
  110OSM    H3F11405   2.278   5.884  10.282  1.6070 -0.8056  0.2351
  110OSM    H3G11406   2.356   6.014  10.222  0.4780 -1.0788 -0.7547
  110OSM    C4F11407   2.138   6.036  10.183  0.3473  0.1142  0.7677
  110OSM    H4F11408   2.105   6.142  10.189  1.4410  0.7398 -2.4823
  110OSM    H4G11409   2.044   5.986  10.217 -0.1519  0.7232  0.3116
  110OSM    C5F11410   2.156   5.996  10.035 -0.2977 -0.7985  0.5318
  110OSM    H5F11411   2.050   5.998  10.000 -0.1351 -1.0495  0.0253
  110OSM    H5G11412   2.212   5.901  10.025  2.0241  0.6557 -0.9616
  110OSM    C6F11413   2.232   6.100   9.950 -0.7244  0.1408 -0.0952
  110OSM    H6F11414   2.318   6.142  10.008 -0.7787 -2.3993  2.0864
  110OSM    H6G11415   2.161   6.184   9.942 -3.9912 -2.2817  1.2855
  110OSM    C7F11416   2.289   6.035   9.823 -0.2098  0.1643  0.4651
  110OSM    H7F11417   2.210   5.962   9.793  1.5815 -1.9925  0.7669
  110OSM    H7G11418   2.383   5.992   9.863  0.5264  2.2451  1.1157
  110OSM    C8F11419   2.334   6.134   9.713  0.6188  0.0912 -0.2672
  110OSM    H8F11420   2.402   6.097   9.634  1.5925  2.8112 -0.8221
  110OSM    H8G11421   2.402   6.211   9.757  1.9025 -0.3192 -1.4775
  110OSM    C9F11422   2.200   6.206   9.665 -0.4051 -0.0144 -0.1357
  110OSM    H9F11423   2.148   6.276   9.732 -3.0471 -0.6839 -1.3506
  110OSM   C10F11424   2.154   6.203   9.535 -0.2696 -0.0705 -0.1436
  110OSM   H10F11425   2.058   6.251   9.513 -0.8824 -0.8204  0.7981
  110OSM   C11F11426   2.214   6.119   9.425  0.0838  0.0075  0.2006
  110OSM   H11F11427   2.216   6.009   9.441 -0.7748 -0.0174  0.1972
  110OSM   H11G11428   2.318   6.148   9.400  0.3518 -1.1370 -0.0660
  110OSM   C12F11429   2.129   6.136   9.301 -0.1267  0.1003  0.7645
  110OSM   H12F11430   2.112   6.244   9.280  1.0097  0.1211 -0.1052
  110OSM   H12G11431   2.026   6.099   9.323 -0.3139 -1.0476 -1.7564
  110OSM   C13F11432   2.190   6.083   9.168 -0.3330 -0.2499  0.2204
  110OSM   H13F11433   2.214   5.974   9.163  0.3493 -0.1501  1.1988
  110OSM   H13G11434   2.284   6.136   9.143 -0.0456  0.0847  1.9161
  110OSM   C14F11435   2.109   6.122   9.046 -0.1537 -0.2185 -0.7371
  110OSM   H14F11436   2.156   6.076   8.956 -0.4664 -0.8016 -0.6098
  110OSM   H14G11437   2.118   6.232   9.036 -0.0945 -0.1108  0.3763
  110OSM   C15F11438   1.962   6.088   9.040 -0.1146  0.3125  0.7472
  110OSM   H15F11439   1.909   6.115   9.133 -0.4984  1.2330  0.2749
  110OSM   H15G11440   1.953   5.978   9.024 -0.6655  0.4301  0.1626
  110OSM   C16F11441   1.887   6.157   8.918 -0.5194 -1.0227  0.0837
  110OSM   H16F11442   1.887   6.266   8.941 -1.0359 -0.7969 -0.9764
  110OSM   H16G11443   1.783   6.118   8.917 -2.0106  2.5494  0.6336
  110OSM   C17F11444   1.948   6.118   8.781  0.0214  0.4000  0.3760
  110OSM   H17F11445   1.964   6.008   8.777  0.5964  0.5210 -1.4217
  110OSM   H17G11446   2.049   6.164   8.768  1.6790 -2.4796  1.9911
  110OSM   C18F11447   1.862   6.162   8.666  0.1717  0.5543 -0.1361
  110OSM   H18F11448   1.757   6.156   8.701  0.5872 -1.7642  0.9019
  110OSM   H18G11449   1.867   6.095   8.578 -0.1343  0.2139  0.1039
  110OSM   H18H11450   1.886   6.267   8.641  1.1259 -0.1978 -2.6628
  111OSM      N11451   1.781   2.984  10.850  0.2602 -0.1254 -0.2543
  111OSM    C1511452   1.785   2.855  10.771 -0.4866 -0.0652 -0.4672
  111OSM   H15A11453   1.717   2.856  10.687 -0.8580 -2.6656 -0.2874
  111OSM   H15B11454   1.741   2.781  10.837 -1.8478  0.3337 -0.9210
  111OSM   H15C11455   1.884   2.811  10.772 -1.7036 -3.1297  1.8707
  111OSM    C1411456   1.638   3.016  10.884  0.1972 -0.2038 -1.2390
  111OSM   H14A11457   1.593   2.942  10.948 -0.5037 -0.4252 -1.9649
  111OSM   H14B11458   1.586   3.032  10.790 -1.2790  2.3934 -0.0948
  111OSM   H14C11459   1.637   3.107  10.941  1.4762 -0.6829 -0.4130
  111OSM    C1311460   1.848   2.954  10.982  0.0973  0.5848 -0.4129
  111OSM   H13A11461   1.954   2.949  10.962  0.4090  2.8501  0.4657
  111OSM   H13B11462   1.815   2.865  11.033 -2.6519  0.9902 -1.2907
  111OSM   H13C11463   1.838   3.041  11.045  2.4888  0.7942 -0.2245
  111OSM    C1211464   1.843   3.110  10.795 -0.0789  0.4386  0.3662
  111OSM   H12A11465   1.936   3.087  10.745 -0.4798  2.1268 -1.2976
  111OSM   H12B11466   1.854   3.191  10.866 -0.1680 -3.7873  5.7897
  111OSM    C1111467   1.763   3.167  10.676  0.2051 -0.1088 -0.1929
  111OSM   H11A11468   1.658   3.196  10.696 -0.4863 -1.2788 -1.9008
  111OSM   H11B11469   1.761   3.086  10.600 -0.4771  1.0646 -1.4645
  111OSM      P11470   1.853   3.416  10.696 -0.0431 -0.1802 -0.2943
  111OSM    O1311471   1.713   3.456  10.728 -0.6537 -0.1295  0.7215
  111OSM    O1411472   1.942   3.396  10.811 -0.3368 -0.0374  0.0860
  111OSM    O1111473   1.920   3.501  10.590  0.2901 -0.2022 -0.1451
  111OSM    O1211474   1.834   3.281  10.616  0.2941 -0.1096 -0.0327
  111OSM    C1S11475   1.924   3.487  10.450  0.0846  0.1089  0.4234
  111OSM    H1S11476   1.818   3.486  10.416  0.1026 -0.9690  0.3495
  111OSM    H1T11477   1.970   3.388  10.427  1.0511  0.9257 -1.3991
  111OSM     NF11478   2.002   3.590  10.241  0.4734 -0.0372  0.2041
  111OSM    HNF11479   2.085   3.563  10.193  0.7478  0.9085  0.1399
  111OSM    C2S11480   2.017   3.596  10.385 -0.2320  0.2054  0.5656
  111OSM    H2S11481   1.980   3.696  10.415  2.8011  1.6320 -0.1656
  111OSM    C3S11482   2.163   3.602  10.430 -0.0453 -0.3029 -0.2561
  111OSM    H3S11483   2.216   3.513  10.389 -0.5922 -0.0531 -1.5479
  111OSM     O311484   2.174   3.596  10.571  0.0929  0.3249  0.5044
  111OSM    HO311485   2.086   3.574  10.601  0.2622 -0.1000  0.6949
  111OSM    C4S11486   2.218   3.735  10.388  0.1089 -0.3627 -0.2926
  111OSM    H4S11487   2.178   3.817  10.449 -0.5568  0.1982 -1.4401
  111OSM    C5S11488   2.300   3.757  10.286 -0.0618 -0.4211 -0.3079
  111OSM    H5S11489   2.338   3.666  10.237  3.9919  0.8043  0.1524
  111OSM    C6S11490   2.356   3.889  10.238 -0.4215 -0.1219  0.4368
  111OSM    H6S11491   2.465   3.896  10.260 -0.4122 -1.9189  1.0935
  111OSM    H6T11492   2.317   3.980  10.289  0.7987  0.2782  0.6924
  111OSM    C7S11493   2.336   3.890  10.083 -0.2965  0.4116 -0.7288
  111OSM    H7S11494   2.225   3.890  10.076 -0.4485 -1.1638  0.9698
  111OSM    H7T11495   2.397   3.816  10.027 -1.5569 -0.5285 -0.9043
  111OSM    C8S11496   2.372   4.030  10.025  0.3412 -0.4250  0.1578
  111OSM    H8S11497   2.480   4.051  10.042 -0.1853  2.8968  0.0750
  111OSM    H8T11498   2.313   4.106  10.081 -0.5786 -0.7252 -0.3956
  111OSM    C9S11499   2.331   4.054   9.870 -0.3539 -0.2823 -0.3556
  111OSM    H9S11500   2.313   4.160   9.845 -0.1797 -0.1780 -0.0446
  111OSM    H9T11501   2.238   3.992   9.866  0.3109 -1.3037 -0.3095
  111OSM   C10S11502   2.434   4.007   9.767 -0.0102  0.0394  0.1055
  111OSM   H10S11503   2.461   3.903   9.793  1.3953  0.4887  0.5026
  111OSM   H10T11504   2.524   4.071   9.779  0.4959 -0.3818 -1.1818
  111OSM   C11S11505   2.384   4.011   9.619  0.3132 -0.0670  0.6704
  111OSM   H11S11506   2.470   3.995   9.550 -0.2734  0.6662 -0.2662
  111OSM   H11T11507   2.349   4.113   9.592  2.5850  0.7703  0.6523
  111OSM   C12S11508   2.273   3.913   9.587  0.1085  0.9109  0.5610
  111OSM   H12S11509   2.183   3.934   9.649 -0.1595  0.7036  0.2410
  111OSM   H12T11510   2.313   3.811   9.609  2.0270  1.6612  0.8123
  111OSM   C13S11511   2.238   3.912   9.436 -0.4227 -0.1492  0.9639
  111OSM   H13S11512   2.175   4.004   9.426  0.2232  0.2848  0.8476
  111OSM   H13T11513   2.168   3.828   9.418 -1.3856  0.8039  0.0897
  111OSM   C14S11514   2.353   3.900   9.335  0.4353 -0.3847 -0.2296
  111OSM   H14S11515   2.432   3.831   9.370 -0.6023 -1.3762  0.2508
  111OSM   H14T11516   2.392   4.004   9.345 -0.9300  0.0304  1.2012
  111OSM   C15S11517   2.298   3.863   9.199  0.1890  0.3189  0.3009
  111OSM   H15S11518   2.209   3.925   9.175  0.9122  1.3936  0.3051
  111OSM   H15T11519   2.274   3.755   9.202 -1.1392  0.5176 -1.5674
  111OSM   C16S11520   2.388   3.890   9.078 -0.1414  0.4963 -0.6391
  111OSM   H16S11521   2.478   3.829   9.100 -0.2878  0.7356  0.7169
  111OSM   H16T11522   2.428   3.993   9.067 -1.1244  0.9789  0.0430
  111OSM   C17S11523   2.336   3.828   8.948  0.1340 -0.0849 -0.6261
  111OSM   H17S11524   2.243   3.888   8.939 -0.0665 -0.1968  0.4922
  111OSM   H17T11525   2.309   3.724   8.977 -0.3591  0.0716 -0.5091
  111OSM   C18S11526   2.418   3.839   8.828 -0.5304 -0.1459 -0.2084
  111OSM   H18S11527   2.407   3.941   8.785  3.2524  0.0131 -1.1483
  111OSM   H18T11528   2.386   3.764   8.753 -0.1186 -0.6265  0.0890
  111OSM   H18U11529   2.522   3.817   8.860 -0.7498  0.1458  0.7480
  111OSM    C1F11530   1.883   3.586  10.177 -0.2743 -1.0285  0.9486
  111OSM     OF11531   1.780   3.618  10.225  0.5458 -0.2074 -0.6131
  111OSM    C2F11532   1.894   3.524  10.040 -0.1772 -0.1507  0.0656
  111OSM    H2F11533   1.971   3.444  10.051  1.0098  0.5913 -2.2271
  111OSM    H2G11534   1.922   3.596   9.960 -1.6875  0.6976  0.2702
  111OSM    C3F11535   1.762   3.453  10.005 -0.1431  0.6663 -0.0687
  111OSM    H3F11536   1.668   3.511  10.002 -1.4099 -1.3491 -0.8933
  111OSM    H3G11537   1.747   3.372  10.080  1.9603  0.4134  0.1521
  111OSM    C4F11538   1.778   3.365   9.880 -0.0258 -0.6451 -0.0232
  111OSM    H4F11539   1.693   3.293   9.881 -0.1368 -0.5495  1.8019
  111OSM    H4G11540   1.879   3.319   9.878  0.1417 -0.2990  0.3231
  111OSM    C5F11541   1.769   3.447   9.748  0.0119 -0.2306 -0.6213
  111OSM    H5F11542   1.857   3.514   9.736  0.3793 -0.7109 -0.6480
  111OSM    H5G11543   1.674   3.504   9.760  1.0204  1.3913  0.0101
  111OSM    C6F11544   1.751   3.358   9.630  0.2057 -0.6579 -0.2877
  111OSM    H6F11545   1.670   3.284   9.651 -0.0759  0.2841  2.2166
  111OSM    H6G11546   1.838   3.293   9.605  1.9378  1.0781  0.9768
  111OSM    C7F11547   1.716   3.428   9.496 -0.2216 -0.4984 -0.4819
  111OSM    H7F11548   1.775   3.522   9.481  0.7283 -0.9608  0.2306
  111OSM    H7G11549   1.611   3.457   9.519 -0.4825 -0.9998 -1.0450
  111OSM    C8F11550   1.737   3.340   9.374  0.1111 -0.3437 -0.2136
  111OSM    H8F11551   1.696   3.239   9.396  0.0690 -0.5724 -1.3145
  111OSM    H8G11552   1.843   3.314   9.357  0.4137  1.1625 -0.7172
  111OSM    C9F11553   1.678   3.393   9.247  0.6417 -0.0456 -0.3939
  111OSM    H9F11554   1.569   3.411   9.241  0.6025 -0.4748 -1.0555
  111OSM   C10F11555   1.761   3.434   9.149  0.9231  0.8342  0.2155
  111OSM   H10F11556   1.717   3.483   9.061 -0.1899 -2.3981 -1.1707
  111OSM   C11F11557   1.912   3.431   9.151 -0.3145  0.0585  0.0516
  111OSM   H11F11558   1.953   3.430   9.254 -4.2624 -3.1225  1.8644
  111OSM   H11G11559   1.944   3.530   9.113  1.7981 -1.0966 -1.4336
  111OSM   C12F11560   1.984   3.330   9.073  0.3509  0.1293 -0.0017
  111OSM   H12F11561   2.092   3.356   9.074  0.5877 -0.6914 -1.3901
  111OSM   H12G11562   1.957   3.339   8.965  0.3274  1.2547  0.0830
  111OSM   C13F11563   1.972   3.186   9.126  0.0481 -0.2219  0.0168
  111OSM   H13F11564   1.865   3.157   9.120  0.7559 -2.9431 -1.0391
  111OSM   H13G11565   2.001   3.178   9.233 -1.2202 -2.3968  0.2520
  111OSM   C14F11566   2.056   3.094   9.034 -0.1770  0.2329 -0.2816
  111OSM   H14F11567   2.159   3.134   9.032  0.0158 -0.2567 -0.2596
  111OSM   H14G11568   2.007   3.103   8.935  0.3985 -0.4540 -0.6367
  111OSM   C15F11569   2.070   2.944   9.078 -0.0211  0.0173 -0.3184
  111OSM   H15F11570   1.977   2.888   9.054 -0.3239 -0.2221  1.2962
  111OSM   H15G11571   2.087   2.936   9.188  3.5758  0.6030 -0.7097
  111OSM   C16F11572   2.191   2.879   9.014 -0.5752  0.3193  0.3848
  111OSM   H16F11573   2.224   2.799   9.083  2.0841  1.4011  0.4886
  111OSM   H16G11574   2.271   2.953   9.034 -0.8540  1.0981 -1.2003
  111OSM   C17F11575   2.172   2.827   8.873 -0.0567 -0.3191 -0.5278
  111OSM   H17F11576   2.127   2.899   8.801  0.8033 -1.0028 -1.7676
  111OSM   H17G11577   2.090   2.752   8.879 -1.8972  1.6464  0.5907
  111OSM   C18F11578   2.284   2.754   8.804  0.1536 -0.3598 -0.4627
  111OSM   H18F11579   2.246   2.701   8.714 -0.7300  1.1398 -1.0142
  111OSM   H18G11580   2.341   2.689   8.874 -0.2679  1.7326  1.9809
  111OSM   H18H11581   2.352   2.834   8.769  0.0631  0.5754  1.3674
  112OSM      N11582   2.594   1.040  11.141  0.1853 -0.0271  0.5400
  112OSM    C1511583   2.664   1.165  11.188 -0.0669  0.5350 -0.3205
  112OSM   H15A11584   2.702   1.224  11.106  3.1824 -1.5299 -0.4548
  112OSM   H15B11585   2.752   1.138  11.244  0.1738  1.6796 -0.1169
  112OSM   H15C11586   2.583   1.215  11.239 -0.2891 -0.4526  0.3346
  112OSM    C1411587   2.553   0.963  11.262 -0.6210 -0.1269  0.2185
  112OSM   H14A11588   2.502   0.872  11.235 -0.1801  0.0328 -1.2368
  112OSM   H14B11589   2.479   1.018  11.319  0.9293  2.8232 -0.4003
  112OSM   H14C11590   2.639   0.945  11.325  0.6206 -0.1049 -1.4007
  112OSM    C1311591   2.477   1.091  11.066 -0.0325  0.2656 -0.4960
  112OSM   H13A11592   2.517   1.166  11.000  1.0389 -1.4698 -1.9205
  112OSM   H13B11593   2.410   1.142  11.134  0.6617  1.5283 -0.7321
  112OSM   H13C11594   2.432   1.018  11.001  0.3261 -0.5080  0.0915
  112OSM    C1211595   2.694   0.958  11.059  0.0166 -0.0167 -0.1192
  112OSM   H12A11596   2.768   0.921  11.128 -0.2791 -1.3208 -0.4728
  112OSM   H12B11597   2.751   1.032  11.003  3.8522 -0.7140  2.4738
  112OSM    C1111598   2.644   0.844  10.963  0.3551  0.0252 -0.6244
  112OSM   H11A11599   2.736   0.810  10.910  0.0365  0.0071 -1.1630
  112OSM   H11B11600   2.576   0.892  10.891  1.1468  1.2173 -0.6098
  112OSM      P11601   2.598   0.590  10.991  0.6097  0.0695  0.1502
  112OSM    O1311602   2.741   0.563  11.002  0.3682 -0.3771  0.0915
  112OSM    O1411603   2.505   0.509  11.077 -0.3857 -0.5266 -0.0944
  112OSM    O1111604   2.569   0.592  10.831  0.4093  0.3455  0.2723
  112OSM    O1211605   2.565   0.741  11.031 -0.5679  0.3279  0.0554
  112OSM    C1S11606   2.445   0.571  10.776 -0.1838  0.0719  0.0742
  112OSM    H1S11607   2.372   0.638  10.827  0.7769  0.0387  1.5584
  112OSM    H1T11608   2.404   0.469  10.795 -1.0010  0.6316  1.5332
  112OSM     NF11609   2.319   0.605  10.566  0.3871  0.0770  0.2816
  112OSM    HNF11610   2.303   0.526  10.507 -1.1121  0.4498  0.1352
  112OSM    C2S11611   2.451   0.619  10.626  0.4315  0.4388 -0.1352
  112OSM    H2S11612   2.479   0.727  10.631  0.4240  0.5392 -1.9295
  112OSM    C3S11613   2.565   0.548  10.544 -0.0504 -0.2373  0.0446
  112OSM    H3S11614   2.541   0.440  10.554 -0.3290 -0.0036  2.4056
  112OSM     O311615   2.690   0.571  10.602  0.3437  0.2250 -0.5965
  112OSM    HO311616   2.677   0.586  10.696  0.9708 -2.6191  0.0456
  112OSM    C4S11617   2.583   0.591  10.399  1.1620 -0.3654 -0.3074
  112OSM    H4S11618   2.608   0.697  10.390  0.6610 -0.2341 -0.1995
  112OSM    C5S11619   2.568   0.509  10.295 -0.5386  0.1368  0.3045
  112OSM    H5S11620   2.553   0.404  10.322 -2.0216 -0.1790 -1.4852
  112OSM    C6S11621   2.588   0.551  10.146 -0.4929 -0.3922 -0.7799
  112OSM    H6S11622   2.542   0.474  10.081  0.8248 -0.6572 -1.4283
  112OSM    H6T11623   2.696   0.540  10.126 -0.2075  2.6543 -1.3306
  112OSM    C7S11624   2.535   0.689  10.104 -0.1717  0.1600  0.5301
  112OSM    H7S11625   2.568   0.777  10.162  1.3969 -0.1859  0.2007
  112OSM    H7T11626   2.424   0.691  10.118  0.2080  0.0201  4.7966
  112OSM    C8S11627   2.570   0.707   9.951 -0.8759  0.2542 -0.5280
  112OSM    H8S11628   2.537   0.808   9.917  1.2362  1.2401  0.1299
  112OSM    H8T11629   2.522   0.634   9.883  0.0341 -0.5032 -0.3687
  112OSM    C9S11630   2.719   0.709   9.925 -0.6538  0.1609  0.8197
  112OSM    H9S11631   2.762   0.611   9.957  0.0441  1.0648  2.7705
  112OSM    H9T11632   2.764   0.790   9.985  0.6802  1.0768 -1.3047
  112OSM   C10S11633   2.760   0.728   9.771 -0.2993  0.4263 -0.7952
  112OSM   H10S11634   2.704   0.811   9.725 -0.9891  0.8439  0.7334
  112OSM   H10T11635   2.721   0.643   9.711  1.7011 -0.1685 -1.3307
  112OSM   C11S11636   2.908   0.717   9.749 -0.0670  0.4350  1.2181
  112OSM   H11S11637   2.946   0.637   9.816  0.4670  0.4845  0.9776
  112OSM   H11T11638   2.958   0.814   9.768 -1.9063  1.9498 -1.1212
  112OSM   C12S11639   2.943   0.679   9.603 -0.0649  0.1321 -0.5605
  112OSM   H12S11640   2.886   0.737   9.528  0.4662  1.7755  0.2447
  112OSM   H12T11641   2.908   0.574   9.595  0.4180 -0.1547  0.6759
  112OSM   C13S11642   3.090   0.687   9.584 -0.6692  1.2689  0.4908
  112OSM   H13S11643   3.125   0.584   9.604 -0.6319  0.7439 -1.9342
  112OSM   H13T11644   3.145   0.746   9.660  1.0810  1.5186 -0.9010
  112OSM   C14S11645   3.140   0.730   9.444 -0.6991 -0.3584 -0.1825
  112OSM   H14S11646   3.150   0.841   9.444 -3.2546 -0.0395  1.1927
  112OSM   H14T11647   3.053   0.713   9.377 -1.0306  0.9523 -0.1104
  112OSM   C15S11648   3.268   0.658   9.383 -0.0049 -0.6079 -0.0053
  112OSM   H15S11649   3.248   0.549   9.390 -2.1809 -0.3748 -1.4098
  112OSM   H15T11650   3.356   0.680   9.446  1.0582 -0.3786 -1.5177
  112OSM   C16S11651   3.308   0.693   9.237 -0.4527  0.0999 -0.2832
  112OSM   H16S11652   3.399   0.629   9.227 -0.1132 -0.2108  3.3632
  112OSM   H16T11653   3.335   0.800   9.227  0.3301 -0.0568  0.0520
  112OSM   C17S11654   3.204   0.660   9.126 -0.2556 -0.9489  0.1928
  112OSM   H17S11655   3.112   0.723   9.132  0.5249  0.1848  0.6217
  112OSM   H17T11656   3.184   0.552   9.138  1.0508 -1.0611  1.6078
  112OSM   C18S11657   3.252   0.666   8.981 -0.1865 -0.5106 -0.1985
  112OSM   H18S11658   3.332   0.591   8.968 -2.1360 -2.4673 -1.7980
  112OSM   H18T11659   3.279   0.774   8.982  0.6146 -0.7028  1.3362
  112OSM   H18U11660   3.164   0.653   8.915 -1.7279  0.2162  1.6096
  112OSM    C1F11661   2.213   0.682  10.577  0.0079  0.2451  0.5614
  112OSM     OF11662   2.215   0.790  10.631 -0.7578  0.0723 -0.2435
  112OSM    C2F11663   2.096   0.636  10.503  0.3025  0.3232 -0.4334
  112OSM    H2F11664   2.002   0.693  10.519 -0.8542 -0.1024 -4.6480
  112OSM    H2G11665   2.092   0.530  10.537  0.7324  0.3028 -0.4388
  112OSM    C3F11666   2.104   0.642  10.354 -0.3707 -0.6194  0.2263
  112OSM    H3F11667   2.018   0.579  10.322 -2.3329  1.9491  0.0894
  112OSM    H3G11668   2.197   0.594  10.318  0.8194  1.0850  0.9175
  112OSM    C4F11669   2.088   0.784  10.306  0.3700 -0.0594  0.1948
  112OSM    H4F11670   2.168   0.854  10.338  0.2255  0.2910 -0.2090
  112OSM    H4G11671   1.987   0.818  10.337  0.3606  2.2400 -2.0307
  112OSM    C5F11672   2.101   0.801  10.155  0.5100  0.4571  0.1125
  112OSM    H5F11673   2.195   0.757  10.115 -1.6542 -1.8789 -2.8008
  112OSM    H5G11674   2.093   0.905  10.120 -1.3160  1.0618  2.0679
  112OSM    C6F11675   2.005   0.714  10.074  0.3542  0.3509 -0.3390
  112OSM    H6F11676   1.905   0.726  10.122 -0.5269 -0.3560 -1.9259
  112OSM    H6G11677   2.026   0.606  10.088  1.5714  0.6752  0.5223
  112OSM    C7F11678   2.005   0.749   9.922 -0.3738 -0.0233 -0.4896
  112OSM    H7F11679   1.989   0.858   9.909  0.7402  0.0170 -1.6979
  112OSM    H7G11680   1.912   0.698   9.889 -1.3657  1.0635  0.5155
  112OSM    C8F11681   2.130   0.700   9.852 -0.2457 -0.1607  0.0252
  112OSM    H8F11682   2.157   0.599   9.891  2.5360  0.3649 -0.3205
  112OSM    H8G11683   2.216   0.764   9.880 -0.4746  0.8112 -1.3810
  112OSM    C9F11684   2.098   0.706   9.705 -0.2893  0.7071 -0.2925
  112OSM    H9F11685   1.996   0.670   9.684  0.1937 -1.5024  0.8160
  112OSM   C10F11686   2.175   0.753   9.608  0.0175 -0.6053 -0.1521
  112OSM   H10F11687   2.148   0.743   9.502 -0.3802  2.1617 -0.3723
  112OSM   C11F11688   2.311   0.808   9.637 -0.8812 -0.7728  0.3483
  112OSM   H11F11689   2.364   0.754   9.718 -0.1049 -1.5261 -0.6273
  112OSM   H11G11690   2.302   0.916   9.664 -2.6016  0.2690 -3.6452
  112OSM   C12F11691   2.399   0.783   9.516 -0.3399 -0.2477 -0.5788
  112OSM   H12F11692   2.402   0.675   9.488  0.7647 -0.4832  0.3723
  112OSM   H12G11693   2.505   0.806   9.541  0.2218  0.6185 -3.4104
  112OSM   C13F11694   2.367   0.882   9.400  0.4943  0.4032  0.4556
  112OSM   H13F11695   2.409   0.982   9.424  0.2094  0.3785  1.0736
  112OSM   H13G11696   2.257   0.898   9.391  0.5119 -0.2392 -1.3592
  112OSM   C14F11697   2.414   0.829   9.262  0.0970 -1.1042 -0.2130
  112OSM   H14F11698   2.382   0.899   9.182 -2.4318 -1.4479  0.4275
  112OSM   H14G11699   2.376   0.727   9.244 -0.3023 -0.5442 -2.8986
  112OSM   C15F11700   2.561   0.838   9.244  0.0315 -0.4658  0.5213
  112OSM   H15F11701   2.602   0.777   9.327  0.2579  0.4860  1.1252
  112OSM   H15G11702   2.593   0.945   9.248  0.4716 -0.6196  1.4569
  112OSM   C16F11703   2.606   0.782   9.111 -0.3896 -0.2916 -0.1585
  112OSM   H16F11704   2.603   0.671   9.113 -0.7030 -0.2839  2.0805
  112OSM   H16G11705   2.714   0.806   9.113 -0.6178  0.7414  0.9287
  112OSM   C17F11706   2.536   0.833   8.983  0.3217 -0.3607 -0.3831
  112OSM   H17F11707   2.543   0.944   8.971  1.3205 -0.3009  0.5850
  112OSM   H17G11708   2.431   0.806   9.007  0.9178 -0.9671  1.7831
  112OSM   C18F11709   2.586   0.766   8.859 -0.3938 -0.1168  0.1742
  112OSM   H18F11710   2.577   0.656   8.866 -1.1296  0.0202  1.5642
  112OSM   H18G11711   2.694   0.788   8.841 -0.6017 -0.3869 -1.5704
  112OSM   H18H11712   2.522   0.794   8.772  0.5742 -1.3603 -0.9772
  113OSM      N11713   6.035   4.364  11.196 -0.4979  0.4853 -0.2131
  113OSM    C1511714   5.926   4.350  11.304  0.4096  0.2121  0.0258
  113OSM   H15A11715   5.864   4.438  11.299 -0.0041 -0.1496 -1.7450
  113OSM   H15B11716   5.974   4.354  11.401  2.3493 -0.1295 -0.8664
  113OSM   H15C11717   5.877   4.255  11.292  0.0547  0.3187  0.6029
  113OSM    C1411718   6.127   4.479  11.225  0.0935  0.4060  0.5354
  113OSM   H14A11719   6.158   4.531  11.136  0.0055 -0.1329  0.1811
  113OSM   H14B11720   6.210   4.449  11.289  0.5753 -1.9050 -1.0564
  113OSM   H14C11721   6.061   4.548  11.274  0.2897  0.3124  0.9411
  113OSM    C1311722   6.116   4.236  11.194  0.2470 -0.4012  0.0138
  113OSM   H13A11723   6.177   4.236  11.105 -1.8112  2.3023 -1.5331
  113OSM   H13B11724   6.054   4.149  11.178  0.8677 -0.8393 -0.0445
  113OSM   H13C11725   6.164   4.230  11.291  0.7528 -0.6234 -0.2495
  113OSM    C1211726   5.964   4.372  11.062  0.6479  0.4083  0.1523
  113OSM   H12A11727   5.887   4.446  11.078 -1.1982 -1.3783  0.0063
  113OSM   H12B11728   5.916   4.279  11.035 -0.3945  1.4218 -1.6679
  113OSM    C1111729   6.039   4.403  10.923 -0.2006 -0.1392 -0.8267
  113OSM   H11A11730   5.976   4.395  10.831  2.3872  3.1359 -3.1256
  113OSM   H11B11731   6.122   4.332  10.905  0.4419  0.5594 -0.6586
  113OSM      P11732   6.035   4.659  10.938  0.1534 -0.3148  0.1950
  113OSM    O1311733   5.897   4.657  11.006 -0.2746  0.0280  0.5466
  113OSM    O1411734   6.122   4.770  10.979  0.1890  0.3019 -0.0802
  113OSM    O1111735   6.004   4.662  10.786  0.4508  0.0402 -0.5058
  113OSM    O1211736   6.111   4.526  10.941  0.3402  0.7690  0.1841
  113OSM    C1S11737   6.119   4.661  10.703 -0.5847  0.8028  0.2983
  113OSM    H1S11738   6.167   4.561  10.691 -0.2378  1.1252 -1.1816
  113OSM    H1T11739   6.195   4.735  10.734  0.2120 -0.1418  0.6714
  113OSM     NF11740   6.201   4.720  10.470 -0.0775 -0.2328  0.2823
  113OSM    HNF11741   6.266   4.794  10.488  1.1270 -1.2364  0.1972
  113OSM    C2S11742   6.086   4.719  10.564  0.8869  0.9045  0.1428
  113OSM    H2S11743   6.010   4.647  10.527 -1.0551  1.8679  2.0081
  113OSM    C3S11744   6.032   4.859  10.583 -0.3500 -0.2576  0.3837
  113OSM    H3S11745   6.101   4.918  10.647 -0.2081 -0.0838  0.0715
  113OSM     O311746   5.912   4.859  10.661 -0.8629 -0.5479  0.1440
  113OSM    HO311747   5.901   4.766  10.680  1.4809 -1.8295 -3.6587
  113OSM    C4S11748   6.004   4.930  10.450 -0.8012  0.0926  0.0004
  113OSM    H4S11749   6.094   4.972  10.402 -1.8607  0.0091 -2.1905
  113OSM    C5S11750   5.892   4.955  10.382  0.7768 -0.9345  0.6237
  113OSM    H5S11751   5.794   4.909  10.404 -0.0323  0.9293  1.1402
  113OSM    C6S11752   5.908   5.023  10.253  0.1944 -0.5822  0.4081
  113OSM    H6S11753   5.999   5.086  10.251 -1.7458  2.6030  2.9776
  113OSM    H6T11754   5.820   5.087  10.233  0.6159 -0.1644 -0.1226
  113OSM    C7S11755   5.925   4.927  10.135 -0.4258 -0.1557  0.4491
  113OSM    H7S11756   5.830   4.870  10.128 -0.2552 -0.4277  0.2836
  113OSM    H7T11757   6.015   4.864  10.153 -0.3726  0.4231  2.4133
  113OSM    C8S11758   5.953   4.998  10.000 -0.1434 -0.4094 -0.0626
  113OSM    H8S11759   6.049   5.049  10.022 -0.7480  0.8929 -0.3363
  113OSM    H8T11760   5.889   5.087   9.979 -0.0081  0.2562  2.1030
  113OSM    C9S11761   5.985   4.909   9.879  0.3664  0.5899 -0.1404
  113OSM    H9S11762   6.012   4.809   9.918 -1.4473 -0.9770 -2.5343
  113OSM    H9T11763   6.079   4.941   9.831  0.3241  0.8612 -0.0456
  113OSM   C10S11764   5.855   4.893   9.783  0.3328 -0.0645  0.0208
  113OSM   H10S11765   5.829   4.993   9.743 -1.8318  0.4202  2.3908
  113OSM   H10T11766   5.772   4.865   9.851  0.5605 -1.0454 -0.0939
  113OSM   C11S11767   5.879   4.796   9.663 -0.3844 -0.2809  0.3869
  113OSM   H11S11768   5.782   4.758   9.625  0.1996 -0.5089 -0.9362
  113OSM   H11T11769   5.937   4.710   9.702 -0.3618 -0.3061  0.2994
  113OSM   C12S11770   5.956   4.866   9.550  0.2141 -0.1533 -1.3021
  113OSM   H12S11771   6.047   4.909   9.597 -0.8284 -1.3344  2.1037
  113OSM   H12T11772   5.898   4.950   9.506 -1.0124  0.3707  1.1430
  113OSM   C13S11773   5.985   4.766   9.435  0.3674 -0.0652 -0.7218
  113OSM   H13S11774   6.003   4.663   9.473  0.3746  0.7673  1.7091
  113OSM   H13T11775   6.081   4.801   9.389  1.3371 -1.0346  0.5003
  113OSM   C14S11776   5.867   4.746   9.343 -0.8533  0.0703 -0.0158
  113OSM   H14S11777   5.817   4.843   9.322 -1.6227 -0.4222 -0.4680
  113OSM   H14T11778   5.796   4.687   9.404  0.9940  0.1961  2.4397
  113OSM   C15S11779   5.897   4.675   9.213  0.0457  0.2743 -0.0138
  113OSM   H15S11780   5.968   4.737   9.154 -1.6512  0.8254 -1.5621
  113OSM   H15T11781   5.806   4.663   9.150  0.7544 -0.7597 -0.8719
  113OSM   C16S11782   5.942   4.529   9.243  0.4868 -0.4887 -0.3932
  113OSM   H16S11783   5.865   4.485   9.309  1.9945 -1.2930  0.9093
  113OSM   H16T11784   6.044   4.532   9.286  1.2413  2.2448 -2.1394
  113OSM   C17S11785   5.950   4.445   9.112 -0.4552  0.1042 -0.3225
  113OSM   H17S11786   5.857   4.458   9.053 -0.8238 -3.4703 -0.7764
  113OSM   H17T11787   5.960   4.339   9.145  1.2154 -0.2420 -1.7394
  113OSM   C18S11788   6.065   4.475   9.028 -0.6335  0.0551 -0.4966
  113OSM   H18S11789   6.083   4.417   8.935 -0.7041 -1.1869  0.2490
  113OSM   H18T11790   6.155   4.456   9.090  0.3068 -1.1152 -2.1434
  113OSM   H18U11791   6.072   4.584   9.009  0.3160  0.0851 -0.0376
  113OSM    C1F11792   6.236   4.606  10.407 -0.1061 -0.4810 -0.1635
  113OSM     OF11793   6.196   4.494  10.453  0.6556  0.0033  0.6370
  113OSM    C2F11794   6.342   4.622  10.304 -0.4541 -0.0312  0.1924
  113OSM    H2F11795   6.395   4.526  10.284  0.4824  0.3794  0.6652
  113OSM    H2G11796   6.417   4.701  10.326  0.5192 -1.2588  1.4804
  113OSM    C3F11797   6.270   4.655  10.178  0.0137  0.3935 -0.3530
  113OSM    H3F11798   6.216   4.752  10.177 -0.4158  0.1606 -1.0150
  113OSM    H3G11799   6.189   4.585  10.146 -0.6360  0.2909  1.3773
  113OSM    C4F11800   6.363   4.666  10.054  0.5918 -0.1275 -0.6221
  113OSM    H4F11801   6.421   4.572  10.038  2.8634  1.1535 -0.2164
  113OSM    H4G11802   6.439   4.745  10.070 -0.3083  0.8828 -1.2011
  113OSM    C5F11803   6.301   4.693   9.920 -0.6978 -0.2823  0.4780
  113OSM    H5F11804   6.267   4.798   9.931  1.0266  0.1479  2.1363
  113OSM    H5G11805   6.204   4.641   9.904  0.3146 -1.7718 -1.2434
  113OSM    C6F11806   6.384   4.690   9.783  0.2525  0.9883 -0.0060
  113OSM    H6F11807   6.427   4.589   9.770 -3.5537 -0.5433 -2.4473
  113OSM    H6G11808   6.472   4.758   9.782  1.1663 -0.1489  0.6016
  113OSM    C7F11809   6.302   4.727   9.659 -0.4497  0.3722 -0.1380
  113OSM    H7F11810   6.248   4.819   9.690 -0.8991 -0.8569  3.1162
  113OSM    H7G11811   6.230   4.643   9.645 -0.8160  0.6201  0.2130
  113OSM    C8F11812   6.386   4.737   9.532 -0.5329  0.1853  0.4510
  113OSM    H8F11813   6.461   4.820   9.536  2.4408 -2.3795  3.1052
  113OSM    H8G11814   6.315   4.766   9.452  0.4003  1.1252 -0.0710
  113OSM    C9F11815   6.451   4.607   9.489  0.1014  0.1665  1.3945
  113OSM    H9F11816   6.425   4.523   9.555  2.6796 -1.8928 -0.0544
  113OSM   C10F11817   6.528   4.587   9.382 -0.0943 -0.8511  0.6657
  113OSM   H10F11818   6.561   4.486   9.356 -0.8278 -0.5333 -1.7544
  113OSM   C11F11819   6.564   4.685   9.271  0.4640 -1.3759 -0.0795
  113OSM   H11F11820   6.519   4.786   9.283  2.2951 -0.1774 -2.4742
  113OSM   H11G11821   6.521   4.650   9.175 -2.2322 -0.7612  0.8057
  113OSM   C12F11822   6.712   4.708   9.243 -0.7716 -0.2319  0.0031
  113OSM   H12F11823   6.754   4.613   9.203 -2.4929 -1.1707  0.3631
  113OSM   H12G11824   6.758   4.725   9.342  1.2747  0.8871 -1.0540
  113OSM   C13F11825   6.741   4.834   9.165  0.4312 -0.2988 -0.1952
  113OSM   H13F11826   6.674   4.849   9.078 -1.1412  1.1423  1.2093
  113OSM   H13G11827   6.843   4.828   9.122 -0.0613  1.5045 -1.7551
  113OSM   C14F11828   6.731   4.961   9.250  0.3698  0.6769 -0.7105
  113OSM   H14F11829   6.820   4.960   9.317  0.4210 -0.6098 -0.7795
  113OSM   H14G11830   6.639   4.978   9.310  1.7800 -0.3583  1.9531
  113OSM   C15F11831   6.745   5.091   9.162 -0.0695  0.0332 -0.0983
  113OSM   H15F11832   6.657   5.113   9.097 -0.6139 -1.0662  0.2341
  113OSM   H15G11833   6.837   5.079   9.101 -0.4510  1.4784 -1.0175
  113OSM   C16F11834   6.765   5.227   9.228 -0.6550 -0.2278 -0.5122
  113OSM   H16F11835   6.807   5.298   9.153 -3.5746  0.8696 -1.2650
  113OSM   H16G11836   6.834   5.214   9.314  0.0948 -1.8591 -1.3281
  113OSM   C17F11837   6.641   5.282   9.284 -0.5551 -0.3870  0.8810
  113OSM   H17F11838   6.592   5.205   9.347  2.4388 -3.6856 -0.4947
  113OSM   H17G11839   6.566   5.299   9.204  0.5447 -1.1123 -0.3480
  113OSM   C18F11840   6.666   5.409   9.361 -0.4001  0.4763  0.2689
  113OSM   H18F11841   6.576   5.447   9.412  0.2450  1.6739  0.5504
  113OSM   H18G11842   6.687   5.486   9.284  0.1969 -0.9319 -1.0315
  113OSM   H18H11843   6.753   5.398   9.430  1.4625 -2.4848 -2.2971
  114OSM      N11844   1.442   1.150  11.269 -0.0635  0.0432 -0.2214
  114OSM    C1511845   1.486   1.018  11.327 -0.7554  0.4931 -0.1979
  114OSM   H15A11846   1.590   1.000  11.308 -1.0814 -2.1799  0.0525
  114OSM   H15B11847   1.431   0.938  11.279 -0.7124 -1.3857  2.6320
  114OSM   H15C11848   1.456   0.999  11.430 -0.3885 -1.6313 -0.4269
  114OSM    C1411849   1.288   1.148  11.272 -0.0132  0.0073  0.0383
  114OSM   H14A11850   1.257   1.069  11.206  1.9720 -0.4246 -0.4378
  114OSM   H14B11851   1.242   1.241  11.240 -2.5866 -0.4043  2.1008
  114OSM   H14C11852   1.248   1.139  11.372 -0.9036  0.6075 -0.2513
  114OSM    C1311853   1.481   1.256  11.363 -0.4114 -1.0744  0.1463
  114OSM   H13A11854   1.466   1.230  11.466 -2.5466  0.5418  0.3152
  114OSM   H13B11855   1.421   1.345  11.351  0.2890 -0.5978  0.1128
  114OSM   H13C11856   1.588   1.273  11.364 -0.5721 -0.0260  0.3694
  114OSM    C1211857   1.503   1.171  11.126  0.0314  0.5339  0.2400
  114OSM   H12A11858   1.608   1.144  11.134  0.1683  1.0790  0.2905
  114OSM   H12B11859   1.494   1.273  11.093  1.9840  0.2862 -1.3014
  114OSM    C1111860   1.437   1.088  11.007  0.4497 -0.6233 -0.2779
  114OSM   H11A11861   1.503   1.111  10.920  2.0227  0.3597  1.1087
  114OSM   H11B11862   1.336   1.128  10.985  0.5480 -1.0153 -1.5161
  114OSM      P11863   1.524   0.838  10.977  0.1938  0.3077 -0.5572
  114OSM    O1311864   1.663   0.863  11.010  0.0962 -0.1273  0.5382
  114OSM    O1411865   1.478   0.709  11.021 -0.6490  0.1426 -0.8877
  114OSM    O1111866   1.493   0.861  10.822 -0.1250  0.1578 -0.4368
  114OSM    O1211867   1.424   0.948  11.041 -0.3576 -0.2055 -0.3444
  114OSM    C1S11868   1.363   0.862  10.775  0.5849  0.3191  0.2835
  114OSM    H1S11869   1.329   0.968  10.772  0.5700  0.3110 -1.9274
  114OSM    H1T11870   1.293   0.796  10.830 -0.2237  0.3768 -0.6330
  114OSM     NF11871   1.244   0.852  10.560  0.1846  0.2153  0.1341
  114OSM    HNF11872   1.185   0.774  10.539 -0.1064 -0.5705  3.3611
  114OSM    C2S11873   1.367   0.813  10.625 -0.0038 -0.2078  0.3443
  114OSM    H2S11874   1.452   0.865  10.575 -1.1673  0.1969 -1.3060
  114OSM    C3S11875   1.401   0.662  10.607  0.2833  0.7837 -0.1911
  114OSM    H3S11876   1.309   0.606  10.632 -0.2727  1.4518 -0.7106
  114OSM     O311877   1.502   0.601  10.692 -0.0552 -0.4183  0.3053
  114OSM    HO311878   1.544   0.668  10.746 -0.1793  0.1350 -0.2672
  114OSM    C4S11879   1.430   0.625  10.463 -0.4463  0.6356  0.3074
  114OSM    H4S11880   1.341   0.598  10.405 -0.9944 -1.7743  2.1310
  114OSM    C5S11881   1.549   0.618  10.400 -0.3168  0.3192  0.0621
  114OSM    H5S11882   1.637   0.642  10.460 -1.2243 -1.1787  2.1101
  114OSM    C6S11883   1.590   0.594  10.257  0.3972  0.3396 -0.8746
  114OSM    H6S11884   1.686   0.539  10.257  0.4506  0.4313 -0.5781
  114OSM    H6T11885   1.619   0.687  10.204  2.8640 -0.7732 -1.6480
  114OSM    C7S11886   1.484   0.524  10.179  0.2339  0.6905  0.7686
  114OSM    H7S11887   1.397   0.585  10.150  1.1820  2.1178  0.8275
  114OSM    H7T11888   1.459   0.431  10.234 -0.0783  1.1057  1.3383
  114OSM    C8S11889   1.544   0.477  10.038 -0.5798  0.2829 -0.7717
  114OSM    H8S11890   1.463   0.407  10.012 -0.9960 -0.4330  2.0519
  114OSM    H8T11891   1.633   0.411  10.048 -0.7027  0.0351 -1.2941
  114OSM    C9S11892   1.558   0.575   9.928  0.1027  0.4024  0.4858
  114OSM    H9S11893   1.606   0.670   9.961  0.3937  0.7999 -0.9775
  114OSM    H9T11894   1.458   0.606   9.893  1.1892  1.2871 -2.1108
  114OSM   C10S11895   1.642   0.524   9.809  0.2829 -0.7248  0.6281
  114OSM   H10S11896   1.600   0.423   9.791 -1.5156  0.1007 -0.0464
  114OSM   H10T11897   1.747   0.516   9.846  0.1542 -2.5802  0.7102
  114OSM   C11S11898   1.624   0.613   9.684  0.2172  0.5552 -0.5262
  114OSM   H11S11899   1.656   0.718   9.702  0.3824  0.7295 -1.7133
  114OSM   H11T11900   1.516   0.627   9.666  0.0295  0.8506  0.7592
  114OSM   C12S11901   1.693   0.570   9.556  0.5128 -1.1803 -0.1813
  114OSM   H12S11902   1.657   0.474   9.512  1.5786 -0.9988 -1.5113
  114OSM   H12T11903   1.797   0.532   9.568  0.1986 -1.3464  2.8835
  114OSM   C13S11904   1.693   0.679   9.447  0.9377 -0.0345  1.1836
  114OSM   H13S11905   1.745   0.775   9.471 -0.5430  0.9128  0.7017
  114OSM   H13T11906   1.587   0.701   9.422  0.5884 -1.2260  1.5478
  114OSM   C14S11907   1.751   0.615   9.320  0.2722 -0.1436 -0.3572
  114OSM   H14S11908   1.753   0.676   9.227 -1.8535  0.5187 -0.0176
  114OSM   H14T11909   1.686   0.533   9.285  0.2771 -0.8612  1.2598
  114OSM   C15S11910   1.895   0.566   9.340 -0.4933  0.1517 -0.1388
  114OSM   H15S11911   1.886   0.471   9.397 -1.5897 -1.9288 -3.4856
  114OSM   H15T11912   1.964   0.644   9.376  0.3701  0.0675 -1.5666
  114OSM   C16S11913   1.963   0.506   9.207  0.3876  0.0800 -0.0193
  114OSM   H16S11914   1.885   0.460   9.143  2.9854 -0.4947 -2.9937
  114OSM   H16T11915   2.037   0.428   9.234 -0.8595 -1.6573 -1.4021
  114OSM   C17S11916   2.029   0.615   9.131 -0.1905 -1.1659 -0.0126
  114OSM   H17S11917   2.124   0.656   9.170 -0.4593  0.5693 -1.0762
  114OSM   H17T11918   1.955   0.697   9.138  1.6261  0.5351  0.1891
  114OSM   C18S11919   2.058   0.578   8.983 -0.0677 -0.4628 -0.1587
  114OSM   H18S11920   2.135   0.647   8.944  0.3769 -0.6406  0.3957
  114OSM   H18T11921   1.960   0.584   8.930  0.2196 -1.7900 -0.8809
  114OSM   H18U11922   2.093   0.473   8.972 -1.1669 -0.9566  0.8523
  114OSM    C1F11923   1.203   0.983  10.545  0.6245  0.0452 -0.1059
  114OSM     OF11924   1.255   1.083  10.580 -0.8361 -0.0841 -0.8997
  114OSM    C2F11925   1.067   1.004  10.489 -0.0564 -0.2837  0.6202
  114OSM    H2F11926   1.005   1.059  10.563  0.9418  0.9036  0.6022
  114OSM    H2G11927   1.013   0.907  10.484 -0.1519 -0.3223  2.0791
  114OSM    C3F11928   1.073   1.081  10.350  0.6790 -0.9241 -0.6005
  114OSM    H3F11929   1.149   1.162  10.359 -0.1229 -0.2005 -0.2427
  114OSM    H3G11930   0.975   1.133  10.343 -0.9087 -3.5029  0.7569
  114OSM    C4F11931   1.086   0.990  10.229  0.0363 -0.3982  0.3562
  114OSM    H4F11932   1.043   1.046  10.143  0.6778  1.0301  0.9377
  114OSM    H4G11933   1.025   0.900  10.253 -0.4619 -0.4451 -0.9936
  114OSM    C5F11934   1.231   0.965  10.175  0.6528  0.8225  0.2552
  114OSM    H5F11935   1.279   0.916  10.262  1.0675  0.0016 -0.4222
  114OSM    H5G11936   1.277   1.062  10.149 -0.5720  1.3795  0.0795
  114OSM    C6F11937   1.253   0.861  10.059 -0.3826 -0.5748  0.2816
  114OSM    H6F11938   1.213   0.765  10.096  1.8105 -0.8383  2.2388
  114OSM    H6G11939   1.363   0.859  10.042 -0.6799  1.6742 -2.9546
  114OSM    C7F11940   1.184   0.895   9.925  0.1882 -0.3399 -0.3624
  114OSM    H7F11941   1.164   1.002   9.902 -0.7016 -0.1744  1.0153
  114OSM    H7G11942   1.092   0.834   9.931  1.7166 -2.7530 -0.0482
  114OSM    C8F11943   1.269   0.844   9.808  0.1056 -0.2210 -0.3613
  114OSM    H8F11944   1.211   0.843   9.713 -1.7039 -1.0862  0.6830
  114OSM    H8G11945   1.298   0.739   9.827  1.4226  0.4334  1.4861
  114OSM    C9F11946   1.398   0.919   9.794 -0.4348 -0.2776  1.1022
  114OSM    H9F11947   1.477   0.857   9.838 -0.7158  0.0633  2.1216
  114OSM   C10F11948   1.430   1.032   9.720 -0.4027 -0.3119 -0.3710
  114OSM   H10F11949   1.535   1.066   9.727 -0.1131 -1.5087  1.8967
  114OSM   C11F11950   1.326   1.116   9.646  0.2409  0.1628  0.2087
  114OSM   H11F11951   1.353   1.224   9.647  0.5005  0.1286 -1.0125
  114OSM   H11G11952   1.230   1.108   9.701  0.6599  1.5990  1.2164
  114OSM   C12F11953   1.311   1.066   9.501 -0.2276  0.0599  0.3584
  114OSM   H12F11954   1.253   1.147   9.451 -2.3407 -2.0307 -0.7863
  114OSM   H12G11955   1.253   0.974   9.475  0.2213  0.4371 -2.3093
  114OSM   C13F11956   1.440   1.076   9.423  1.1401 -0.9398  1.0273
  114OSM   H13F11957   1.486   0.975   9.430 -2.4704 -2.7173  1.5148
  114OSM   H13G11958   1.513   1.156   9.448  0.5029 -0.5226  1.5856
  114OSM   C14F11959   1.419   1.092   9.268 -0.2133  0.3276 -0.2930
  114OSM   H14F11960   1.362   1.185   9.248 -1.7743 -0.6969 -0.8072
  114OSM   H14G11961   1.371   0.999   9.229  0.1402  0.2756 -0.6126
  114OSM   C15F11962   1.563   1.106   9.208 -0.4233  0.1223  0.0401
  114OSM   H15F11963   1.590   0.999   9.195 -0.2191  0.2441 -0.5716
  114OSM   H15G11964   1.642   1.142   9.277  1.6507  0.1029 -2.2154
  114OSM   C16F11965   1.575   1.186   9.084  0.0513  0.0486  0.2268
  114OSM   H16F11966   1.570   1.296   9.096  1.1921  0.1888 -0.4131
  114OSM   H16G11967   1.492   1.147   9.022 -0.3879 -0.3232  1.0305
  114OSM   C17F11968   1.712   1.150   9.010 -0.3291 -0.1771 -0.7168
  114OSM   H17F11969   1.719   1.039   8.998  1.3563 -0.3294  1.2422
  114OSM   H17G11970   1.803   1.193   9.057 -0.7986  0.7844 -0.6674
  114OSM   C18F11971   1.718   1.209   8.872  0.3289 -0.1299  0.1796
  114OSM   H18F11972   1.717   1.320   8.861  0.1583 -0.2412 -1.1250
  114OSM   H18G11973   1.622   1.187   8.821  0.2021  1.3388 -0.2726
  114OSM   H18H11974   1.801   1.161   8.816  0.9852  1.6979 -0.5181
  115OSM      N11975   5.853   5.045  11.010 -0.0187  0.3035 -0.3928
  115OSM    C1511976   5.855   4.972  11.140  0.0126  0.7617 -0.3867
  115OSM   H15A11977   5.781   5.007  11.211 -1.4949 -1.0517 -1.0174
  115OSM   H15B11978   5.947   4.977  11.198 -0.5384 -2.4022  0.9379
  115OSM   H15C11979   5.843   4.867  11.123  0.9133  0.3708  1.1129
  115OSM    C1411980   5.839   5.189  11.037 -0.8771 -1.0352  0.4062
  115OSM   H14A11981   5.763   5.211  11.110 -0.2510 -0.2010  0.8275
  115OSM   H14B11982   5.811   5.239  10.946 -0.3955 -0.8066  0.3819
  115OSM   H14C11983   5.930   5.229  11.080 -1.4954  0.2648  0.5418
  115OSM    C1311984   5.973   5.030  10.920 -0.2628 -0.1416 -0.0529
  115OSM   H13A11985   6.054   5.096  10.950 -1.8825  0.8763  2.3938
  115OSM   H13B11986   5.949   5.064  10.820 -1.7982  1.3387  0.7739
  115OSM   H13C11987   6.017   4.932  10.921  0.5414  0.1975 -0.6654
  115OSM    C1211988   5.731   4.990  10.934 -0.6872 -1.3939  0.7223
  115OSM   H12A11989   5.758   4.889  10.907  1.0992 -0.2873 -2.0795
  115OSM   H12B11990   5.717   5.061  10.855  0.2747 -2.2074 -0.2122
  115OSM    C1111991   5.589   4.983  10.998 -0.0256  0.0238 -0.0642
  115OSM   H11A11992   5.595   4.907  11.078 -0.3235 -0.9531 -0.9498
  115OSM   H11B11993   5.527   4.939  10.918  2.1942 -1.1304 -1.2497
  115OSM      P11994   5.409   5.173  11.068 -0.2720 -0.2649 -0.1607
  115OSM    O1311995   5.332   5.093  11.165  0.1772  0.4372 -0.3912
  115OSM    O1411996   5.432   5.317  11.091  0.4972 -0.3386 -0.2820
  115OSM    O1111997   5.357   5.157  10.918 -0.4384 -0.1023  0.1213
  115OSM    O1211998   5.549   5.112  11.045 -0.8506  0.2637 -1.1166
  115OSM    C1S11999   5.229   5.214  10.888 -0.6218  0.0687 -0.3932
  115OSM    H1S12000   5.232   5.324  10.879  0.9647  0.2123  1.3178
  115OSM    H1T12001   5.148   5.196  10.962  0.1745 -0.7388  0.3090
  115OSM     NF12002   5.070   5.225  10.706  0.2358  0.1029  0.0054
  115OSM    HNF12003   4.983   5.177  10.713  1.8507 -3.1116 -0.2627
  115OSM    C2S12004   5.179   5.149  10.765  0.8030 -0.5721  0.1814
  115OSM    H2S12005   5.265   5.136  10.695  0.5431 -0.3214 -0.1872
  115OSM    C3S12006   5.132   5.006  10.803  0.2503 -0.0363 -0.1173
  115OSM    H3S12007   5.049   5.007  10.877 -0.6436 -0.8857 -1.0843
  115OSM     O312008   5.239   4.924  10.852 -0.0400  0.2687  0.5871
  115OSM    HO312009   5.297   4.983  10.901 -0.0166  0.8550 -0.1124
  115OSM    C4S12010   5.075   4.936  10.672 -0.0255 -0.0091 -0.6223
  115OSM    H4S12011   5.158   4.903  10.608  0.1512 -1.4553  0.3045
  115OSM    C5S12012   4.946   4.932  10.635 -0.3894 -0.0540  0.3313
  115OSM    H5S12013   4.862   4.983  10.686 -0.8060  0.3739 -0.7485
  115OSM    C6S12014   4.890   4.881  10.507 -0.2458 -0.4206 -0.1147
  115OSM    H6S12015   4.891   4.974  10.446 -1.0392  3.2693  4.8313
  115OSM    H6T12016   4.780   4.865  10.513 -0.3646  0.8570  3.3145
  115OSM    C7S12017   4.968   4.759  10.448  0.3498  0.3438 -0.0219
  115OSM    H7S12018   4.967   4.675  10.521 -1.4182  1.3397  1.1507
  115OSM    H7T12019   5.076   4.782  10.438  0.6034 -1.3621 -2.0302
  115OSM    C8S12020   4.912   4.713  10.305 -0.6307  0.0701  0.0177
  115OSM    H8S12021   4.952   4.612  10.282 -0.5194 -0.1782  1.2175
  115OSM    H8T12022   4.949   4.784  10.228 -1.6998  0.8263  0.1841
  115OSM    C9S12023   4.757   4.707  10.303 -0.2857 -0.2704  0.1436
  115OSM    H9S12024   4.714   4.809  10.315 -0.3834 -0.4108  1.0222
  115OSM    H9T12025   4.735   4.665  10.403  1.0296  2.6679  1.8143
  115OSM   C10S12026   4.707   4.612  10.200  0.5785  0.1380  0.0022
  115OSM   H10S12027   4.599   4.589  10.215  1.0436 -2.0713  0.3000
  115OSM   H10T12028   4.754   4.513  10.218  2.2160  1.0704  1.0958
  115OSM   C11S12029   4.726   4.666  10.057  0.2030  0.8976 -0.1456
  115OSM   H11S12030   4.833   4.658  10.030  0.4070  1.3618  0.5127
  115OSM   H11T12031   4.700   4.772  10.040 -1.2897  0.1308 -3.6891
  115OSM   C12S12032   4.635   4.594   9.961 -0.4304 -0.8626  0.3352
  115OSM   H12S12033   4.527   4.601   9.985 -0.5965 -3.0882  0.5018
  115OSM   H12T12034   4.662   4.486   9.960  2.1901 -0.2852  1.2740
  115OSM   C13S12035   4.653   4.653   9.821 -0.5643 -0.4537  0.5933
  115OSM   H13S12036   4.759   4.636   9.792 -1.1417 -2.4470 -0.4949
  115OSM   H13T12037   4.632   4.762   9.817 -2.0472 -0.7262  0.4303
  115OSM   C14S12038   4.570   4.578   9.714 -0.2187 -0.1244  0.7210
  115OSM   H14S12039   4.471   4.563   9.760  0.2946  1.3254  2.4163
  115OSM   H14T12040   4.618   4.479   9.698 -0.0031 -0.1649  1.5931
  115OSM   C15S12041   4.561   4.643   9.578 -0.4630  0.0564 -0.7088
  115OSM   H15S12042   4.630   4.730   9.568 -0.5237  0.1897 -0.0135
  115OSM   H15T12043   4.461   4.693   9.577 -0.6377 -0.2739 -2.2322
  115OSM   C16S12044   4.551   4.550   9.456 -0.0278 -0.1840 -0.4976
  115OSM   H16S12045   4.448   4.510   9.455 -0.9410  1.7137  2.6363
  115OSM   H16T12046   4.626   4.472   9.480 -0.4122  0.1034  1.9506
  115OSM   C17S12047   4.594   4.614   9.326  0.4106 -0.5357  0.3369
  115OSM   H17S12048   4.702   4.641   9.335  0.6582 -1.5906  0.6353
  115OSM   H17T12049   4.532   4.706   9.315  0.0167 -0.9948 -1.6949
  115OSM   C18S12050   4.588   4.528   9.204  0.3116 -0.0389 -0.7463
  115OSM   H18S12051   4.653   4.567   9.124 -0.0625  2.7131  0.1708
  115OSM   H18T12052   4.482   4.526   9.171 -0.4156  0.7217  1.3651
  115OSM   H18U12053   4.615   4.427   9.242 -3.1078 -0.5476  0.7622
  115OSM    C1F12054   5.102   5.322  10.620  0.4675 -0.3816  0.1183
  115OSM     OF12055   5.219   5.339  10.579 -0.8360 -0.7258 -0.3216
  115OSM    C2F12056   4.991   5.410  10.575  0.5242 -1.0630 -0.7262
  115OSM    H2F12057   5.028   5.514  10.584 -4.0454  0.7195  0.0593
  115OSM    H2G12058   4.903   5.402  10.643  1.5490 -0.7831  0.6642
  115OSM    C3F12059   4.943   5.393  10.434 -0.4051  0.3446 -0.3129
  115OSM    H3F12060   5.020   5.400  10.354  0.3773 -0.1296  0.3790
  115OSM    H3G12061   4.876   5.474  10.400  2.5083  2.1025 -2.2545
  115OSM    C4F12062   4.874   5.256  10.415  0.3040  0.4562  0.4736
  115OSM    H4F12063   4.844   5.215  10.513  3.2456  0.1207  1.3508
  115OSM    H4G12064   4.944   5.178  10.377  1.8939  1.6259  0.9163
  115OSM    C5F12065   4.751   5.265  10.318 -0.6164  0.6270  0.4013
  115OSM    H5F12066   4.717   5.370  10.332  2.1318  2.0204 -2.2384
  115OSM    H5G12067   4.665   5.198  10.336 -0.8875 -0.4958 -4.0053
  115OSM    C6F12068   4.782   5.266  10.165  0.3070  0.3788 -0.2986
  115OSM    H6F12069   4.862   5.343  10.149  0.2124  1.2887  2.9477
  115OSM    H6G12070   4.693   5.317  10.124 -0.2566 -0.8567 -0.6434
  115OSM    C7F12071   4.792   5.133  10.091 -0.2445 -0.5333  1.1757
  115OSM    H7F12072   4.704   5.084  10.138 -0.1751  1.8295  4.0425
  115OSM    H7G12073   4.880   5.075  10.124  1.0034  1.0567  0.7828
  115OSM    C8F12074   4.767   5.138   9.935  0.7545  0.0013 -0.0337
  115OSM    H8F12075   4.678   5.196   9.903  1.7461  1.8434  0.3903
  115OSM    H8G12076   4.762   5.030   9.907 -1.1467 -0.1891  0.9056
  115OSM    C9F12077   4.891   5.200   9.868 -0.0967  1.1654  0.0268
  115OSM    H9F12078   4.968   5.224   9.943  1.6157 -0.0279 -1.2490
  115OSM   C10F12079   4.915   5.210   9.737 -0.1881 -0.4469  0.3229
  115OSM   H10F12080   5.007   5.264   9.709  1.0794 -2.7164 -0.1412
  115OSM   C11F12081   4.827   5.190   9.615 -0.1437 -0.5275 -0.0082
  115OSM   H11F12082   4.866   5.269   9.547  0.2544  0.1899  1.0152
  115OSM   H11G12083   4.718   5.207   9.631 -0.3145 -2.1084  0.6773
  115OSM   C12F12084   4.845   5.053   9.540  0.0727  0.1230  0.1065
  115OSM   H12F12085   4.772   4.975   9.568 -0.3014  0.1140 -0.8660
  115OSM   H12G12086   4.945   5.006   9.549  0.7442  1.8216  2.6030
  115OSM   C13F12087   4.824   5.066   9.382  0.2739  0.4235  0.4488
  115OSM   H13F12088   4.887   5.145   9.335  1.7146 -1.7330 -1.4936
  115OSM   H13G12089   4.720   5.099   9.363  1.1257  2.4649 -1.0119
  115OSM   C14F12090   4.845   4.935   9.305 -0.3158  0.3834  0.0334
  115OSM   H14F12091   4.777   4.854   9.339  1.9145 -1.7943 -0.3181
  115OSM   H14G12092   4.944   4.888   9.323 -1.0791 -2.1057 -1.6236
  115OSM   C15F12093   4.828   4.944   9.152 -0.4845 -0.5065 -0.2835
  115OSM   H15F12094   4.897   5.023   9.115 -2.5926  2.4401  1.6890
  115OSM   H15G12095   4.721   4.970   9.136 -0.5278 -0.2756  0.3513
  115OSM   C16F12096   4.874   4.815   9.086  0.3553 -0.7342 -0.5562
  115OSM   H16F12097   4.806   4.729   9.098 -1.3526  0.5999 -0.2163
  115OSM   H16G12098   4.978   4.792   9.117  0.1921  0.2572  0.8358
  115OSM   C17F12099   4.894   4.832   8.934 -0.0347 -0.1493 -0.5269
  115OSM   H17F12100   4.971   4.907   8.909  0.0160  0.0507  0.2164
  115OSM   H17G12101   4.797   4.874   8.898 -0.3143  1.1323  1.5278
  115OSM   C18F12102   4.937   4.708   8.856  0.7666 -0.0319  0.6113
  115OSM   H18F12103   5.043   4.688   8.882  0.2564 -1.4640  1.7982
  115OSM   H18G12104   4.920   4.728   8.749  1.7302  0.2666  0.5048
  115OSM   H18H12105   4.872   4.622   8.884  2.1515 -1.5589 -0.6888
  116OSM      N12106   2.446   2.499  11.109 -0.3512  0.3816  0.1123
  116OSM    C1512107   2.411   2.645  11.098  0.7584 -0.0911 -0.0816
  116OSM   H15A12108   2.376   2.670  10.998  1.4267 -3.4288 -1.2976
  116OSM   H15B12109   2.506   2.693  11.115 -0.2772  1.7449  0.7144
  116OSM   H15C12110   2.341   2.672  11.176 -1.2439  1.5980 -2.3127
  116OSM    C1412111   2.591   2.493  11.146  0.1604  0.1000  0.4982
  116OSM   H14A12112   2.626   2.390  11.149  0.2791 -0.1790 -3.7976
  116OSM   H14B12113   2.617   2.543  11.238  0.1172  1.2235 -0.0896
  116OSM   H14C12114   2.650   2.538  11.069 -0.9243 -0.0677 -0.4604
  116OSM    C1312115   2.370   2.436  11.230 -0.1158  0.5604  0.8947
  116OSM   H13A12116   2.382   2.496  11.318  1.4583  0.0588  1.0640
  116OSM   H13B12117   2.406   2.337  11.251 -0.2790 -0.0224 -1.2673
  116OSM   H13C12118   2.268   2.424  11.197 -0.9419  1.6838  2.9118
  116OSM    C1212119   2.426   2.418  10.983  0.1732  0.3870 -0.3496
  116OSM   H12A12120   2.450   2.313  10.996 -0.1957  0.2682 -0.6019
  116OSM   H12B12121   2.491   2.452  10.903 -0.0144 -1.5730 -1.4101
  116OSM    C1112122   2.286   2.433  10.914  0.8579 -0.2711 -0.2033
  116OSM   H11A12123   2.216   2.395  10.992  2.6609  0.7479  2.0273
  116OSM   H11B12124   2.283   2.361  10.830  1.5559  0.7182 -1.0954
  116OSM      P12125   2.108   2.634  10.891 -0.0202  0.3942  0.6418
  116OSM    O1312126   2.016   2.537  10.951 -0.2939 -0.6269 -0.2379
  116OSM    O1412127   2.135   2.760  10.972 -0.3785  0.2237 -0.0794
  116OSM    O1112128   2.061   2.690  10.749 -1.0466  0.9268 -0.1567
  116OSM    O1212129   2.245   2.559  10.857  0.4402 -0.1102  0.1762
  116OSM    C1S12130   2.119   2.651  10.623  0.0481 -0.1859  0.1861
  116OSM    H1S12131   2.083   2.549  10.595  0.0595 -0.5590  1.4756
  116OSM    H1T12132   2.228   2.633  10.626  0.1743  0.3886 -0.7984
  116OSM     NF12133   2.128   2.696  10.377 -0.6713 -0.1156  0.3862
  116OSM    HNF12134   2.219   2.717  10.343 -0.7226 -1.4299 -0.6553
  116OSM    C2S12135   2.081   2.752  10.507  0.1816 -0.0506 -0.4694
  116OSM    H2S12136   1.970   2.750  10.500 -0.0027  1.8126  0.9429
  116OSM    C3S12137   2.119   2.901  10.532  0.1014  0.2156 -0.8012
  116OSM    H3S12138   2.229   2.917  10.541  0.3925 -2.1214  0.8232
  116OSM     O312139   2.079   2.953  10.660 -0.2920  0.0592 -0.2442
  116OSM    HO312140   2.056   2.873  10.708 -4.7333  1.4616  0.4241
  116OSM    C4S12141   2.061   2.990  10.426  0.3580 -0.6217 -0.4375
  116OSM    H4S12142   1.960   3.023  10.454  1.2444  3.4217 -1.4269
  116OSM    C5S12143   2.128   3.051  10.330 -0.6543  0.8404 -0.2237
  116OSM    H5S12144   2.233   3.026  10.309 -0.7295  0.5356 -0.2474
  116OSM    C6S12145   2.065   3.148  10.222 -0.3213  0.7787  0.0420
  116OSM    H6S12146   2.144   3.211  10.177 -1.7139  0.7141 -2.7232
  116OSM    H6T12147   1.985   3.217  10.256 -0.4271  0.2468  0.9141
  116OSM    C7S12148   2.018   3.065  10.093 -0.0491 -0.7474 -0.5361
  116OSM    H7S12149   2.003   3.137  10.010 -0.6592  0.0022  0.2022
  116OSM    H7T12150   1.921   3.019  10.123 -0.1902  0.2200  0.5894
  116OSM    C8S12151   2.117   2.960  10.041 -0.2249  0.0115  0.4103
  116OSM    H8S12152   2.122   2.865  10.099  0.4469 -1.9199 -2.5804
  116OSM    H8T12153   2.224   2.986  10.034  0.2355 -2.0105 -1.0275
  116OSM    C9S12154   2.077   2.908   9.902  0.3688 -0.3473 -0.1490
  116OSM    H9S12155   1.974   2.871   9.889  1.0418 -2.1462 -0.6862
  116OSM    H9T12156   2.140   2.823   9.870 -0.8037 -0.7070 -1.6107
  116OSM   C10S12157   2.092   3.017   9.788 -0.1436  0.0367 -0.6801
  116OSM   H10S12158   2.198   3.048   9.801 -0.6059  1.0159  1.0489
  116OSM   H10T12159   2.030   3.109   9.798 -2.5018 -1.4891 -0.5082
  116OSM   C11S12160   2.079   2.950   9.646  0.2113 -0.5130 -0.1472
  116OSM   H11S12161   2.151   2.872   9.615  2.2974  1.8644 -1.7108
  116OSM   H11T12162   2.098   3.036   9.578 -2.4643 -0.8756 -1.5009
  116OSM   C12S12163   1.935   2.906   9.614  0.4426  0.0221 -0.6783
  116OSM   H12S12164   1.903   2.839   9.696  1.2616 -0.5674 -0.8293
  116OSM   H12T12165   1.944   2.840   9.525  0.2421 -2.4088  1.0250
  116OSM   C13S12166   1.830   3.008   9.589  0.2046 -0.2438  0.1196
  116OSM   H13S12167   1.857   3.087   9.515 -2.4357  1.7939  1.1785
  116OSM   H13T12168   1.817   3.074   9.678 -1.8609  4.0075 -2.9889
  116OSM   C14S12169   1.689   2.960   9.549 -0.5500  0.3005  0.1951
  116OSM   H14S12170   1.610   3.031   9.584  0.3473  0.1797  2.6930
  116OSM   H14T12171   1.674   2.863   9.601  1.3554  0.2119  0.6505
  116OSM   C15S12172   1.688   2.928   9.404 -0.0170  0.0670 -0.3955
  116OSM   H15S12173   1.729   2.825   9.391 -0.0770 -0.0638  0.3941
  116OSM   H15T12174   1.750   2.999   9.346  2.7907 -0.2842  1.9525
  116OSM   C16S12175   1.540   2.960   9.357 -0.4459 -0.2861  0.6695
  116OSM   H16S12176   1.516   3.067   9.377 -0.6427 -0.2094  0.0498
  116OSM   H16T12177   1.468   2.894   9.411 -1.7958  0.6590  0.0747
  116OSM   C17S12178   1.519   2.925   9.208 -0.3350  0.3394 -0.4381
  116OSM   H17S12179   1.410   2.917   9.189 -0.2975  0.8541 -0.8893
  116OSM   H17T12180   1.570   2.830   9.181  1.6942  1.8365 -2.2126
  116OSM   C18S12181   1.577   3.035   9.123  0.0862  0.3458 -0.1309
  116OSM   H18S12182   1.684   3.048   9.149 -0.2113  0.7473  0.9281
  116OSM   H18T12183   1.524   3.131   9.140 -1.5387 -0.1969 -1.7468
  116OSM   H18U12184   1.571   2.999   9.018  0.3644  4.3479 -1.7091
  116OSM    C1F12185   2.073   2.594  10.303  0.1585 -0.6175 -0.4933
  116OSM     OF12186   1.979   2.528  10.351 -0.1832  0.0080 -0.0493
  116OSM    C2F12187   2.146   2.562  10.170  0.2944  0.0324 -0.6992
  116OSM    H2F12188   2.193   2.465  10.198 -2.3558 -0.4424  2.9648
  116OSM    H2G12189   2.225   2.635  10.144  0.4391  0.6116  1.2125
  116OSM    C3F12190   2.037   2.551  10.060 -0.2900  0.1107 -0.0523
  116OSM    H3F12191   1.986   2.648  10.040  0.6119  0.3176 -1.4800
  116OSM    H3G12192   1.959   2.478  10.090 -1.8529  1.3145 -1.0250
  116OSM    C4F12193   2.094   2.512   9.929  0.0423 -0.3518 -0.0939
  116OSM    H4F12194   2.176   2.438   9.934  1.7433  1.4876  1.0303
  116OSM    H4G12195   2.138   2.605   9.885 -2.0639  0.0524 -1.5388
  116OSM    C5F12196   1.988   2.451   9.841  0.0224 -0.6652 -0.0488
  116OSM    H5F12197   1.899   2.515   9.826  1.2986  1.1590 -0.1355
  116OSM    H5G12198   1.965   2.350   9.880  2.3460 -1.3012 -0.1472
  116OSM    C6F12199   2.043   2.430   9.698 -0.7475  0.4401  0.4116
  116OSM    H6F12200   2.004   2.329   9.673 -1.0871  0.3223  1.3867
  116OSM    H6G12201   2.154   2.425   9.699 -0.4385  3.2591 -2.2871
  116OSM    C7F12202   1.997   2.532   9.590  0.5689 -0.2921 -0.2444
  116OSM    H7F12203   2.044   2.629   9.615 -0.6133  0.6416 -1.4736
  116OSM    H7G12204   1.887   2.543   9.599  0.5255 -1.1065  0.2850
  116OSM    C8F12205   2.028   2.505   9.440  0.2221 -0.9004 -0.1044
  116OSM    H8F12206   2.124   2.451   9.449  0.4646 -0.1134  3.4720
  116OSM    H8G12207   2.055   2.598   9.385  2.6159 -1.5093 -0.0456
  116OSM    C9F12208   1.927   2.417   9.382 -0.0922 -0.5252 -0.1827
  116OSM    H9F12209   1.941   2.308   9.392  0.4538 -0.7732 -2.8013
  116OSM   C10F12210   1.838   2.453   9.287 -0.0686  0.0635  0.1493
  116OSM   H10F12211   1.772   2.369   9.261  1.1156 -1.4635  1.8519
  116OSM   C11F12212   1.803   2.584   9.215 -0.7286  0.2270  0.2120
  116OSM   H11F12213   1.837   2.671   9.275  2.0230 -0.7938  0.2911
  116OSM   H11G12214   1.692   2.588   9.211 -0.6912  2.9521 -0.0524
  116OSM   C12F12215   1.865   2.589   9.078 -0.4430  0.2272 -0.5684
  116OSM   H12F12216   1.850   2.491   9.028  0.2165  0.5291 -1.3810
  116OSM   H12G12217   1.976   2.598   9.087 -0.7146  2.8351  1.4968
  116OSM   C13F12218   1.805   2.705   8.986 -0.0806 -0.0932  0.2037
  116OSM   H13F12219   1.881   2.736   8.911 -0.3204  0.1986  0.0785
  116OSM   H13G12220   1.787   2.797   9.046  1.5935  0.5650 -0.2446
  116OSM   C14F12221   1.670   2.676   8.924  0.5039  0.7297 -0.5543
  116OSM   H14F12222   1.616   2.761   8.878  0.4185 -1.0642 -4.1451
  116OSM   H14G12223   1.610   2.659   9.016  0.5502 -0.2748 -0.6932
  116OSM   C15F12224   1.662   2.562   8.828 -0.4313 -0.3807 -0.3342
  116OSM   H15F12225   1.692   2.461   8.865 -0.5188  0.0546  0.9767
  116OSM   H15G12226   1.732   2.585   8.745  0.6635  0.1345  0.6939
  116OSM   C16F12227   1.525   2.564   8.771 -0.0752  0.5710  0.1543
  116OSM   H16F12228   1.485   2.666   8.755 -0.9745  0.3246  0.7589
  116OSM   H16G12229   1.448   2.522   8.838 -0.1969  0.1564 -0.2399
  116OSM   C17F12230   1.519   2.475   8.647 -0.0179  0.2490  0.1327
  116OSM   H17F12231   1.528   2.369   8.679  2.4921  0.2578 -0.2665
  116OSM   H17G12232   1.602   2.498   8.575 -0.5319  1.5403 -0.0773
  116OSM   C18F12233   1.389   2.487   8.571 -0.6260  0.4407 -0.8795
  116OSM   H18F12234   1.397   2.584   8.517  3.5131  0.0621 -1.2559
  116OSM   H18G12235   1.294   2.496   8.628 -1.3712  2.1986 -2.2925
  116OSM   H18H12236   1.383   2.405   8.495  1.0419 -1.6740  1.1328
  117OSM      N12237   6.548   3.907  11.064 -0.8689  0.0635 -0.3923
  117OSM    C1512238   6.434   3.821  11.117 -0.1914 -0.0407  0.2273
  117OSM   H15A12239   6.375   3.890  11.176  1.9293  3.3962 -1.3668
  117OSM   H15B12240   6.464   3.739  11.180  0.9557  0.8888  0.9212
  117OSM   H15C12241   6.369   3.785  11.038  0.6587  2.5217 -1.7438
  117OSM    C1412242   6.631   3.825  10.961  0.4940  0.2894  0.3411
  117OSM   H14A12243   6.566   3.782  10.886  0.7456 -0.2640  0.4399
  117OSM   H14B12244   6.687   3.757  11.023  0.6685  0.1867  0.0738
  117OSM   H14C12245   6.704   3.888  10.913 -1.6004  2.6234 -0.0431
  117OSM    C1312246   6.494   4.028  10.987  0.4047  0.9967  0.0569
  117OSM   H13A12247   6.458   4.101  11.058 -1.5841 -0.3329  0.5000
  117OSM   H13B12248   6.433   3.991  10.905  2.9198 -2.7080 -0.4116
  117OSM   H13C12249   6.581   4.077  10.946  0.8476  1.0329  1.0206
  117OSM    C1212250   6.630   3.958  11.178 -0.3435 -0.0677 -0.3927
  117OSM   H12A12251   6.668   3.879  11.241  0.8742  0.6787 -0.1458
  117OSM   H12B12252   6.557   4.010  11.238  0.2042 -1.7709  1.8968
  117OSM    C1112253   6.751   4.053  11.150 -0.1698  0.8221  0.0608
  117OSM   H11A12254   6.829   4.001  11.091  1.0152  1.9182  0.6216
  117OSM   H11B12255   6.795   4.073  11.249 -2.2004 -0.2498  1.2564
  117OSM      P12256   6.835   4.286  11.072  0.0769 -0.0091 -0.2193
  117OSM    O1312257   6.787   4.425  11.088  0.1971  0.0825  0.3855
  117OSM    O1412258   6.946   4.246  11.162  0.3197 -0.4178  0.2451
  117OSM    O1112259   6.873   4.257  10.918  0.1965  0.3213  0.3326
  117OSM    O1212260   6.714   4.176  11.083 -0.0055  0.0970 -0.5733
  117OSM    C1S12261   6.777   4.306  10.816  0.3794  0.2115 -0.1246
  117OSM    H1S12262   6.803   4.414  10.806 -1.2395  0.5285 -1.5270
  117OSM    H1T12263   6.669   4.299  10.841 -0.1565  0.2254 -2.2650
  117OSM     NF12264   6.718   4.314  10.563  0.4777  0.3808  0.0619
  117OSM    HNF12265   6.643   4.262  10.522  0.4557 -0.2773  0.9190
  117OSM    C2S12266   6.783   4.238  10.670 -0.0611 -0.4955 -1.0410
  117OSM    H2S12267   6.890   4.228  10.642  0.4239  0.6163  0.3085
  117OSM    C3S12268   6.746   4.085  10.679  0.4557 -0.2895 -0.1704
  117OSM    H3S12269   6.636   4.076  10.698  0.4767  1.7441  1.2139
  117OSM     O312270   6.811   4.028  10.790 -0.5205  0.1994 -0.4079
  117OSM    HO312271   6.867   4.097  10.828  1.6154 -1.9992  0.7565
  117OSM    C4S12272   6.776   4.020  10.545  0.5611  0.4959  0.6234
  117OSM    H4S12273   6.690   4.013  10.477  0.9936 -1.9536  0.2263
  117OSM    C5S12274   6.893   3.977  10.509 -0.1974  0.4387 -0.6202
  117OSM    H5S12275   6.979   3.975  10.577 -0.4318 -1.7527 -0.3206
  117OSM    C6S12276   6.928   3.919  10.374  0.3415 -0.1882  0.1089
  117OSM    H6S12277   6.977   3.820  10.387  0.4352 -0.3641 -1.4189
  117OSM    H6T12278   7.002   3.994  10.336 -0.2535  0.9407  1.1156
  117OSM    C7S12279   6.819   3.913  10.262  0.7425  0.4093  0.2861
  117OSM    H7S12280   6.791   4.016  10.230 -0.6309  0.5470  1.7868
  117OSM    H7T12281   6.731   3.859  10.305  0.8375  0.8673  1.0793
  117OSM    C8S12282   6.850   3.825  10.140  0.0424  0.3755  0.2756
  117OSM    H8S12283   6.832   3.720  10.173  4.1606 -0.2446  1.0839
  117OSM    H8T12284   6.960   3.821  10.124  0.2026  0.1863  1.2921
  117OSM    C9S12285   6.781   3.863  10.012  0.4741  0.4763 -0.5353
  117OSM    H9S12286   6.810   3.968   9.993 -2.8164  1.4958 -0.4676
  117OSM    H9T12287   6.672   3.867  10.034  0.5804  1.4426 -0.1711
  117OSM   C10S12288   6.813   3.763   9.896 -0.2848  0.6707 -0.3614
  117OSM   H10S12289   6.758   3.673   9.931 -1.3404  1.7419  0.8646
  117OSM   H10T12290   6.917   3.730   9.881 -0.2842  0.2874  0.4589
  117OSM   C11S12291   6.760   3.801   9.761  0.4335 -0.0507 -0.2240
  117OSM   H11S12292   6.813   3.895   9.735  0.3228  0.2409  0.5805
  117OSM   H11T12293   6.655   3.831   9.778  0.2901 -0.3712 -0.5306
  117OSM   C12S12294   6.787   3.689   9.660 -0.1131 -0.3392  0.3664
  117OSM   H12S12295   6.721   3.604   9.685 -0.5273  0.3585  1.7275
  117OSM   H12T12296   6.888   3.642   9.668  0.1082  0.1776  0.6508
  117OSM   C13S12297   6.767   3.756   9.520 -0.1910  0.6319  0.3992
  117OSM   H13S12298   6.828   3.849   9.515  0.8848 -0.1472 -2.4007
  117OSM   H13T12299   6.661   3.784   9.502  0.5810  3.2487 -0.4718
  117OSM   C14S12300   6.829   3.666   9.414  0.0462  0.2348  0.7266
  117OSM   H14S12301   6.804   3.561   9.441 -0.1339  0.1901  0.3961
  117OSM   H14T12302   6.940   3.662   9.408  0.0003 -0.5689  0.2037
  117OSM   C15S12303   6.796   3.704   9.268  0.2157  0.4789 -0.0687
  117OSM   H15S12304   6.706   3.656   9.224  1.1819 -0.3087 -1.2684
  117OSM   H15T12305   6.872   3.655   9.203  0.7174 -0.1773  0.9801
  117OSM   C16S12306   6.793   3.855   9.257 -0.2765  0.1212 -0.1153
  117OSM   H16S12307   6.890   3.899   9.286  0.1697 -0.9822  0.0941
  117OSM   H16T12308   6.710   3.895   9.319  2.6000  0.1681  4.0415
  117OSM   C17S12309   6.776   3.908   9.113  1.1521  0.0641  0.7045
  117OSM   H17S12310   6.857   3.858   9.056 -1.0375 -1.0249 -1.6243
  117OSM   H17T12311   6.789   4.018   9.115  1.7320  0.2442 -3.5639
  117OSM   C18S12312   6.629   3.890   9.054  0.1824  0.0771 -0.2107
  117OSM   H18S12313   6.618   3.959   8.967  0.0192 -0.7473 -0.8528
  117OSM   H18T12314   6.563   3.935   9.131  0.4939  0.3843 -0.1179
  117OSM   H18U12315   6.596   3.787   9.030  3.2172 -0.7622 -1.1891
  117OSM    C1F12316   6.758   4.430  10.515 -0.7853  0.2778  0.4008
  117OSM     OF12317   6.843   4.494  10.575  0.1969 -0.3728  0.2890
  117OSM    C2F12318   6.686   4.475  10.384  0.0148 -0.6931 -0.0421
  117OSM    H2F12319   6.662   4.583  10.397  1.4935 -0.0732 -1.9965
  117OSM    H2G12320   6.590   4.422  10.367  0.1293 -1.3288  1.1482
  117OSM    C3F12321   6.781   4.473  10.259 -0.3041  0.3361  0.4090
  117OSM    H3F12322   6.882   4.516  10.271  1.0979 -2.1104 -1.6881
  117OSM    H3G12323   6.739   4.536  10.177 -1.7147 -0.9814  0.0668
  117OSM    C4F12324   6.804   4.329  10.207 -0.6420  0.3980  0.8337
  117OSM    H4F12325   6.708   4.274  10.209  0.1816 -1.0966  0.2206
  117OSM    H4G12326   6.873   4.281  10.280 -1.1233 -1.2968  0.2127
  117OSM    C5F12327   6.871   4.325  10.061 -0.0105 -0.3099  0.3467
  117OSM    H5F12328   6.909   4.223  10.036 -0.5885  0.1509 -2.8145
  117OSM    H5G12329   6.958   4.394  10.063  0.9424 -1.4192 -1.0335
  117OSM    C6F12330   6.787   4.377   9.946  0.9099 -0.1894  0.2281
  117OSM    H6F12331   6.856   4.414   9.868 -0.0084  0.1516 -0.4446
  117OSM    H6G12332   6.723   4.461   9.979 -0.7913 -2.7436  4.2680
  117OSM    C7F12333   6.708   4.255   9.876  0.2416 -0.1135  0.1634
  117OSM    H7F12334   6.611   4.235   9.926  0.5526  2.2637  1.8647
  117OSM    H7G12335   6.764   4.160   9.892 -0.6890 -1.1315 -2.1249
  117OSM    C8F12336   6.677   4.274   9.728 -0.6364 -0.0454 -0.4463
  117OSM    H8F12337   6.765   4.324   9.683  0.3492 -3.2920 -2.4321
  117OSM    H8G12338   6.602   4.356   9.722  0.8640  1.3737 -0.5003
  117OSM    C9F12339   6.641   4.154   9.646 -0.0390  0.7176  0.5091
  117OSM    H9F12340   6.560   4.091   9.687 -0.3129  2.4139  2.7696
  117OSM   C10F12341   6.700   4.113   9.537 -0.2096  0.1114  0.6500
  117OSM   H10F12342   6.650   4.033   9.480  3.0541 -1.1055 -0.7703
  117OSM   C11F12343   6.818   4.180   9.464  1.0317  0.0338 -0.4133
  117OSM   H11F12344   6.896   4.104   9.441  2.5709  1.6867 -0.8479
  117OSM   H11G12345   6.875   4.254   9.525  1.0107  1.7497 -2.3700
  117OSM   C12F12346   6.781   4.257   9.337  0.8492  0.1142  0.9858
  117OSM   H12F12347   6.718   4.344   9.366 -0.9513 -1.0741  0.8266
  117OSM   H12G12348   6.710   4.194   9.278  0.1846  1.8479 -0.1275
  117OSM   C13F12349   6.890   4.279   9.237  0.1939 -0.1957  0.0907
  117OSM   H13F12350   6.940   4.181   9.226 -0.7422 -0.5689 -0.9977
  117OSM   H13G12351   6.955   4.351   9.292  0.5355 -0.8912  0.6148
  117OSM   C14F12352   6.837   4.338   9.100  0.2708  0.1406 -0.3114
  117OSM   H14F12353   6.741   4.392   9.111  0.9703  1.9752 -2.4271
  117OSM   H14G12354   6.817   4.260   9.024  0.8557  2.3749 -2.9289
  117OSM   C15F12355   6.934   4.439   9.027  0.0172 -0.2282  0.1226
  117OSM   H15F12356   7.024   4.380   8.999  0.0278  0.0850 -0.5354
  117OSM   H15G12357   6.970   4.516   9.099  0.7631  0.5609 -1.0402
  117OSM   C16F12358   6.858   4.492   8.901  0.3913  0.2219 -0.0055
  117OSM   H16F12359   6.783   4.566   8.938  0.7413  1.1255 -1.0284
  117OSM   H16G12360   6.797   4.417   8.846  0.3717  0.2820 -0.0667
  117OSM   C17F12361   6.938   4.571   8.792 -0.1118 -0.0647 -0.0210
  117OSM   H17F12362   6.862   4.615   8.723  0.1822  0.3292 -0.0944
  117OSM   H17G12363   7.001   4.510   8.723 -2.2566 -0.5593 -1.6561
  117OSM   C18F12364   7.025   4.683   8.846  0.8219 -0.6879 -0.1135
  117OSM   H18F12365   6.980   4.730   8.937  3.2865  0.8176  0.4287
  117OSM   H18G12366   7.046   4.756   8.765 -0.4051  0.6653  0.7329
  117OSM   H18H12367   7.122   4.636   8.874  0.8184 -0.5251  0.1827
  118OSM      N12368   6.311   5.932  11.254  0.3580  0.0418 -0.7570
  118OSM    C1512369   6.231   5.962  11.379 -0.3022  0.5224 -0.3445
  118OSM   H15A12370   6.273   6.045  11.434  0.3008 -0.3155  0.4744
  118OSM   H15B12371   6.215   5.880  11.448  0.4591  0.3596 -0.3556
  118OSM   H15C12372   6.128   5.983  11.353 -0.6126  0.7816  1.0031
  118OSM    C1412373   6.273   6.011  11.141 -0.3430 -0.1180  0.0032
  118OSM   H14A12374   6.340   5.997  11.057 -1.0911  2.6322 -1.1842
  118OSM   H14B12375   6.254   6.115  11.161 -0.1202 -0.2166  0.7551
  118OSM   H14C12376   6.182   5.965  11.105  1.1851 -2.7114 -0.7951
  118OSM    C1312377   6.454   5.954  11.277 -0.5809  0.3109 -0.7780
  118OSM   H13A12378   6.492   5.879  11.344 -0.2431 -0.5230 -1.8831
  118OSM   H13B12379   6.485   6.047  11.323  2.3842 -0.9561  0.0226
  118OSM   H13C12380   6.502   5.937  11.182 -1.6868 -1.1002 -1.1250
  118OSM    C1212381   6.278   5.788  11.220  0.2758  0.6369 -0.2613
  118OSM   H12A12382   6.171   5.772  11.215  0.3978 -1.9154  2.8585
  118OSM   H12B12383   6.302   5.731  11.308 -3.0365  2.0129  1.7285
  118OSM    C1112384   6.355   5.731  11.099 -0.1295 -0.0237  0.2381
  118OSM   H11A12385   6.345   5.790  11.005  2.9407 -0.5237 -0.5179
  118OSM   H11B12386   6.317   5.629  11.074 -1.4039  0.5956 -0.4240
  118OSM      P12387   6.612   5.748  11.052 -0.3619  0.4441  0.7496
  118OSM    O1312388   6.651   5.889  11.066 -0.0848 -0.2553 -0.1726
  118OSM    O1412389   6.729   5.659  11.073  0.0410  0.7211 -0.1135
  118OSM    O1112390   6.544   5.733  10.907  0.4406 -0.8004  0.8699
  118OSM    O1212391   6.491   5.712  11.146  0.1269  0.8590 -0.4976
  118OSM    C1S12392   6.602   5.649  10.815  0.0390 -0.1194  0.9394
  118OSM    H1S12393   6.626   5.548  10.856  0.0262 -0.4281  0.2014
  118OSM    H1T12394   6.693   5.700  10.778 -1.5029  1.0034 -1.6129
  118OSM     NF12395   6.591   5.566  10.590 -0.2435  0.0310 -0.4668
  118OSM    HNF12396   6.654   5.611  10.527 -1.7850  0.7214 -1.6231
  118OSM    C2S12397   6.513   5.641  10.686  0.7222 -0.2231  0.0470
  118OSM    H2S12398   6.425   5.578  10.711 -0.1004  1.2005  0.8924
  118OSM    C3S12399   6.455   5.780  10.637  0.6542 -0.5886 -0.0393
  118OSM    H3S12400   6.552   5.829  10.615  1.1212 -0.3541  2.2546
  118OSM     O312401   6.390   5.851  10.739  0.1368  0.8302 -0.3234
  118OSM    HO312402   6.425   5.805  10.816 -0.7957 -0.8814 -0.8695
  118OSM    C4S12403   6.372   5.768  10.509  0.3871  0.4600  0.6175
  118OSM    H4S12404   6.420   5.813  10.421 -1.5236  0.9183 -0.2594
  118OSM    C5S12405   6.249   5.711  10.496  0.1321 -0.1507 -0.2795
  118OSM    H5S12406   6.198   5.677  10.587  0.1535 -0.0856 -0.2438
  118OSM    C6S12407   6.181   5.695  10.359 -0.0618  0.1980 -0.2230
  118OSM    H6S12408   6.083   5.747  10.351 -1.1617 -1.2557  2.5073
  118OSM    H6T12409   6.156   5.587  10.347 -0.0151  0.0172  1.1568
  118OSM    C7S12410   6.252   5.731  10.224 -0.4914 -0.2473  0.5794
  118OSM    H7S12411   6.345   5.672  10.206  0.4385  1.2300  0.3124
  118OSM    H7T12412   6.279   5.839  10.228 -0.5418 -0.1936 -0.3132
  118OSM    C8S12413   6.159   5.705  10.098  1.2099 -0.1336  0.3743
  118OSM    H8S12414   6.062   5.755  10.114  0.3288 -1.3823 -0.8012
  118OSM    H8T12415   6.145   5.596  10.079  0.9153  0.2271 -1.7832
  118OSM    C9S12416   6.222   5.748   9.964 -0.1866 -0.3050  0.0450
  118OSM    H9S12417   6.320   5.696   9.967  0.8973  1.6356  0.2009
  118OSM    H9T12418   6.258   5.853   9.976 -0.2864 -0.1961 -0.5988
  118OSM   C10S12419   6.149   5.699   9.843 -0.3557  0.1280 -0.1329
  118OSM   H10S12420   6.081   5.782   9.814 -1.3928 -0.7677 -0.3203
  118OSM   H10T12421   6.080   5.616   9.869  0.9757  0.0100  3.5854
  118OSM   C11S12422   6.249   5.674   9.726  0.5666  0.1498 -0.6319
  118OSM   H11S12423   6.321   5.594   9.751  1.8713  1.2291 -0.8150
  118OSM   H11T12424   6.309   5.763   9.699  1.8528 -0.4555  0.1601
  118OSM   C12S12425   6.172   5.637   9.594 -0.8962  0.0621 -0.5303
  118OSM   H12S12426   6.103   5.721   9.571  0.0546  0.4019 -2.3491
  118OSM   H12T12427   6.110   5.545   9.597  0.0107 -0.5545  2.0747
  118OSM   C13S12428   6.265   5.615   9.477 -0.5416 -0.5461 -0.0027
  118OSM   H13S12429   6.316   5.519   9.497  3.4218  1.7787  2.2804
  118OSM   H13T12430   6.339   5.698   9.465 -0.8643 -0.3767 -0.9445
  118OSM   C14S12431   6.187   5.604   9.343 -0.9050 -0.0409  0.1614
  118OSM   H14S12432   6.127   5.691   9.308  0.9937  1.1410 -0.3142
  118OSM   H14T12433   6.107   5.530   9.365 -2.2689  1.0753 -0.8549
  118OSM   C15S12434   6.278   5.563   9.227 -0.4235  0.1383 -0.3009
  118OSM   H15S12435   6.310   5.458   9.243 -2.3950 -0.0282  3.7980
  118OSM   H15T12436   6.370   5.626   9.229  1.0117 -1.7887  3.5564
  118OSM   C16S12437   6.218   5.577   9.088  0.1057  0.1232  0.4356
  118OSM   H16S12438   6.178   5.680   9.072  4.1880  1.6389 -1.2556
  118OSM   H16T12439   6.131   5.510   9.072  0.4206  0.0599 -1.1772
  118OSM   C17S12440   6.323   5.551   8.973 -0.1948 -0.1972  0.3347
  118OSM   H17S12441   6.398   5.633   8.985 -0.9413  1.0637 -2.5589
  118OSM   H17T12442   6.290   5.581   8.871  3.5376  1.6856 -0.5074
  118OSM   C18S12443   6.403   5.416   8.973 -0.2250 -0.5994  0.1037
  118OSM   H18S12444   6.449   5.395   9.072  1.5092 -0.7733 -0.7057
  118OSM   H18T12445   6.487   5.427   8.900  0.3972 -0.6471  0.8017
  118OSM   H18U12446   6.332   5.338   8.938 -0.0562  0.2215 -2.2440
  118OSM    C1F12447   6.604   5.433  10.592 -0.0981  0.4196 -0.3437
  118OSM     OF12448   6.514   5.369  10.643  0.3048 -0.4332 -0.5756
  118OSM    C2F12449   6.732   5.379  10.535  0.0877 -0.5638 -1.0575
  118OSM    H2F12450   6.785   5.335  10.623  0.9044 -0.5075 -1.5036
  118OSM    H2G12451   6.799   5.461  10.502  0.2564 -1.0170 -1.8892
  118OSM    C3F12452   6.697   5.291  10.409 -0.3404  0.2082  0.5002
  118OSM    H3F12453   6.636   5.355  10.343 -2.0809 -1.7042  0.1265
  118OSM    H3G12454   6.624   5.211  10.436 -0.3278 -0.4707 -1.3611
  118OSM    C4F12455   6.824   5.224  10.342 -0.7814 -0.3568  0.0266
  118OSM    H4F12456   6.855   5.145  10.414  0.6730  1.8423  1.9950
  118OSM    H4G12457   6.903   5.302  10.337  0.2075 -1.2514  1.0791
  118OSM    C5F12458   6.795   5.165  10.205  0.2685  0.0852  0.1460
  118OSM    H5F12459   6.703   5.102  10.201  0.5905 -0.3276 -1.3041
  118OSM    H5G12460   6.888   5.117  10.168 -0.4684  0.2576 -2.0706
  118OSM    C6F12461   6.777   5.273  10.090 -0.1755  0.9727  0.2266
  118OSM    H6F12462   6.873   5.326  10.070  0.9821 -1.1914 -0.2765
  118OSM    H6G12463   6.714   5.357  10.128  0.3192  1.8341 -0.7997
  118OSM    C7F12464   6.733   5.217   9.951  0.4870 -0.3043  0.2515
  118OSM    H7F12465   6.628   5.181   9.951  0.8521 -1.4784  2.0497
  118OSM    H7G12466   6.789   5.124   9.929  0.1391 -0.2368 -0.9796
  118OSM    C8F12467   6.770   5.312   9.832  0.0376  0.1939 -0.0280
  118OSM    H8F12468   6.873   5.344   9.855  0.8779 -1.5945 -1.0669
  118OSM    H8G12469   6.714   5.407   9.843  1.6179  1.0257  1.0663
  118OSM    C9F12470   6.747   5.258   9.693 -0.1272  0.1493  0.0000
  118OSM    H9F12471   6.643   5.267   9.658  0.2968 -0.1137 -1.3804
  118OSM   C10F12472   6.837   5.206   9.603  0.9234 -0.4209  0.2119
  118OSM   H10F12473   6.809   5.159   9.508  0.0784 -0.9108  0.6936
  118OSM   C11F12474   6.980   5.188   9.626  0.3432 -0.7247 -0.0885
  118OSM   H11F12475   6.994   5.082   9.654  1.8702 -0.6569 -0.5627
  118OSM   H11G12476   7.017   5.257   9.705 -0.6931  5.0388 -3.9894
  118OSM   C12F12477   7.066   5.212   9.498  0.2722 -0.1067  0.1417
  118OSM   H12F12478   7.031   5.150   9.413 -1.8920  0.4447  0.5817
  118OSM   H12G12479   7.176   5.197   9.509  0.3835  0.9748  0.6860
  118OSM   C13F12480   7.066   5.356   9.454 -0.2782  0.0580  0.0036
  118OSM   H13F12481   7.131   5.415   9.523 -0.5021  1.5274 -0.9899
  118OSM   H13G12482   6.963   5.395   9.448 -0.8270 -1.1109  1.3389
  118OSM   C14F12483   7.126   5.388   9.316  0.2952 -0.6343  0.9476
  118OSM   H14F12484   7.059   5.327   9.251 -1.3547 -1.9849  3.7492
  118OSM   H14G12485   7.226   5.340   9.318  0.9121  0.4772 -0.8071
  118OSM   C15F12486   7.124   5.533   9.268 -0.0275 -0.4091  0.0772
  118OSM   H15F12487   7.194   5.598   9.324 -1.4411 -0.0381  1.5072
  118OSM   H15G12488   7.019   5.568   9.281 -0.7413 -0.7808 -3.5419
  118OSM   C16F12489   7.157   5.544   9.120 -0.4485  0.0823  0.0403
  118OSM   H16F12490   7.143   5.646   9.077  0.8693 -0.3251 -1.4470
  118OSM   H16G12491   7.090   5.473   9.067 -0.6209 -0.0663  0.4546
  118OSM   C17F12492   7.306   5.504   9.089  0.5041  0.9985 -0.8039
  118OSM   H17F12493   7.324   5.400   9.124 -0.7202  1.0200 -0.0510
  118OSM   H17G12494   7.365   5.571   9.156  1.9364  0.0521 -1.0771
  118OSM   C18F12495   7.345   5.527   8.948 -0.7058 -0.7399 -0.0599
  118OSM   H18F12496   7.433   5.463   8.926  0.4078  1.5198 -2.7807
  118OSM   H18G12497   7.372   5.635   8.948 -0.3613 -0.8177  0.7080
  118OSM   H18H12498   7.251   5.513   8.890 -0.5225  0.5026 -0.6934
  119OSM      N12499   0.423   4.734  11.112 -0.1918  0.3860 -0.4929
  119OSM    C1512500   0.566   4.786  11.114  0.0240 -0.2843 -0.3278
  119OSM   H15A12501   0.621   4.725  11.044  0.8192  0.4945 -0.3942
  119OSM   H15B12502   0.607   4.777  11.213 -0.6231  0.0958 -0.0194
  119OSM   H15C12503   0.563   4.890  11.087 -0.2165 -0.1544  0.1863
  119OSM    C1412504   0.376   4.720  10.977  0.2244 -0.8848  0.2997
  119OSM   H14A12505   0.447   4.684  10.904  1.2715  0.4502  0.6144
  119OSM   H14B12506   0.354   4.823  10.951  1.8739  0.1276  2.6170
  119OSM   H14C12507   0.289   4.656  10.972  1.4403 -2.6269  0.7356
  119OSM    C1312508   0.441   4.595  11.171  0.5125  0.0749  0.5459
  119OSM   H13A12509   0.477   4.584  11.273  1.3343 -0.1954  0.2287
  119OSM   H13B12510   0.516   4.538  11.118 -0.3818 -1.0861  0.4899
  119OSM   H13C12511   0.347   4.542  11.166  0.1379  0.7608  0.1783
  119OSM    C1212512   0.332   4.813  11.202 -0.5351 -0.3375 -0.4825
  119OSM   H12A12513   0.353   4.793  11.307  1.7376  0.7543 -0.6666
  119OSM   H12B12514   0.231   4.784  11.179 -0.7108  0.9825 -1.4353
  119OSM    C1112515   0.344   4.963  11.195 -0.5818 -0.2657 -0.0336
  119OSM   H11A12516   0.449   4.984  11.224 -0.0345 -1.5008 -1.0341
  119OSM   H11B12517   0.279   5.008  11.273 -0.6598 -3.7030  2.0474
  119OSM      P12518   0.363   5.137  11.014 -0.1769  0.0810 -0.1723
  119OSM    O1312519   0.316   5.241  11.108  0.1313 -0.1664 -0.0129
  119OSM    O1412520   0.508   5.123  10.999 -0.4230 -0.0516 -0.6585
  119OSM    O1112521   0.289   5.158  10.877 -0.0478 -0.1511  0.4461
  119OSM    O1212522   0.303   5.007  11.061 -0.0334 -0.2211 -0.0821
  119OSM    C1S12523   0.327   5.064  10.774 -0.0294 -0.0538 -0.5930
  119OSM    H1S12524   0.268   4.971  10.786 -3.5118  2.0419 -0.2819
  119OSM    H1T12525   0.435   5.037  10.771  0.8077  2.7423  0.7951
  119OSM     NF12526   0.320   5.016  10.530 -0.3368 -0.1953 -0.6271
  119OSM    HNF12527   0.402   5.023  10.474  0.3408 -2.1798  0.0079
  119OSM    C2S12528   0.301   5.119  10.634  0.1858 -0.0899  0.8748
  119OSM    H2S12529   0.192   5.138  10.629 -0.1636 -2.1566 -1.6051
  119OSM    C3S12530   0.384   5.244  10.621  0.3402 -0.5299 -0.2891
  119OSM    H3S12531   0.491   5.222  10.640  2.2553  3.4541 -4.4603
  119OSM     O312532   0.359   5.353  10.713  0.0379 -0.0345  0.1148
  119OSM    HO312533   0.299   5.305  10.771 -0.2692 -1.4850 -1.3377
  119OSM    C4S12534   0.395   5.293  10.478 -0.6935 -0.8294 -0.9656
  119OSM    H4S12535   0.462   5.228  10.419  0.9712 -1.3941  1.3957
  119OSM    C5S12536   0.338   5.398  10.420  0.1186  0.5403 -0.5564
  119OSM    H5S12537   0.283   5.466  10.486 -0.6945 -0.0088 -0.6517
  119OSM    C6S12538   0.353   5.441  10.278  0.0851  0.8015 -0.4033
  119OSM    H6S12539   0.418   5.530  10.267  2.9527 -1.2703 -1.1914
  119OSM    H6T12540   0.250   5.467  10.244 -1.4512 -2.9053  0.8448
  119OSM    C7S12541   0.401   5.337  10.173 -0.4070  0.5486 -0.0328
  119OSM    H7S12542   0.336   5.247  10.170 -0.5770  0.7009 -0.9282
  119OSM    H7T12543   0.506   5.301  10.185 -0.0127  1.6404 -0.1106
  119OSM    C8S12544   0.401   5.394  10.032  0.6172 -0.4722 -0.8968
  119OSM    H8S12545   0.433   5.501  10.036  1.3243 -0.7128  1.0129
  119OSM    H8T12546   0.294   5.412  10.012 -0.2246 -1.4415  2.2106
  119OSM    C9S12547   0.469   5.313   9.921  0.1359 -0.1856 -0.3672
  119OSM    H9S12548   0.402   5.230   9.889  0.4216 -1.1898  1.5005
  119OSM    H9T12549   0.539   5.242   9.970 -0.2270 -0.8349 -0.7769
  119OSM   C10S12550   0.538   5.404   9.810  0.3082 -0.1706 -0.4976
  119OSM   H10S12551   0.601   5.479   9.863  0.0554 -0.6922  0.5647
  119OSM   H10T12552   0.459   5.455   9.751  0.3645 -2.0881 -2.3907
  119OSM   C11S12553   0.629   5.324   9.708 -0.3153 -0.0798 -0.4939
  119OSM   H11S12554   0.571   5.242   9.661  0.5029 -1.0533  0.1672
  119OSM   H11T12555   0.714   5.277   9.761 -1.5757 -2.6094 -0.5792
  119OSM   C12S12556   0.672   5.407   9.586  0.5052  0.6477  0.5137
  119OSM   H12S12557   0.717   5.504   9.617 -1.8667  1.9306  0.1309
  119OSM   H12T12558   0.583   5.429   9.524 -0.0212 -2.6768 -0.1162
  119OSM   C13S12559   0.772   5.346   9.487  0.6153 -0.1999  0.9154
  119OSM   H13S12560   0.845   5.289   9.548 -0.0849 -2.3086 -0.1065
  119OSM   H13T12561   0.827   5.430   9.442  0.0099  0.7074  1.8254
  119OSM   C14S12562   0.707   5.261   9.370 -0.6684  0.4610 -0.3287
  119OSM   H14S12563   0.656   5.319   9.291 -0.0873 -0.2335 -1.2415
  119OSM   H14T12564   0.645   5.184   9.422  2.4425 -3.8433 -2.3078
  119OSM   C15S12565   0.824   5.191   9.293  0.3994 -0.7473 -0.6429
  119OSM   H15S12566   0.781   5.108   9.232  1.3009 -1.9500  0.3140
  119OSM   H15T12567   0.896   5.147   9.365  1.4095  0.2129 -1.0429
  119OSM   C16S12568   0.891   5.296   9.204  0.1348 -0.3409  0.9490
  119OSM   H16S12569   0.963   5.365   9.253 -1.2317  2.5572 -0.8100
  119OSM   H16T12570   0.815   5.371   9.172  0.8605  0.1136  0.2700
  119OSM   C17S12571   0.934   5.234   9.073  0.3750 -0.1113  0.1050
  119OSM   H17S12572   0.854   5.173   9.025  0.1528 -0.8625  1.4152
  119OSM   H17T12573   1.008   5.162   9.112  0.6036 -0.6050 -1.1855
  119OSM   C18S12574   1.010   5.337   8.985  0.5928  0.3790  0.4864
  119OSM   H18S12575   1.118   5.324   9.009  0.9578  0.1691 -1.1819
  119OSM   H18T12576   0.977   5.441   9.004 -2.6136 -0.6014  0.9682
  119OSM   H18U12577   1.003   5.304   8.880 -0.5126  0.0585  0.6513
  119OSM    C1F12578   0.242   4.913  10.511  0.2818 -0.8333 -0.4664
  119OSM     OF12579   0.143   4.896  10.578  0.6030 -0.6348  0.2530
  119OSM    C2F12580   0.271   4.823  10.399 -0.4584 -0.0735  0.2070
  119OSM    H2F12581   0.213   4.729  10.410  1.0955 -1.4903 -2.6975
  119OSM    H2G12582   0.380   4.806  10.399  0.0556  2.6943  0.5436
  119OSM    C3F12583   0.211   4.891  10.267 -0.7555 -0.4346 -0.5946
  119OSM    H3F12584   0.275   4.977  10.239 -0.6569 -0.1400  0.4807
  119OSM    H3G12585   0.109   4.925  10.294  0.1713  2.4293 -0.4232
  119OSM    C4F12586   0.204   4.798  10.143  0.4757  0.0538  0.9918
  119OSM    H4F12587   0.134   4.713  10.155  0.4025  0.0436  0.4965
  119OSM    H4G12588   0.305   4.754  10.127  0.8468  0.9176  0.8796
  119OSM    C5F12589   0.154   4.867  10.013 -0.5489  0.5966  0.8222
  119OSM    H5F12590   0.229   4.940   9.976  0.3654 -0.6635  0.1154
  119OSM    H5G12591   0.064   4.922  10.050  0.0703  1.8037  0.5731
  119OSM    C6F12592   0.110   4.783   9.887  0.2718  0.2806 -0.3873
  119OSM    H6F12593   0.006   4.764   9.922  0.8036  0.0821  1.1991
  119OSM    H6G12594   0.185   4.701   9.884  0.1367  0.0694  1.1274
  119OSM    C7F12595   0.117   4.865   9.758 -1.0683  0.5703 -0.4216
  119OSM    H7F12596   0.219   4.895   9.725 -0.6320  0.4943  0.7975
  119OSM    H7G12597   0.049   4.953   9.773 -0.2204  1.0465  0.8105
  119OSM    C8F12598   0.060   4.790   9.640  0.1952  0.1163  0.2317
  119OSM    H8F12599   0.064   4.857   9.551 -0.3380 -0.6729 -0.3959
  119OSM    H8G12600  -0.048   4.773   9.655  0.0927  0.0972 -0.4658
  119OSM    C9F12601   0.137   4.665   9.613  0.3563  0.3677  0.7055
  119OSM    H9F12602   0.109   4.587   9.685  0.4328  2.1403  2.7528
  119OSM   C10F12603   0.213   4.644   9.499 -0.3581  0.5486  0.1931
  119OSM   H10F12604   0.256   4.544   9.485  0.4513  0.6024  1.9765
  119OSM   C11F12605   0.257   4.736   9.384  0.8229 -0.2418  0.6123
  119OSM   H11F12606   0.215   4.837   9.402  2.2354 -0.0136  3.1168
  119OSM   H11G12607   0.230   4.698   9.283 -0.5879 -0.4306  1.0362
  119OSM   C12F12608   0.405   4.746   9.381 -0.6839  0.1700  0.2592
  119OSM   H12F12609   0.447   4.663   9.321  1.0689  1.3307 -0.1953
  119OSM   H12G12610   0.447   4.739   9.484 -0.6276 -1.3226  0.1494
  119OSM   C13F12611   0.458   4.874   9.317 -0.2900 -0.4180 -0.2007
  119OSM   H13F12612   0.568   4.882   9.327  0.0426 -2.4776 -1.4700
  119OSM   H13G12613   0.425   4.955   9.384 -0.0057 -0.6013  0.1634
  119OSM   C14F12614   0.418   4.894   9.168  0.2294 -0.2424  0.4049
  119OSM   H14F12615   0.313   4.860   9.155 -0.8877  0.3177  5.6224
  119OSM   H14G12616   0.494   4.833   9.116 -1.0050 -1.1454 -0.4068
  119OSM   C15F12617   0.413   5.038   9.107  0.1740  0.1290 -0.4313
  119OSM   H15F12618   0.500   5.101   9.137  1.6753 -1.0471 -2.1081
  119OSM   H15G12619   0.322   5.084   9.150  0.2440 -1.0596  1.0549
  119OSM   C16F12620   0.406   5.030   8.953 -0.0321 -0.3846 -0.0039
  119OSM   H16F12621   0.304   4.995   8.929 -0.4573  0.8124 -0.0187
  119OSM   H16G12622   0.477   4.952   8.920 -0.5757 -1.3340  0.9971
  119OSM   C17F12623   0.434   5.168   8.894  0.6748 -0.0117  0.1901
  119OSM   H17F12624   0.538   5.197   8.920  1.1260 -1.1721 -0.2700
  119OSM   H17G12625   0.362   5.243   8.934  0.9074 -0.5865  1.7308
  119OSM   C18F12626   0.432   5.167   8.743  0.2997 -0.4748 -0.0787
  119OSM   H18F12627   0.463   5.267   8.705 -3.5117  0.2704 -1.7529
  119OSM   H18G12628   0.334   5.148   8.693 -0.3727  0.9420  0.6267
  119OSM   H18H12629   0.501   5.088   8.707  1.5407  1.1908 -1.5182
  120OSM      N12630   0.336   1.178  10.842  0.0122 -0.3212 -0.0766
  120OSM    C1512631   0.187   1.150  10.839  0.0132  0.4534  1.1705
  120OSM   H15A12632   0.153   1.148  10.736  0.3369  1.4453  1.0403
  120OSM   H15B12633   0.126   1.225  10.887  0.8706 -0.5593  4.0514
  120OSM   H15C12634   0.169   1.054  10.885  0.4896 -2.0228 -3.2199
  120OSM    C1412635   0.354   1.325  10.792  0.4360 -0.5079  0.0240
  120OSM   H14A12636   0.457   1.359  10.794  0.9538 -2.0285  0.4296
  120OSM   H14B12637   0.296   1.394  10.851  1.1173  0.2653 -0.1959
  120OSM   H14C12638   0.335   1.331  10.686  2.9263 -1.4447 -0.5705
  120OSM    C1312639   0.373   1.182  10.986 -0.1942 -0.1061 -0.4199
  120OSM   H13A12640   0.353   1.090  11.039  0.4042  0.4417  0.8000
  120OSM   H13B12641   0.318   1.261  11.035  0.4467 -2.0395  3.7914
  120OSM   H13C12642   0.478   1.204  10.996  0.0382 -0.7087 -1.4231
  120OSM    C1212643   0.419   1.077  10.765 -0.4377 -0.4367  0.0895
  120OSM   H12A12644   0.411   0.979  10.808 -0.6063 -0.6977 -0.5176
  120OSM   H12B12645   0.522   1.110  10.772 -0.1023 -1.4635  0.1030
  120OSM    C1112646   0.386   1.056  10.616 -0.7844 -0.5384 -0.9432
  120OSM   H11A12647   0.475   1.000  10.582  1.9883  0.8198  3.2622
  120OSM   H11B12648   0.386   1.153  10.562  1.9459 -0.7208 -1.4105
  120OSM      P12649   0.251   0.833  10.655  0.0481  0.4132 -0.1392
  120OSM    O1312650   0.324   0.817  10.784  0.3592 -0.2126 -0.9063
  120OSM    O1412651   0.113   0.796  10.660  0.3874  0.5475  0.4466
  120OSM    O1112652   0.319   0.743  10.540 -0.3647 -0.1796 -0.2373
  120OSM    O1212653   0.270   0.983  10.596 -0.0481  0.1352  0.4417
  120OSM    C1S12654   0.282   0.762  10.403 -0.1738 -0.1899  0.5101
  120OSM    H1S12655   0.354   0.832  10.356 -2.2935  2.6737  1.2596
  120OSM    H1T12656   0.180   0.804  10.388 -1.1787 -2.2285  1.2504
  120OSM     NF12657   0.265   0.653  10.177  0.1069 -0.9211  0.3958
  120OSM    HNF12658   0.170   0.643  10.149 -0.8046  1.1398  2.4393
  120OSM    C2S12659   0.286   0.629  10.321 -0.1670  0.3455 -0.1846
  120OSM    H2S12660   0.388   0.586  10.324 -0.9251 -1.4957  1.8659
  120OSM    C3S12661   0.188   0.528  10.384  0.9021 -0.3147  0.1439
  120OSM    H3S12662   0.092   0.585  10.389  1.5086  0.8008 -0.5716
  120OSM     O312663   0.226   0.485  10.516  0.2833 -0.3134 -0.3175
  120OSM    HO312664   0.276   0.553  10.561 -2.0358  1.1109  0.2985
  120OSM    C4S12665   0.182   0.403  10.294 -0.2444  0.4996  0.0933
  120OSM    H4S12666   0.277   0.348  10.293 -0.7594 -0.4277 -1.0964
  120OSM    C5S12667   0.071   0.370  10.231 -0.6499  0.7177 -0.0567
  120OSM    H5S12668  -0.022   0.424  10.252 -0.8390  1.1065 -1.7626
  120OSM    C6S12669   0.058   0.256  10.131  0.3741 -0.3163 -0.0656
  120OSM    H6S12670  -0.016   0.180  10.162 -1.6544  1.4651 -0.2952
  120OSM    H6T12671   0.153   0.200  10.112  1.0803  0.6671  0.4440
  120OSM    C7S12672   0.034   0.306   9.981 -0.0408  0.3518  0.2275
  120OSM    H7S12673   0.124   0.364   9.952  0.8823  0.5324  3.0562
  120OSM    H7T12674  -0.052   0.376   9.977  1.0426  1.7979  1.0862
  120OSM    C8S12675   0.024   0.178   9.892  0.6108 -0.2371  0.2945
  120OSM    H8S12676  -0.044   0.118   9.956 -1.5931  1.3442 -0.4474
  120OSM    H8T12677   0.124   0.130   9.903  0.3587 -0.3510  2.4698
  120OSM    C9S12678  -0.014   0.207   9.738 -0.7690  0.2469  0.1282
  120OSM    H9S12679   0.078   0.247   9.691 -0.7692 -0.9258 -0.8900
  120OSM    H9T12680  -0.090   0.288   9.730  1.3125  2.1784 -1.1520
  120OSM   C10S12681  -0.040   0.089   9.649  0.4525  0.4438 -0.6821
  120OSM   H10S12682  -0.134   0.034   9.672  1.7108 -1.1774  0.8771
  120OSM   H10T12683   0.033   0.013   9.682  1.5520  1.5604 -0.4501
  120OSM   C11S12684  -0.027   0.131   9.505  0.1093  0.0706 -0.0690
  120OSM   H11S12685  -0.021   0.035   9.450 -0.2712  0.0233 -0.0270
  120OSM   H11T12686   0.070   0.183   9.485 -0.5541  0.2630 -3.3880
  120OSM   C12S12687  -0.156   0.186   9.453  0.3456 -0.7707 -0.0338
  120OSM   H12S12688  -0.190   0.282   9.499  0.0787  0.0660 -1.9126
  120OSM   H12T12689  -0.241   0.116   9.468  0.6275 -1.1376 -0.1516
  120OSM   C13S12690  -0.143   0.222   9.300  0.9164  0.0610 -0.6536
  120OSM   H13S12691  -0.068   0.300   9.274 -0.7095  1.5693 -0.9568
  120OSM   H13T12692  -0.239   0.268   9.269  0.5153 -1.3528 -1.5960
  120OSM   C14S12693  -0.123   0.103   9.216  0.2807 -0.4061  0.1720
  120OSM   H14S12694  -0.199   0.023   9.236  1.0344 -1.1542  0.1043
  120OSM   H14T12695  -0.019   0.071   9.238 -0.0903 -1.0626  1.0599
  120OSM   C15S12696  -0.127   0.137   9.064 -0.4186 -0.4621  0.0277
  120OSM   H15S12697  -0.052   0.216   9.045 -0.2863 -0.6106 -0.0700
  120OSM   H15T12698  -0.230   0.165   9.033 -0.2372 -0.8342 -0.9609
  120OSM   C16S12699  -0.087   0.019   8.967 -0.1531 -0.6129 -0.2247
  120OSM   H16S12700  -0.154  -0.069   8.976 -0.4548 -0.3532  0.1273
  120OSM   H16T12701   0.013  -0.017   8.997 -0.0358 -1.3975 -1.4759
  120OSM   C17S12702  -0.059   0.070   8.829 -0.6218  0.5076  0.2703
  120OSM   H17S12703   0.019   0.149   8.842  0.2526  0.1556 -2.1830
  120OSM   H17T12704  -0.157   0.107   8.792 -0.2958  3.2968  1.9305
  120OSM   C18S12705   0.004  -0.034   8.735  0.1760 -0.7693  0.3008
  120OSM   H18S12706   0.039   0.024   8.647  0.4620 -2.1753 -0.5461
  120OSM   H18T12707  -0.076  -0.105   8.706 -0.3829  0.2048 -0.6043
  120OSM   H18U12708   0.086  -0.087   8.788  1.3846  0.2943 -0.4279
  120OSM    C1F12709   0.351   0.725  10.100 -0.1225  0.7482  0.1737
  120OSM     OF12710   0.466   0.751  10.135  0.4752  0.0761  0.3103
  120OSM    C2F12711   0.302   0.765   9.962  0.5283 -0.0046  0.4818
  120OSM    H2F12712   0.225   0.844   9.978  0.3643  0.2949 -1.5741
  120OSM    H2G12713   0.237   0.686   9.919 -0.4963  1.7096 -1.2951
  120OSM    C3F12714   0.413   0.809   9.873 -0.8397 -0.6013  0.5394
  120OSM    H3F12715   0.496   0.735   9.877 -0.4055 -0.1128  0.5921
  120OSM    H3G12716   0.454   0.903   9.918  0.7917 -0.5114 -1.0197
  120OSM    C4F12717   0.372   0.839   9.729  0.2322 -0.2115  0.0463
  120OSM    H4F12718   0.279   0.901   9.728  0.1381 -0.3483 -0.8021
  120OSM    H4G12719   0.351   0.747   9.671  0.3473  0.4173 -1.0161
  120OSM    C5F12720   0.480   0.923   9.664  0.1990  0.9269 -0.0805
  120OSM    H5F12721   0.571   0.862   9.644 -1.8645 -1.9049 -1.5249
  120OSM    H5G12722   0.512   1.011   9.724  1.6544 -1.3926  2.8156
  120OSM    C6F12723   0.441   0.963   9.522  0.6497  0.4884  0.1667
  120OSM    H6F12724   0.519   1.037   9.493 -0.4053  1.6278  0.1168
  120OSM    H6G12725   0.344   1.018   9.523  1.1427  1.3793  0.8851
  120OSM    C7F12726   0.449   0.850   9.418  0.1447 -0.3077  0.3031
  120OSM    H7F12727   0.368   0.775   9.422 -0.8279  0.7289  0.4342
  120OSM    H7G12728   0.540   0.794   9.450  0.6096 -0.0172 -0.4788
  120OSM    C8F12729   0.444   0.895   9.271  0.2488 -0.1770 -0.1014
  120OSM    H8F12730   0.494   0.818   9.209  0.9087  0.0747  0.1117
  120OSM    H8G12731   0.508   0.984   9.256 -1.6206  1.0055 -1.6420
  120OSM    C9F12732   0.304   0.926   9.222 -0.6930 -0.3056 -0.3728
  120OSM    H9F12733   0.234   0.969   9.295 -0.4846  0.3629 -0.5574
  120OSM   C10F12734   0.253   0.907   9.095 -0.7010 -0.7407  0.0950
  120OSM   H10F12735   0.147   0.932   9.081 -0.2333  0.5504 -1.3526
  120OSM   C11F12736   0.324   0.863   8.972  0.0538 -0.5585 -0.0092
  120OSM   H11F12737   0.324   0.753   8.954 -0.2102 -0.4606 -0.6573
  120OSM   H11G12738   0.427   0.906   8.980 -0.5118  0.7676  0.3935
  120OSM   C12F12739   0.268   0.920   8.845 -0.2103  0.0659 -0.6548
  120OSM   H12F12740   0.168   0.878   8.824  0.4423 -1.5650 -0.6274
  120OSM   H12G12741   0.337   0.881   8.767 -0.3287 -0.9665 -0.2534
  120OSM   C13F12742   0.255   1.075   8.842  0.6112 -0.3197 -0.0239
  120OSM   H13F12743   0.172   1.111   8.906  1.3019  1.4322 -0.0816
  120OSM   H13G12744   0.218   1.103   8.741  1.0782 -0.0023 -0.1089
  120OSM   C14F12745   0.385   1.156   8.867  0.0119  0.8287  0.5581
  120OSM   H14F12746   0.419   1.148   8.972  0.4865 -0.6240  0.3130
  120OSM   H14G12747   0.365   1.263   8.844  1.5152  1.1026  0.4645
  120OSM   C15F12748   0.504   1.112   8.776 -0.1642  0.2241 -0.2157
  120OSM   H15F12749   0.488   1.137   8.669  2.7827  2.2797 -0.2987
  120OSM   H15G12750   0.529   1.004   8.774 -1.5637 -0.2271  2.2965
  120OSM   C16F12751   0.630   1.188   8.833  0.3207 -0.1742 -0.1233
  120OSM   H16F12752   0.641   1.152   8.938  0.6425 -1.2243 -0.5090
  120OSM   H16G12753   0.604   1.296   8.827  0.3484 -0.1475  0.2005
  120OSM   C17F12754   0.747   1.151   8.751  0.2371  0.0067 -0.4085
  120OSM   H17F12755   0.721   1.089   8.664 -2.1198  1.4465 -0.8237
  120OSM   H17G12756   0.812   1.081   8.808  1.3966 -1.3039 -3.1898
  120OSM   C18F12757   0.834   1.263   8.705 -0.5845 -0.0391 -0.4138
  120OSM   H18F12758   0.914   1.228   8.636  2.9278  1.0326  2.8061
  120OSM   H18G12759   0.889   1.307   8.790  0.3328 -1.2053 -0.3799
  120OSM   H18H12760   0.769   1.340   8.657 -1.3991 -0.0416  0.6545
  121OSM      N12761   5.453   4.235  10.928  0.1060  0.2655 -0.4129
  121OSM    C1512762   5.480   4.183  11.056 -0.2453 -0.1368  0.0018
  121OSM   H15A12763   5.471   4.077  11.070  3.7729 -0.2719  3.1528
  121OSM   H15B12764   5.413   4.227  11.129  0.0325 -0.8661  0.7117
  121OSM   H15C12765   5.580   4.215  11.081 -0.5177  0.0475  0.9275
  121OSM    C1412766   5.316   4.191  10.893 -0.4344  0.5244 -0.4430
  121OSM   H14A12767   5.309   4.083  10.895  0.7519  0.3845 -2.0421
  121OSM   H14B12768   5.279   4.226  10.798  0.6562  3.6717  0.1975
  121OSM   H14C12769   5.247   4.229  10.967  0.7336 -0.1958  1.0797
  121OSM    C1312770   5.471   4.384  10.933 -0.1400  0.1613 -0.8711
  121OSM   H13A12771   5.565   4.413  10.979  1.0678 -3.1587 -0.9508
  121OSM   H13B12772   5.387   4.424  10.987  0.4762  0.0220  0.2363
  121OSM   H13C12773   5.472   4.416  10.830  2.9557  3.3915 -0.0541
  121OSM    C1212774   5.563   4.171  10.827  0.6165  0.1106  0.3860
  121OSM   H12A12775   5.536   4.206  10.729  1.8149 -1.2216 -0.4509
  121OSM   H12B12776   5.553   4.064  10.817 -0.4750  0.2661 -0.3157
  121OSM    C1112777   5.700   4.212  10.841  0.1523 -0.3357 -0.3703
  121OSM   H11A12778   5.715   4.322  10.848  0.6933 -0.3035 -1.6984
  121OSM   H11B12779   5.760   4.193  10.749  1.8174 -2.4270  1.0549
  121OSM      P12780   5.838   4.015  10.952  0.2717  0.0543 -0.2184
  121OSM    O1312781   5.963   4.021  11.031 -0.1290  0.0764  0.7707
  121OSM    O1412782   5.751   3.897  10.979  0.1265  0.0238 -0.0288
  121OSM    O1112783   5.878   4.009  10.795  0.7809 -0.2206 -0.5901
  121OSM    O1212784   5.753   4.145  10.957 -0.0659  0.0900 -0.2522
  121OSM    C1S12785   5.831   3.907  10.708  0.1032  0.1805 -1.6207
  121OSM    H1S12786   5.722   3.891  10.717  0.3885 -1.5318 -0.8197
  121OSM    H1T12787   5.884   3.816  10.744  2.8754  1.9187 -1.0280
  121OSM     NF12788   5.829   3.798  10.481 -0.3212 -0.2369  0.1962
  121OSM    HNF12789   5.901   3.751  10.431 -0.3155 -0.9166  0.8366
  121OSM    C2S12790   5.867   3.916  10.555 -0.3658  0.0110 -0.0722
  121OSM    H2S12791   5.804   3.999  10.515  0.4255  0.7471  0.1631
  121OSM    C3S12792   6.020   3.958  10.539  0.0526 -0.1378  0.1764
  121OSM    H3S12793   6.077   3.878  10.590 -2.7822 -1.5675  1.2901
  121OSM     O312794   6.062   4.080  10.606  0.4148 -0.3222 -0.0017
  121OSM    HO312795   5.988   4.087  10.667 -1.1771 -3.7269 -1.2632
  121OSM    C4S12796   6.060   3.962  10.394  0.6250  0.2995  0.2525
  121OSM    H4S12797   6.108   3.873  10.351  2.3024  1.7241 -0.9493
  121OSM    C5S12798   6.030   4.063  10.311 -0.4458  0.0853  0.3646
  121OSM    H5S12799   5.963   4.138  10.355 -2.3684 -0.9620 -0.6397
  121OSM    C6S12800   6.060   4.058  10.168  0.4138  0.3282 -0.0879
  121OSM    H6S12801   6.119   4.147  10.136  0.1101  0.2120 -0.9898
  121OSM    H6T12802   5.964   4.055  10.113 -0.0892 -0.7912  0.8044
  121OSM    C7S12803   6.141   3.942  10.103  0.1590  0.0635 -0.0788
  121OSM    H7S12804   6.082   3.848  10.104  0.9421 -0.4423 -0.5895
  121OSM    H7T12805   6.234   3.933  10.162  0.4324  1.2381 -0.3068
  121OSM    C8S12806   6.174   3.968   9.952  0.4094  0.4201 -0.7859
  121OSM    H8S12807   6.090   4.024   9.905 -0.4367 -1.3226 -1.4213
  121OSM    H8T12808   6.190   3.876   9.893  2.7455  0.2009  0.0724
  121OSM    C9S12809   6.292   4.058   9.926  0.1280 -0.5195  0.3854
  121OSM    H9S12810   6.373   3.997   9.881  2.3326  2.0931  0.4994
  121OSM    H9T12811   6.339   4.105  10.016  1.1868 -0.3040 -0.2570
  121OSM   C10S12812   6.272   4.173   9.820  0.3135  0.2429 -0.8181
  121OSM   H10S12813   6.362   4.238   9.819  0.0177  0.6873 -2.6434
  121OSM   H10T12814   6.186   4.234   9.853 -1.2974 -1.4884 -1.5940
  121OSM   C11S12815   6.238   4.119   9.677  0.1702 -0.5466 -0.0468
  121OSM   H11S12816   6.128   4.108   9.674  0.0005  1.0677 -0.3599
  121OSM   H11T12817   6.277   4.018   9.651  0.6747 -0.4265  0.2363
  121OSM   C12S12818   6.275   4.217   9.569  0.1331 -0.1217  0.3767
  121OSM   H12S12819   6.385   4.224   9.555 -0.0779 -1.3861 -2.6426
  121OSM   H12T12820   6.235   4.318   9.589 -1.0820 -0.4587 -0.2392
  121OSM   C13S12821   6.213   4.169   9.432 -0.6699  0.3387  0.3892
  121OSM   H13S12822   6.109   4.140   9.457 -1.2222  1.7718 -0.1568
  121OSM   H13T12823   6.259   4.069   9.415  0.2886  0.6883  0.8799
  121OSM   C14S12824   6.235   4.266   9.322  0.3777  0.4483  0.3495
  121OSM   H14S12825   6.220   4.371   9.357 -0.3541 -0.1554  1.9091
  121OSM   H14T12826   6.159   4.244   9.244  2.8991  0.9068 -2.4636
  121OSM   C15S12827   6.366   4.246   9.239 -0.0189  0.2511 -0.0611
  121OSM   H15S12828   6.390   4.137   9.238  0.9250  0.4579 -0.0510
  121OSM   H15T12829   6.441   4.297   9.303  0.3504 -0.5620  0.1664
  121OSM   C16S12830   6.372   4.313   9.102  0.2563 -0.4995 -0.4557
  121OSM   H16S12831   6.384   4.423   9.112 -1.1780 -0.4580  1.5014
  121OSM   H16T12832   6.268   4.302   9.064 -0.7196  1.2747  1.5137
  121OSM   C17S12833   6.474   4.258   9.003  0.7396 -0.1365  0.5962
  121OSM   H17S12834   6.452   4.151   8.982  1.1082  0.0378 -0.7871
  121OSM   H17T12835   6.576   4.261   9.045  1.6064  0.5981 -1.4431
  121OSM   C18S12836   6.462   4.336   8.868  0.4420 -0.4652 -0.8022
  121OSM   H18S12837   6.467   4.446   8.882 -0.4185 -0.1280 -2.8123
  121OSM   H18T12838   6.364   4.311   8.822 -0.5331 -2.0669  1.9179
  121OSM   H18U12839   6.552   4.305   8.811 -0.5999  0.5241 -3.0966
  121OSM    C1F12840   5.700   3.772  10.455 -0.2290 -0.0630  0.2709
  121OSM     OF12841   5.610   3.816  10.527  0.0911  0.0928  0.2495
  121OSM    C2F12842   5.685   3.694  10.328 -0.2339  0.0076  0.1030
  121OSM    H2F12843   5.623   3.603  10.340  1.6820 -1.2534  0.8897
  121OSM    H2G12844   5.785   3.661  10.295 -0.0575 -0.8552  1.4235
  121OSM    C3F12845   5.615   3.772  10.221  0.4260  0.4573 -0.1656
  121OSM    H3F12846   5.531   3.830  10.265  0.8661  1.4109 -0.5670
  121OSM    H3G12847   5.568   3.696  10.155  0.2179  1.2742 -0.9871
  121OSM    C4F12848   5.711   3.848  10.124  0.5785 -0.5529 -0.2089
  121OSM    H4F12849   5.814   3.846  10.165  0.5529 -1.8429 -0.1662
  121OSM    H4G12850   5.680   3.953  10.103  0.8858 -0.0892  1.5533
  121OSM    C5F12851   5.724   3.782   9.981 -0.2668 -0.0370 -0.9118
  121OSM    H5F12852   5.620   3.769   9.943 -0.2139  2.0530 -1.9310
  121OSM    H5G12853   5.768   3.681   9.996  1.2169  0.7531  0.2311
  121OSM    C6F12854   5.806   3.859   9.879 -0.2541 -0.8897 -0.1707
  121OSM    H6F12855   5.903   3.875   9.929 -0.3296  3.5944 -0.9758
  121OSM    H6G12856   5.764   3.962   9.874 -0.2831 -0.9288 -0.8731
  121OSM    C7F12857   5.807   3.812   9.733 -0.9590  0.4121  0.7298
  121OSM    H7F12858   5.761   3.876   9.654  0.6558  1.3472  0.5191
  121OSM    H7G12859   5.765   3.709   9.738  3.1268 -1.5470 -0.7775
  121OSM    C8F12860   5.961   3.789   9.697  1.0593 -0.0235 -0.1115
  121OSM    H8F12861   5.999   3.725   9.779 -0.6120  1.4659  1.9234
  121OSM    H8G12862   6.010   3.888   9.706 -1.3503  1.2519 -0.2769
  121OSM    C9F12863   5.975   3.722   9.561 -0.4902  0.3760  0.2990
  121OSM    H9F12864   5.992   3.613   9.568  1.6529  0.7023  0.7064
  121OSM   C10F12865   5.952   3.769   9.430 -0.2159 -0.1127  0.0597
  121OSM   H10F12866   5.969   3.705   9.341 -0.0738 -1.0052  0.7093
  121OSM   C11F12867   5.914   3.913   9.410 -0.1866  0.0681  0.4138
  121OSM   H11F12868   5.983   3.971   9.346 -0.6296  0.3090  0.1534
  121OSM   H11G12869   5.910   3.960   9.511 -1.9821  0.5577  0.1426
  121OSM   C12F12870   5.770   3.919   9.357 -0.2556  0.4367  0.6469
  121OSM   H12F12871   5.741   4.025   9.341  0.9944  0.5278 -1.2449
  121OSM   H12G12872   5.695   3.882   9.430 -1.9297  0.6806 -0.8894
  121OSM   C13F12873   5.747   3.861   9.218 -0.4049  0.4524 -0.8925
  121OSM   H13F12874   5.640   3.869   9.190 -0.0712  3.8723 -1.5149
  121OSM   H13G12875   5.777   3.755   9.203  2.0918  0.7563  1.1674
  121OSM   C14F12876   5.815   3.944   9.109  0.0670  0.8040 -0.7057
  121OSM   H14F12877   5.921   3.955   9.142 -0.7093  0.0092  2.3908
  121OSM   H14G12878   5.767   4.044   9.102  1.5995  1.5071 -1.7478
  121OSM   C15F12879   5.818   3.872   8.972 -0.3159  0.1159 -0.2888
  121OSM   H15F12880   5.872   3.775   8.976  1.0970  0.8641 -0.7571
  121OSM   H15G12881   5.871   3.935   8.897  2.3212 -0.6056  0.8628
  121OSM   C16F12882   5.671   3.835   8.921  0.1492  0.4132 -0.1464
  121OSM   H16F12883   5.597   3.911   8.955 -1.1267 -1.6636  1.9635
  121OSM   H16G12884   5.644   3.733   8.955 -1.8940  0.3456 -1.7236
  121OSM   C17F12885   5.656   3.842   8.769 -0.1772 -0.1791  0.6117
  121OSM   H17F12886   5.697   3.747   8.729 -0.5121 -0.3782  0.7385
  121OSM   H17G12887   5.719   3.925   8.729  1.3008 -1.6979 -0.3566
  121OSM   C18F12888   5.514   3.868   8.721  0.0039  0.1313 -0.5915
  121OSM   H18F12889   5.463   3.925   8.802 -0.0479  0.6830 -1.0008
  121OSM   H18G12890   5.451   3.780   8.699 -0.0190  0.6892 -3.0165
  121OSM   H18H12891   5.509   3.929   8.628 -0.3136 -0.3710 -0.9091
  122OSM      N12892   6.035   1.392  10.692 -0.4450  0.2744 -0.2058
  122OSM    C1512893   5.944   1.427  10.809  0.5822 -0.4219  0.0390
  122OSM   H15A12894   5.849   1.380  10.787 -1.2616  2.6354  0.7804
  122OSM   H15B12895   5.930   1.534  10.810 -1.7853 -0.6250  2.6913
  122OSM   H15C12896   5.985   1.398  10.905  0.4651 -1.9696 -0.3553
  122OSM    C1412897   6.158   1.475  10.701 -0.4279 -0.3444  0.3168
  122OSM   H14A12898   6.220   1.446  10.784  3.7430  0.1878 -2.3408
  122OSM   H14B12899   6.133   1.579  10.710  1.1632  0.1728 -0.7986
  122OSM   H14C12900   6.215   1.468  10.609 -0.1377  1.8667  0.2818
  122OSM    C1312901   6.067   1.250  10.690 -0.3354 -0.6939  0.4101
  122OSM   H13A12902   6.109   1.212  10.598  0.1025 -0.3057  0.4488
  122OSM   H13B12903   5.978   1.189  10.698 -0.1945 -0.7563  1.6104
  122OSM   H13C12904   6.129   1.218  10.772  0.9175  1.1264  0.2327
  122OSM    C1212905   5.969   1.429  10.564 -0.8929  1.1041  0.8875
  122OSM   H12A12906   5.892   1.355  10.544 -0.2190  1.1120 -2.1779
  122OSM   H12B12907   6.035   1.425  10.480 -0.0434 -0.1557  1.5871
  122OSM    C1112908   5.890   1.565  10.561  0.1174  0.2618  0.5645
  122OSM   H11A12909   5.804   1.557  10.631 -0.4108  0.3594 -0.0648
  122OSM   H11B12910   5.844   1.581  10.461 -2.5850  0.1027  1.7054
  122OSM      P12911   5.947   1.795  10.688  0.3635 -0.2644 -0.0370
  122OSM    O1312912   5.895   1.744  10.816  0.2324 -0.6907  0.3388
  122OSM    O1412913   6.069   1.872  10.707  0.0577  0.1307 -0.4654
  122OSM    O1112914   5.834   1.886  10.624 -0.4539  0.5537  0.0618
  122OSM    O1212915   5.972   1.679  10.587  0.0346  0.3448  0.3555
  122OSM    C1S12916   5.866   1.989  10.533  0.5487  0.6774  0.0055
  122OSM    H1S12917   5.945   2.053  10.577  0.1390  1.9078 -1.0116
  122OSM    H1T12918   5.779   2.058  10.523 -1.1517 -1.2932  0.3391
  122OSM     NF12919   5.986   2.040  10.321 -0.5495  0.0131 -0.4156
  122OSM    HNF12920   5.936   2.104  10.263 -0.4016  0.6728  0.1852
  122OSM    C2S12921   5.905   1.941  10.389 -0.3249 -0.1659 -0.4382
  122OSM    H2S12922   5.963   1.850  10.414 -0.9400 -0.0823  1.5101
  122OSM    C3S12923   5.780   1.889  10.318 -0.1167  0.4357  0.9642
  122OSM    H3S12924   5.716   1.975  10.291 -1.9447 -0.7463  1.2967
  122OSM     O312925   5.701   1.797  10.387 -0.2896 -0.7261  0.4270
  122OSM    HO312926   5.755   1.766  10.460  0.5569 -0.3642 -0.0314
  122OSM    C4S12927   5.811   1.826  10.184 -0.0294  0.4489  0.0393
  122OSM    H4S12928   5.906   1.769  10.180 -1.2427 -1.6416 -0.6770
  122OSM    C5S12929   5.728   1.827  10.078  0.3747 -0.3036 -0.5799
  122OSM    H5S12930   5.629   1.869  10.101  0.0652 -0.8389 -0.9107
  122OSM    C6S12931   5.749   1.760   9.938  0.1671 -0.4884 -0.2092
  122OSM    H6S12932   5.734   1.848   9.871 -1.1642 -0.7596 -0.3060
  122OSM    H6T12933   5.674   1.682   9.914  1.4935 -1.2719 -2.0484
  122OSM    C7S12934   5.889   1.694   9.913  0.3652 -0.8415 -0.1602
  122OSM    H7S12935   5.895   1.615   9.991  2.0484  0.8986  1.5740
  122OSM    H7T12936   5.974   1.766   9.922  1.3430 -2.0813  0.8353
  122OSM    C8S12937   5.913   1.627   9.775  0.3214  0.1642  0.0736
  122OSM    H8S12938   5.921   1.708   9.699 -0.2405  1.3080  1.1990
  122OSM    H8T12939   5.827   1.565   9.739 -0.3640  1.3846 -0.4745
  122OSM    C9S12940   6.041   1.539   9.760  0.4067 -0.3409 -0.0562
  122OSM    H9S12941   6.047   1.462   9.839  1.2975 -0.8058 -0.5618
  122OSM    H9T12942   6.117   1.617   9.780  1.5447 -1.4824  0.2276
  122OSM   C10S12943   6.063   1.484   9.617 -0.6173  0.5164  0.2042
  122OSM   H10S12944   6.053   1.564   9.541  1.5031  0.3050 -0.3548
  122OSM   H10T12945   5.993   1.401   9.594  1.2038 -0.2817 -2.9638
  122OSM   C11S12946   6.199   1.420   9.600 -0.3712  0.2261  0.2610
  122OSM   H11S12947   6.188   1.323   9.654  0.2930  1.0219  1.8514
  122OSM   H11T12948   6.272   1.484   9.652  0.0796  0.8942 -1.1469
  122OSM   C12S12949   6.237   1.381   9.454  0.2469 -0.8473  0.0195
  122OSM   H12S12950   6.345   1.406   9.444  0.3099 -1.8933 -2.5417
  122OSM   H12T12951   6.185   1.451   9.386 -1.6944 -1.0520  1.2270
  122OSM   C13S12952   6.202   1.234   9.414  0.3221 -0.2806 -0.2177
  122OSM   H13S12953   6.175   1.228   9.307  0.8982 -4.3957 -0.2788
  122OSM   H13T12954   6.108   1.209   9.467  1.0964 -0.2584  1.2213
  122OSM   C14S12955   6.309   1.136   9.436 -0.1998  0.0499 -0.1325
  122OSM   H14S12956   6.265   1.037   9.409 -0.0472  0.3918 -1.7536
  122OSM   H14T12957   6.335   1.112   9.541  1.6748 -1.0370 -0.7973
  122OSM   C15S12958   6.438   1.167   9.356 -0.1716  0.0919 -0.6312
  122OSM   H15S12959   6.488   1.256   9.401 -1.8532  0.2625  0.9925
  122OSM   H15T12960   6.404   1.200   9.255 -0.6390 -0.1622 -0.5570
  122OSM   C16S12961   6.524   1.040   9.331  0.5203 -0.1736  0.0367
  122OSM   H16S12962   6.453   0.972   9.280  0.3507  0.2007 -0.2303
  122OSM   H16T12963   6.537   0.997   9.432 -0.9653  0.1296  0.3707
  122OSM   C17S12964   6.654   1.064   9.255 -0.1351 -0.2136  0.0414
  122OSM   H17S12965   6.708   0.967   9.252 -1.6004 -1.0621  0.2920
  122OSM   H17T12966   6.719   1.132   9.314 -0.1697  0.5328 -0.7509
  122OSM   C18S12967   6.636   1.121   9.111  1.1547 -0.1025 -0.0482
  122OSM   H18S12968   6.613   1.230   9.114 -1.6550 -0.5074 -2.2986
  122OSM   H18T12969   6.543   1.079   9.066  0.1729  0.8851  0.9930
  122OSM   H18U12970   6.729   1.093   9.057  1.8078 -0.6350  1.3237
  122OSM    C1F12971   6.112   2.059  10.354  0.0281 -0.3210 -0.0673
  122OSM     OF12972   6.167   1.986  10.436 -0.4510  0.1397  0.7229
  122OSM    C2F12973   6.191   2.149  10.258 -0.3214 -0.0690 -0.6982
  122OSM    H2F12974   6.278   2.187  10.316 -0.5052  1.6551 -1.4947
  122OSM    H2G12975   6.125   2.228  10.218  0.6396  1.2444  0.2113
  122OSM    C3F12976   6.234   2.091  10.124  0.9445  0.5543 -0.0491
  122OSM    H3F12977   6.261   1.983  10.129  0.8658  0.3487 -2.7298
  122OSM    H3G12978   6.320   2.154  10.094  2.1646 -1.0927 -0.1573
  122OSM    C4F12979   6.117   2.088  10.022  0.2144 -0.1351  0.6162
  122OSM    H4F12980   6.069   2.188  10.017 -0.0520 -0.3421 -1.5243
  122OSM    H4G12981   6.049   2.005  10.048  0.2063  0.5118  2.9842
  122OSM    C5F12982   6.162   2.050   9.882 -0.1123  0.1223 -0.0132
  122OSM    H5F12983   6.197   1.945   9.870  1.7688  0.8630 -1.4801
  122OSM    H5G12984   6.242   2.123   9.857  0.4882 -1.3516 -2.8141
  122OSM    C6F12985   6.056   2.073   9.772 -0.1376  0.4820 -0.5665
  122OSM    H6F12986   6.021   2.179   9.767 -3.1684 -0.2886  1.5151
  122OSM    H6G12987   5.967   2.011   9.796  0.4291  0.4980  1.7582
  122OSM    C7F12988   6.104   2.034   9.631 -0.3154  0.2709  0.0258
  122OSM    H7F12989   6.153   1.934   9.633  0.1016  0.2835 -3.7514
  122OSM    H7G12990   6.192   2.099   9.617 -1.2587  1.4301 -0.6444
  122OSM    C8F12991   6.003   2.061   9.512 -0.2970 -0.1183  0.3795
  122OSM    H8F12992   5.977   2.166   9.534  3.4493  0.9269  0.5952
  122OSM    H8G12993   5.915   1.995   9.524 -0.0832 -1.0864 -2.5287
  122OSM    C9F12994   6.066   2.048   9.378  0.1119 -0.3531  0.4151
  122OSM    H9F12995   6.160   2.101   9.356 -0.9715  1.7304  0.5286
  122OSM   C10F12996   6.007   1.983   9.278  0.1102 -0.0130  0.4049
  122OSM   H10F12997   6.058   1.952   9.185 -0.8327 -0.6077  0.0670
  122OSM   C11F12998   5.874   1.910   9.284  0.5568 -0.2544 -0.4807
  122OSM   H11F12999   5.814   1.909   9.191 -2.2479  0.5634  1.2174
  122OSM   H11G13000   5.803   1.955   9.356 -0.3939 -0.9013 -1.0019
  122OSM   C12F13001   5.904   1.770   9.333  0.7735 -0.2274  1.5320
  122OSM   H12F13002   5.801   1.731   9.350 -0.4069  1.5779 -0.8861
  122OSM   H12G13003   5.962   1.755   9.426  1.2247  0.8824  1.4398
  122OSM   C13F13004   5.982   1.690   9.231 -0.8070 -0.3351  0.4879
  122OSM   H13F13005   6.004   1.588   9.271  0.7033 -0.5248 -0.7341
  122OSM   H13G13006   6.084   1.728   9.210 -1.2468 -0.9434 -3.4546
  122OSM   C14F13007   5.906   1.658   9.099  0.8681  0.4004 -0.1776
  122OSM   H14F13008   5.902   1.745   9.031  1.5018 -1.8817 -3.3738
  122OSM   H14G13009   5.801   1.656   9.137  1.0296 -0.6526  0.2621
  122OSM   C15F13010   5.927   1.530   9.015  0.2164  0.2997  0.5732
  122OSM   H15F13011   5.889   1.447   9.078 -2.1043 -1.0686 -2.3957
  122OSM   H15G13012   6.037   1.518   9.003  0.0211  0.8529 -2.5899
  122OSM   C16F13013   5.862   1.530   8.880 -0.5334 -0.1067  0.2985
  122OSM   H16F13014   5.773   1.597   8.886  0.2334  1.4342 -3.1920
  122OSM   H16G13015   5.824   1.427   8.863 -0.2253 -0.1663 -0.0104
  122OSM   C17F13016   5.950   1.585   8.768  0.3395  0.4763  0.4243
  122OSM   H17F13017   6.015   1.665   8.810  1.8147 -1.4434  2.0169
  122OSM   H17G13018   5.894   1.630   8.684  0.9977 -1.4412 -1.1148
  122OSM   C18F13019   6.036   1.473   8.707  0.2116 -0.3330 -0.3550
  122OSM   H18F13020   5.968   1.394   8.672  1.0713  0.2163 -3.5328
  122OSM   H18G13021   6.104   1.431   8.784 -0.6444  0.7269  1.0515
  122OSM   H18H13022   6.095   1.505   8.618  0.4765 -1.7386 -0.6973
  123OSM      N13023   4.790   0.240   5.914 -0.1269 -0.1932 -0.6148
  123OSM    C1513024   4.833   0.333   5.807  0.3375 -0.5276  0.0429
  123OSM   H15A13025   4.940   0.326   5.802  0.2608 -3.0752  0.3521
  123OSM   H15B13026   4.809   0.435   5.832 -1.0760 -0.7933 -0.1360
  123OSM   H15C13027   4.804   0.313   5.705  2.3979 -1.0409 -0.4734
  123OSM    C1413028   4.851   0.289   6.040 -0.7895  0.6893 -0.4045
  123OSM   H14A13029   4.956   0.308   6.026 -0.9003  0.3482 -1.9677
  123OSM   H14B13030   4.859   0.210   6.113  1.1529  1.9477  0.8278
  123OSM   H14C13031   4.794   0.369   6.084 -0.5229 -0.2460  1.7466
  123OSM    C1313032   4.646   0.250   5.921 -0.1330  0.9327 -0.0095
  123OSM   H13A13033   4.611   0.352   5.927 -1.4129  0.4687  0.8999
  123OSM   H13B13034   4.610   0.208   6.013  2.5740  1.6071  1.4616
  123OSM   H13C13035   4.591   0.192   5.848  1.3057 -2.3004  1.2554
  123OSM    C1213036   4.828   0.097   5.879  0.3367  0.4252 -0.2085
  123OSM   H12A13037   4.936   0.097   5.879  0.4476 -0.9665 -2.9229
  123OSM   H12B13038   4.796   0.080   5.777  1.8493 -1.7136 -0.3974
  123OSM    C1113039   4.770  -0.010   5.981 -0.1578  0.3930  0.8793
  123OSM   H11A13040   4.798  -0.110   5.942 -1.2778  0.9306 -1.4801
  123OSM   H11B13041   4.659  -0.013   5.984 -0.3587 -1.6116 -2.4938
  123OSM      P13042   4.959  -0.042   6.163 -0.1951  0.4874  0.2251
  123OSM    O1313043   4.950  -0.158   6.253  0.0244  0.2865 -0.1325
  123OSM    O1413044   5.032  -0.062   6.035 -0.3896  0.7257 -0.4737
  123OSM    O1113045   5.026   0.073   6.236 -0.9768  0.4933 -0.0029
  123OSM    O1213046   4.812   0.001   6.120 -0.1136 -0.2500  0.1718
  123OSM    C1S13047   4.952   0.151   6.335  0.4685 -0.9770  0.0290
  123OSM    H1S13048   4.842   0.135   6.332  0.3113  0.0976 -0.6251
  123OSM    H1T13049   4.959   0.261   6.321 -3.1210 -0.7099 -0.5492
  123OSM     NF13050   4.943   0.214   6.570 -0.2030  0.4335  0.0182
  123OSM    HNF13051   4.986   0.287   6.622  0.7705  0.0365 -0.2145
  123OSM    C2S13052   5.019   0.137   6.474  0.1133 -0.8256 -0.4379
  123OSM    H2S13053   5.015   0.029   6.499  0.6479 -0.6893  0.2672
  123OSM    C3S13054   5.165   0.187   6.477 -0.3238  0.0016  0.1676
  123OSM    H3S13055   5.164   0.293   6.444  1.1726  0.2351  0.7635
  123OSM     O313056   5.242   0.131   6.370  0.1414  0.6981  0.4922
  123OSM    HO313057   5.180   0.086   6.311  1.5717  0.8593 -1.2114
  123OSM    C4S13058   5.234   0.181   6.609 -0.1041 -0.2410  0.3447
  123OSM    H4S13059   5.233   0.076   6.642 -1.3613 -1.4718 -3.1902
  123OSM    C5S13060   5.299   0.277   6.684 -0.1733  0.3536 -0.6122
  123OSM    H5S13061   5.293   0.384   6.657  0.5727  0.7986  0.8560
  123OSM    C6S13062   5.381   0.253   6.809 -0.5628 -0.0534 -0.4974
  123OSM    H6S13063   5.380   0.144   6.833 -0.6847 -0.1836 -1.0597
  123OSM    H6T13064   5.333   0.317   6.886 -1.3479  0.4147 -1.3514
  123OSM    C7S13065   5.525   0.305   6.797  0.1641  0.3569  0.1604
  123OSM    H7S13066   5.525   0.416   6.786  1.5880  0.2125 -1.9184
  123OSM    H7T13067   5.570   0.258   6.707 -0.8382  0.7887 -0.5821
  123OSM    C8S13068   5.612   0.283   6.926  0.4997 -0.1422 -0.4930
  123OSM    H8S13069   5.716   0.247   6.913  0.5754 -0.1701  0.1322
  123OSM    H8T13070   5.574   0.191   6.973 -0.5304  0.1256 -0.7843
  123OSM    C9S13071   5.601   0.404   7.024  0.6149 -0.0966 -0.3968
  123OSM    H9S13072   5.495   0.426   7.050  0.8747 -0.4945  1.1178
  123OSM    H9T13073   5.630   0.498   6.972  0.6961  0.4230  0.5517
  123OSM   C10S13074   5.680   0.391   7.153  0.1754  0.1459  0.2459
  123OSM   H10S13075   5.785   0.382   7.119  0.9689  2.3254  1.8759
  123OSM   H10T13076   5.661   0.294   7.202 -1.1338 -0.5809 -1.5945
  123OSM   C11S13077   5.647   0.493   7.259 -0.9587 -0.0918 -0.2993
  123OSM   H11S13078   5.540   0.489   7.288 -0.8830  1.2190  0.2487
  123OSM   H11T13079   5.669   0.593   7.215  1.1977 -1.0234 -1.4836
  123OSM   C12S13080   5.732   0.493   7.388  0.0888  0.3503  0.6668
  123OSM   H12S13081   5.764   0.597   7.411  0.3367  0.4624 -0.1360
  123OSM   H12T13082   5.833   0.451   7.366  0.1128  0.8974 -0.3304
  123OSM   C13S13083   5.663   0.442   7.511  0.1354 -0.5028  0.5006
  123OSM   H13S13084   5.626   0.338   7.505 -1.4020 -0.0028  0.9026
  123OSM   H13T13085   5.573   0.506   7.525  1.0942  0.9245  0.4041
  123OSM   C14S13086   5.747   0.460   7.636  0.4613 -0.2390 -0.6691
  123OSM   H14S13087   5.787   0.562   7.654 -0.1078 -0.0366 -0.5394
  123OSM   H14T13088   5.842   0.403   7.637  1.4073  1.3156  0.5254
  123OSM   C15S13089   5.659   0.413   7.760 -0.6748  0.3339 -1.2814
  123OSM   H15S13090   5.613   0.313   7.743 -0.2821  0.1400 -1.2354
  123OSM   H15T13091   5.572   0.480   7.775 -0.4108  0.8153 -1.8544
  123OSM   C16S13092   5.733   0.407   7.895 -0.5745 -0.4478 -0.5631
  123OSM   H16S13093   5.816   0.333   7.888  0.7356  1.1558 -3.2490
  123OSM   H16T13094   5.673   0.377   7.983  0.4799 -0.9646 -0.0002
  123OSM   C17S13095   5.801   0.538   7.938 -0.1796 -1.1070  0.5320
  123OSM   H17S13096   5.728   0.621   7.929  0.0930 -0.7628  1.4318
  123OSM   H17T13097   5.873   0.560   7.855 -2.2318  1.2875 -0.7665
  123OSM   C18S13098   5.865   0.548   8.077  0.2359  0.1983  0.3708
  123OSM   H18S13099   5.837   0.471   8.151 -1.3233  0.8912  0.5459
  123OSM   H18T13100   5.829   0.645   8.119  0.0158  0.4114 -0.2820
  123OSM   H18U13101   5.975   0.563   8.069  0.0477  0.6235 -3.3984
  123OSM    C1F13102   4.819   0.195   6.581  0.2104 -0.2824 -0.1035
  123OSM     OF13103   4.772   0.084   6.564  0.4958  0.2839 -0.2576
  123OSM    C2F13104   4.746   0.317   6.617 -0.4413 -0.0084 -0.0989
  123OSM    H2F13105   4.677   0.341   6.533  0.4838 -1.0833 -1.1986
  123OSM    H2G13106   4.815   0.403   6.631 -1.3374  0.5949  0.7715
  123OSM    C3F13107   4.667   0.298   6.742  0.7433 -0.0603 -0.3633
  123OSM    H3F13108   4.607   0.204   6.749 -0.1717  0.5757  0.8797
  123OSM    H3G13109   4.602   0.388   6.738  2.2780  1.0389 -1.5607
  123OSM    C4F13110   4.759   0.318   6.857 -0.2115  0.5431  0.0046
  123OSM    H4F13111   4.831   0.400   6.837  1.7865 -1.2725 -0.6688
  123OSM    H4G13112   4.830   0.233   6.867  2.3597  2.2671 -2.2116
  123OSM    C5F13113   4.696   0.342   6.994  0.6508 -0.6705  0.1165
  123OSM    H5F13114   4.611   0.411   7.013  0.7088 -0.4708 -0.3335
  123OSM    H5G13115   4.781   0.375   7.059 -1.3990  0.3557  2.4462
  123OSM    C6F13116   4.637   0.215   7.055  0.3502  0.0860 -0.5502
  123OSM    H6F13117   4.718   0.139   7.054  1.2403  1.0055 -0.0681
  123OSM    H6G13118   4.555   0.173   6.992 -0.1743 -2.0067  1.3904
  123OSM    C7F13119   4.587   0.220   7.200 -1.1105  0.1905  0.3417
  123OSM    H7F13120   4.538   0.316   7.226 -0.9787  0.5207 -0.5853
  123OSM    H7G13121   4.682   0.221   7.258 -0.7536  0.5976 -0.2424
  123OSM    C8F13122   4.497   0.105   7.239  0.1768  0.0217 -0.4554
  123OSM    H8F13123   4.556   0.014   7.262 -0.9113 -0.3844  0.8452
  123OSM    H8G13124   4.425   0.095   7.155 -1.8991 -0.7046  1.3075
  123OSM    C9F13125   4.417   0.141   7.362  0.4101  0.4820 -0.2725
  123OSM    H9F13126   4.335   0.206   7.327  1.0995  0.6252 -1.6889
  123OSM   C10F13127   4.427   0.105   7.493  0.0468 -0.6573 -0.5715
  123OSM   H10F13128   4.355   0.142   7.567  0.9110 -0.3050  0.1028
  123OSM   C11F13129   4.529   0.003   7.545  0.1604  0.6130 -0.6398
  123OSM   H11F13130   4.629   0.049   7.564  1.3634 -1.9328 -0.3125
  123OSM   H11G13131   4.531  -0.080   7.471 -1.4308 -1.4473  1.4782
  123OSM   C12F13132   4.506  -0.046   7.683  0.8780  0.6042  0.6156
  123OSM   H12F13133   4.579  -0.119   7.724 -0.5750 -1.8870 -1.0014
  123OSM   H12G13134   4.408  -0.097   7.674  2.1643 -1.6965 -1.5840
  123OSM   C13F13135   4.515   0.066   7.784  0.1671 -0.5197  0.0736
  123OSM   H13F13136   4.437   0.144   7.774  0.5999 -0.1740 -0.6982
  123OSM   H13G13137   4.610   0.120   7.765  0.3781 -0.4476  1.2886
  123OSM   C14F13138   4.500   0.017   7.928  0.3392 -0.6157 -0.3287
  123OSM   H14F13139   4.579  -0.058   7.950 -1.2316 -2.1027  0.5181
  123OSM   H14G13140   4.404  -0.039   7.939 -1.1477  1.7577 -0.5146
  123OSM   C15F13141   4.503   0.134   8.023 -0.1015  0.1320  0.4451
  123OSM   H15F13142   4.406   0.185   8.002 -0.4258  0.2195  2.0133
  123OSM   H15G13143   4.581   0.206   7.990 -0.3928  0.1154 -0.2963
  123OSM   C16F13144   4.538   0.095   8.170  0.3071  0.5985 -0.5032
  123OSM   H16F13145   4.618   0.018   8.170 -0.5556 -0.3144 -1.2196
  123OSM   H16G13146   4.443   0.065   8.219  0.3269  2.9438  1.1726
  123OSM   C17F13147   4.590   0.220   8.252 -0.9026 -0.1778  0.3440
  123OSM   H17F13148   4.510   0.296   8.263 -0.8894 -0.5359  4.8067
  123OSM   H17G13149   4.675   0.260   8.193  1.2716 -1.6917  2.2660
  123OSM   C18F13150   4.637   0.190   8.391 -0.6840  0.2261  0.5591
  123OSM   H18F13151   4.731   0.131   8.385 -1.5520 -1.0987 -1.0105
  123OSM   H18G13152   4.564   0.124   8.443  0.4543  0.4680  2.5726
  123OSM   H18H13153   4.657   0.280   8.452  2.4516  0.0634 -0.0719
  124OSM      N13154   0.937   4.296   6.598  0.4920 -0.1569 -0.0992
  124OSM    C1513155   0.965   4.149   6.598 -0.0502 -1.0016  0.0463
  124OSM   H15A13156   0.873   4.096   6.575 -1.4939  0.5702  1.8218
  124OSM   H15B13157   1.011   4.115   6.689  1.6413 -1.5872 -0.9886
  124OSM   H15C13158   1.032   4.138   6.514 -0.7326 -0.2052 -0.6323
  124OSM    C1413159   0.804   4.316   6.676 -0.4851 -0.1944  0.0823
  124OSM   H14A13160   0.811   4.271   6.774 -2.2902  1.5628  1.0953
  124OSM   H14B13161   0.726   4.285   6.609 -0.3458 -1.1104  0.3354
  124OSM   H14C13162   0.786   4.421   6.694 -0.8382  0.1080 -1.8514
  124OSM    C1313163   1.044   4.380   6.667 -0.0814 -0.2700 -0.4895
  124OSM   H13A13164   1.034   4.361   6.773 -1.4594 -2.3231 -0.9257
  124OSM   H13B13165   1.035   4.487   6.650 -1.4347 -0.4457 -1.0204
  124OSM   H13C13166   1.138   4.347   6.628  1.3352  2.5197  0.2756
  124OSM    C1213167   0.931   4.348   6.458  0.5855 -0.6679  0.2852
  124OSM   H12A13168   0.848   4.303   6.404 -1.2519 -0.7274  2.9627
  124OSM   H12B13169   1.027   4.315   6.422  1.6017 -1.8712  3.7001
  124OSM    C1113170   0.920   4.502   6.423  0.0989  0.0699 -0.3180
  124OSM   H11A13171   0.833   4.546   6.476  0.5483  0.1369  0.3948
  124OSM   H11B13172   0.895   4.501   6.315  2.8822  0.8655 -1.0615
  124OSM      P13173   1.179   4.586   6.391  0.3767  0.1970  0.3203
  124OSM    O1313174   1.210   4.445   6.359  0.1504  0.0027  0.2838
  124OSM    O1413175   1.182   4.687   6.281 -0.1810 -0.2516 -0.1056
  124OSM    O1113176   1.279   4.639   6.494  1.1562 -0.2323  0.2501
  124OSM    O1213177   1.027   4.593   6.451  0.1108 -0.0835  0.2691
  124OSM    C1S13178   1.233   4.676   6.625 -0.1952  0.5516  0.8474
  124OSM    H1S13179   1.240   4.591   6.696 -0.1199  1.4694  1.9528
  124OSM    H1T13180   1.133   4.722   6.639 -0.0967  1.0423  0.0121
  124OSM     NF13181   1.319   4.791   6.814 -0.0630  0.0338  0.4533
  124OSM    HNF13182   1.256   4.861   6.847 -0.6892  0.2713 -1.1911
  124OSM    C2S13183   1.335   4.785   6.671  0.2269  0.4746 -0.0647
  124OSM    H2S13184   1.442   4.758   6.655 -0.3502 -0.6827 -2.4966
  124OSM    C3S13185   1.314   4.922   6.596 -0.4446 -0.0756 -0.4855
  124OSM    H3S13186   1.211   4.962   6.604 -0.1403  1.0795 -1.9621
  124OSM     O313187   1.333   4.918   6.461 -0.2508  0.0208 -0.6123
  124OSM    HO313188   1.297   4.832   6.437 -0.6818 -0.6991  2.2376
  124OSM    C4S13189   1.420   5.012   6.656  0.9640  0.2926  0.2872
  124OSM    H4S13190   1.518   5.001   6.608  0.2865  1.7358 -1.5864
  124OSM    C5S13191   1.397   5.113   6.745  0.2674 -0.6464  0.2687
  124OSM    H5S13192   1.294   5.129   6.778  0.1765 -2.1226  0.7557
  124OSM    C6S13193   1.508   5.203   6.803 -0.3421 -0.0861 -0.0652
  124OSM    H6S13194   1.475   5.306   6.828  0.1058 -0.0357  0.3422
  124OSM    H6T13195   1.589   5.225   6.731 -0.3451  2.3977  0.6001
  124OSM    C7S13196   1.562   5.135   6.926 -0.1676  0.1225 -0.2307
  124OSM    H7S13197   1.638   5.202   6.973 -0.2500  0.2518 -0.2791
  124OSM    H7T13198   1.601   5.032   6.918 -2.4122 -0.8269  0.3822
  124OSM    C8S13199   1.464   5.131   7.042 -0.7866  0.1912 -0.4973
  124OSM    H8S13200   1.387   5.056   7.015  2.3574 -2.6388 -2.2373
  124OSM    H8T13201   1.423   5.232   7.065 -0.3790  0.1920  0.2674
  124OSM    C9S13202   1.526   5.076   7.175 -0.0455  0.5387  0.2628
  124OSM    H9S13203   1.599   5.152   7.211  2.3702 -1.0966 -0.8591
  124OSM    H9T13204   1.571   4.977   7.152  0.1263  1.1942 -2.5282
  124OSM   C10S13205   1.432   5.053   7.293  0.4233  0.5637 -0.4364
  124OSM   H10S13206   1.342   4.993   7.265  1.2576 -1.0318  0.1352
  124OSM   H10T13207   1.390   5.149   7.330 -3.5847 -1.6778  1.5324
  124OSM   C11S13208   1.489   4.975   7.421  0.0062 -0.0946  0.0324
  124OSM   H11S13209   1.599   4.965   7.409  0.3345  2.2850  0.5884
  124OSM   H11T13210   1.452   4.871   7.415  2.6821 -1.0547 -3.9400
  124OSM   C12S13211   1.446   5.054   7.547  0.6717  0.7852  0.2095
  124OSM   H12S13212   1.336   5.044   7.558  0.4338  1.5894 -1.1706
  124OSM   H12T13213   1.491   5.156   7.536  1.8082  0.2085 -0.6958
  124OSM   C13S13214   1.505   4.989   7.679  0.1911 -0.1852  0.0587
  124OSM   H13S13215   1.615   4.991   7.664  0.1857  1.9784  0.0355
  124OSM   H13T13216   1.478   4.883   7.694 -1.9893  0.3287  0.1345
  124OSM   C14S13217   1.460   5.075   7.804  0.4489 -0.4277  0.3889
  124OSM   H14S13218   1.350   5.073   7.819  0.4935 -2.5656  0.6447
  124OSM   H14T13219   1.496   5.180   7.792  0.7250 -0.7094 -1.5651
  124OSM   C15S13220   1.517   5.008   7.928  0.1835  0.4021 -0.3523
  124OSM   H15S13221   1.552   5.085   8.000  2.2894 -0.0574 -0.8050
  124OSM   H15T13222   1.616   4.974   7.891  0.7464  0.8091  0.7222
  124OSM   C16S13223   1.439   4.884   7.983 -0.4753 -0.0259  0.0691
  124OSM   H16S13224   1.403   4.824   7.897  1.3557 -0.8750 -0.1634
  124OSM   H16T13225   1.350   4.920   8.039 -1.0092 -1.0302 -0.1168
  124OSM   C17S13226   1.521   4.803   8.087 -0.5425  0.2346 -0.1311
  124OSM   H17S13227   1.574   4.867   8.161  0.1823 -2.1859  1.5968
  124OSM   H17T13228   1.609   4.751   8.043  1.3209 -0.0261  3.5149
  124OSM   C18S13229   1.425   4.716   8.166  0.3453 -0.2957 -0.1479
  124OSM   H18S13230   1.341   4.769   8.217  0.4919 -1.1716  1.0396
  124OSM   H18T13231   1.477   4.651   8.240  2.0215  2.0923  0.9365
  124OSM   H18U13232   1.376   4.645   8.097 -0.6585  1.0880 -0.9172
  124OSM    C1F13233   1.355   4.694   6.904  0.9455  0.0718  0.3806
  124OSM     OF13234   1.386   4.585   6.861  0.2495  0.3330 -0.4027
  124OSM    C2F13235   1.344   4.729   7.043  0.1009 -0.4277  1.0587
  124OSM    H2F13236   1.262   4.803   7.047  0.0099 -0.5812  2.2724
  124OSM    H2G13237   1.443   4.765   7.078 -0.1862  0.7993  0.6606
  124OSM    C3F13238   1.295   4.607   7.128  0.0549 -0.4093  0.1296
  124OSM    H3F13239   1.377   4.533   7.117 -0.3485 -0.7729 -0.5112
  124OSM    H3G13240   1.197   4.573   7.089  0.0076  0.3176 -0.4006
  124OSM    C4F13241   1.288   4.632   7.277  0.8993 -0.1964 -0.5723
  124OSM    H4F13242   1.226   4.722   7.298 -1.0962 -1.9762  1.6337
  124OSM    H4G13243   1.387   4.634   7.327  0.3647 -1.1297  0.5618
  124OSM    C5F13244   1.225   4.513   7.348 -0.1332  0.0650 -0.3393
  124OSM    H5F13245   1.277   4.424   7.306 -0.9202  0.5601 -2.5187
  124OSM    H5G13246   1.119   4.501   7.316 -0.0200  0.3258 -0.8271
  124OSM    C6F13247   1.238   4.514   7.503 -0.6328  0.1888 -0.2265
  124OSM    H6F13248   1.205   4.611   7.547  0.5101 -0.0405  1.2267
  124OSM    H6G13249   1.344   4.495   7.530 -0.9469 -0.3413  0.6793
  124OSM    C7F13250   1.158   4.405   7.564 -0.1964 -0.8007 -0.1255
  124OSM    H7F13251   1.197   4.307   7.531  0.8709 -0.1030 -1.0318
  124OSM    H7G13252   1.061   4.414   7.512 -1.2113 -2.5455  1.3441
  124OSM    C8F13253   1.134   4.419   7.719 -0.4930  0.2779  0.7390
  124OSM    H8F13254   1.102   4.316   7.743  1.0018  0.2595  2.9580
  124OSM    H8G13255   1.047   4.486   7.735 -1.2715 -0.6663  0.5295
  124OSM    C9F13256   1.255   4.445   7.801  0.4199  0.1388 -0.2569
  124OSM    H9F13257   1.287   4.550   7.809  1.4040 -0.2433  1.2954
  124OSM   C10F13258   1.302   4.372   7.906 -0.4192  0.5027  0.1008
  124OSM   H10F13259   1.380   4.414   7.972 -0.7101  0.4143  0.5084
  124OSM   C11F13260   1.251   4.249   7.975 -0.2127  0.4312  0.3028
  124OSM   H11F13261   1.341   4.203   8.018 -0.8087 -1.3851 -0.3127
  124OSM   H11G13262   1.220   4.179   7.894  1.8401  0.4614 -0.5628
  124OSM   C12F13263   1.155   4.272   8.088 -0.2414  0.7355  0.2697
  124OSM   H12F13264   1.115   4.176   8.128  0.1056 -0.1424 -1.3623
  124OSM   H12G13265   1.074   4.339   8.054 -0.1440  0.6639 -0.1094
  124OSM   C13F13266   1.206   4.357   8.207 -0.1925  1.1313 -0.0264
  124OSM   H13F13267   1.128   4.383   8.282  1.7900  0.0733  2.5697
  124OSM   H13G13268   1.254   4.452   8.175 -0.6550  1.5436  0.4915
  124OSM   C14F13269   1.335   4.290   8.276 -0.2692  0.4978 -0.4624
  124OSM   H14F13270   1.377   4.365   8.346  1.8488 -0.3002 -0.8027
  124OSM   H14G13271   1.416   4.270   8.203 -0.6547  1.1768 -1.0837
  124OSM   C15F13272   1.317   4.152   8.356 -0.7320  0.3776 -0.3424
  124OSM   H15F13273   1.420   4.116   8.376 -0.7172  0.8575  0.4892
  124OSM   H15G13274   1.264   4.081   8.289  1.7911 -0.2071 -1.8766
  124OSM   C16F13275   1.246   4.168   8.487 -0.4460 -0.2252  0.0206
  124OSM   H16F13276   1.202   4.072   8.520  0.6771 -1.4217 -1.7680
  124OSM   H16G13277   1.160   4.238   8.489 -0.6107 -0.4327  0.1519
  124OSM   C17F13278   1.342   4.227   8.593 -0.3750 -0.1283  0.2847
  124OSM   H17F13279   1.386   4.321   8.555 -1.1623  0.9225  1.8469
  124OSM   H17G13280   1.418   4.150   8.621  2.0087  1.7019 -0.8778
  124OSM   C18F13281   1.271   4.260   8.726  0.0283 -0.4911  0.3084
  124OSM   H18F13282   1.350   4.263   8.804  0.2855  2.6577  0.0705
  124OSM   H18G13283   1.191   4.185   8.744 -0.5279  0.0890  0.2915
  124OSM   H18H13284   1.227   4.362   8.725  0.4208 -0.2538  2.3798
  125OSM      N13285   1.212   6.313   6.106 -0.1520 -0.2102  0.1933
  125OSM    C1513286   1.161   6.175   6.086  0.3543  0.1264  0.1269
  125OSM   H15A13287   1.206   6.109   6.158 -0.9040  0.0325  0.8401
  125OSM   H15B13288   1.170   6.142   5.983 -0.8240  1.9490 -0.6052
  125OSM   H15C13289   1.054   6.178   6.097  0.1598 -2.9548 -0.0421
  125OSM    C1413290   1.351   6.311   6.061  0.1513 -0.3223  0.2935
  125OSM   H14A13291   1.398   6.407   6.079 -0.2377  0.0068 -0.4282
  125OSM   H14B13292   1.356   6.292   5.955 -0.0092 -0.3409  0.2893
  125OSM   H14C13293   1.412   6.229   6.096  1.4492  0.5330  0.0583
  125OSM    C1313294   1.128   6.403   6.023  0.2162 -0.7701 -0.1611
  125OSM   H13A13295   1.026   6.395   6.059  0.2232 -0.9125 -0.1735
  125OSM   H13B13296   1.116   6.363   5.924  0.0519  0.3613 -0.6120
  125OSM   H13C13297   1.164   6.505   6.020 -0.4477 -0.5534 -0.9271
  125OSM    C1213298   1.211   6.357   6.250 -0.4252  0.2008  0.0609
  125OSM   H12A13299   1.111   6.390   6.273 -1.5179 -2.4798 -0.5138
  125OSM   H12B13300   1.282   6.438   6.261  0.6871 -0.5317 -1.3577
  125OSM    C1113301   1.266   6.248   6.351 -0.2388 -0.2894  0.1442
  125OSM   H11A13302   1.193   6.164   6.354  0.8325 -1.2172  1.6551
  125OSM   H11B13303   1.264   6.301   6.448  1.2840  0.3573 -0.1489
  125OSM      P13304   1.459   6.066   6.330  0.3071 -0.1051 -0.3737
  125OSM    O1313305   1.361   5.973   6.279 -0.5748  0.0313 -0.1710
  125OSM    O1413306   1.591   6.062   6.272 -0.5854  0.6934  0.3655
  125OSM    O1113307   1.477   6.049   6.491  0.2400  0.1591 -0.0319
  125OSM    O1213308   1.408   6.211   6.324 -0.0119  0.3583  0.3412
  125OSM    C1S13309   1.582   6.096   6.564 -0.3553  0.1835  0.4960
  125OSM    H1S13310   1.595   6.206   6.554  2.9241 -0.2628 -1.5686
  125OSM    H1T13311   1.671   6.049   6.517  0.6928  0.8832  1.7148
  125OSM     NF13312   1.682   6.145   6.788 -0.1287  0.1000  0.2044
  125OSM    HNF13313   1.764   6.094   6.812 -1.1503 -0.8724  1.7790
  125OSM    C2S13314   1.584   6.060   6.712  0.4844  0.7906 -0.4907
  125OSM    H2S13315   1.483   6.084   6.753  0.0908 -1.5167  0.0625
  125OSM    C3S13316   1.606   5.905   6.727  0.2553  0.2769 -0.7843
  125OSM    H3S13317   1.695   5.870   6.671 -1.8577 -3.5964 -2.0798
  125OSM     O313318   1.502   5.839   6.658 -0.6255  0.2675  0.8252
  125OSM    HO313319   1.471   5.909   6.599  2.6031 -0.7809 -2.4523
  125OSM    C4S13320   1.609   5.871   6.871 -0.2213  0.3580  0.0784
  125OSM    H4S13321   1.708   5.892   6.915 -0.9934 -0.5917  2.4800
  125OSM    C5S13322   1.508   5.821   6.947  0.0250  0.3891 -0.0072
  125OSM    H5S13323   1.408   5.803   6.906  0.8746 -0.3325 -1.8489
  125OSM    C6S13324   1.518   5.799   7.101  0.4278 -0.5910  0.5617
  125OSM    H6S13325   1.574   5.884   7.146  1.0923 -1.2216  0.9396
  125OSM    H6T13326   1.566   5.702   7.125  0.0928 -0.6911  0.8349
  125OSM    C7S13327   1.378   5.792   7.156  0.7133 -0.0461  0.1062
  125OSM    H7S13328   1.313   5.725   7.096 -1.9802  1.7679  0.8301
  125OSM    H7T13329   1.335   5.893   7.142 -0.3313 -0.6714 -1.3577
  125OSM    C8S13330   1.364   5.760   7.306 -0.4099  0.5623  0.0933
  125OSM    H8S13331   1.389   5.652   7.307 -1.7306  0.2332 -0.0832
  125OSM    H8T13332   1.255   5.767   7.325 -0.4960  3.0871 -1.0347
  125OSM    C9S13333   1.439   5.849   7.399  0.1135 -0.0611 -0.0652
  125OSM    H9S13334   1.403   5.950   7.370 -0.7997 -0.3918 -0.1027
  125OSM    H9T13335   1.549   5.848   7.383 -0.0972 -0.4188 -1.6098
  125OSM   C10S13336   1.398   5.815   7.542  0.2949 -0.1597  0.6697
  125OSM   H10S13337   1.457   5.723   7.564  1.6349  0.1750 -1.2810
  125OSM   H10T13338   1.289   5.792   7.552 -0.5098  2.5971 -0.8961
  125OSM   C11S13339   1.434   5.914   7.649 -0.0068  0.1737  0.0311
  125OSM   H11S13340   1.418   6.015   7.607 -1.7325 -0.1614 -0.1922
  125OSM   H11T13341   1.544   5.900   7.655 -0.0912 -1.7175 -1.6902
  125OSM   C12S13342   1.372   5.891   7.791 -0.3363 -0.1742  0.3478
  125OSM   H12S13343   1.347   5.783   7.799  1.9461 -0.8605 -0.8530
  125OSM   H12T13344   1.280   5.953   7.801 -0.2855 -0.2712  1.6811
  125OSM   C13S13345   1.473   5.920   7.899 -0.8677 -0.2466  0.0974
  125OSM   H13S13346   1.423   5.945   7.995  0.3351  0.3515  0.5791
  125OSM   H13T13347   1.522   6.015   7.866 -1.3453 -0.3189 -0.8611
  125OSM   C14S13348   1.586   5.818   7.942 -0.5626  0.3672  0.6506
  125OSM   H14S13349   1.651   5.795   7.855 -0.8454  0.9679  0.2716
  125OSM   H14T13350   1.536   5.723   7.972 -0.5238  0.4378  0.9391
  125OSM   C15S13351   1.662   5.851   8.078  0.7353 -0.1318  0.2804
  125OSM   H15S13352   1.744   5.777   8.090 -0.7326 -1.9133 -0.1756
  125OSM   H15T13353   1.593   5.837   8.164 -0.1997  3.0603  0.2026
  125OSM   C16S13354   1.722   5.991   8.080  0.1523 -0.1783  0.3157
  125OSM   H16S13355   1.635   6.058   8.067  0.2654 -0.0765  0.0531
  125OSM   H16T13356   1.802   6.006   8.004  0.4533 -0.5486  0.5559
  125OSM   C17S13357   1.787   6.012   8.213 -0.1419 -0.2579  0.0985
  125OSM   H17S13358   1.854   5.925   8.228  0.5452  0.4688  1.5204
  125OSM   H17T13359   1.711   6.016   8.294  0.7064  0.0526  0.8988
  125OSM   C18S13360   1.865   6.146   8.222 -0.0280 -0.0646 -0.4942
  125OSM   H18S13361   1.920   6.158   8.317 -0.4626  2.0451 -0.4643
  125OSM   H18T13362   1.798   6.234   8.213  0.4076  0.2078 -1.1641
  125OSM   H18U13363   1.947   6.143   8.147  1.6808  1.1679  1.2484
  125OSM    C1F13364   1.665   6.274   6.798 -0.6444  0.4879 -0.3958
  125OSM     OF13365   1.552   6.322   6.769 -0.4463 -0.1525 -0.4790
  125OSM    C2F13366   1.778   6.361   6.848  0.6192  0.4230  0.1911
  125OSM    H2F13367   1.808   6.424   6.761  0.8296  1.0687  0.7187
  125OSM    H2G13368   1.871   6.303   6.864  0.2721 -0.5030 -0.9945
  125OSM    C3F13369   1.733   6.446   6.969 -0.0495  0.1312  0.6047
  125OSM    H3F13370   1.655   6.511   6.924  0.6707 -0.3358 -1.4672
  125OSM    H3G13371   1.815   6.513   7.003  0.0901  0.4920 -0.4076
  125OSM    C4F13372   1.689   6.372   7.100 -0.5457 -0.4128 -0.3727
  125OSM    H4F13373   1.779   6.317   7.133  0.8355  1.0549 -1.5281
  125OSM    H4G13374   1.606   6.299   7.092  1.1518 -2.6824  1.5036
  125OSM    C5F13375   1.659   6.466   7.222  0.3768 -0.5257  0.1305
  125OSM    H5F13376   1.644   6.395   7.306 -1.8820 -0.2794 -0.0040
  125OSM    H5G13377   1.560   6.516   7.215 -1.2842 -3.2646  2.2117
  125OSM    C6F13378   1.762   6.565   7.272  0.1566 -0.1543 -0.2200
  125OSM    H6F13379   1.782   6.648   7.200 -0.3257  0.4582  0.3444
  125OSM    H6G13380   1.851   6.503   7.296 -0.1142 -0.3422  0.3051
  125OSM    C7F13381   1.722   6.632   7.409 -0.2740  0.2815  0.0248
  125OSM    H7F13382   1.616   6.603   7.428  0.6811 -2.3469  1.9210
  125OSM    H7G13383   1.724   6.743   7.399 -1.5611  0.2086 -1.4003
  125OSM    C8F13384   1.818   6.592   7.531  0.3813  0.6155  0.7207
  125OSM    H8F13385   1.791   6.664   7.611  0.5373 -0.6156  1.9198
  125OSM    H8G13386   1.924   6.601   7.499 -0.1473  0.9092 -1.0513
  125OSM    C9F13387   1.801   6.457   7.594  0.8934  0.5170  0.7014
  125OSM    H9F13388   1.803   6.377   7.518  1.5977  0.5951  0.6361
  125OSM   C10F13389   1.789   6.423   7.719 -0.0319  0.3724  0.0908
  125OSM   H10F13390   1.791   6.315   7.739  1.8460  0.4148  0.2980
  125OSM   C11F13391   1.790   6.503   7.848  0.2930 -0.5411 -0.0913
  125OSM   H11F13392   1.810   6.612   7.839 -1.6784 -0.0974  0.2548
  125OSM   H11G13393   1.856   6.449   7.920 -0.7479 -0.1620  1.1925
  125OSM   C12F13394   1.638   6.518   7.887  0.0213 -0.1707 -0.0267
  125OSM   H12F13395   1.588   6.419   7.894 -0.0985 -0.0524  0.9441
  125OSM   H12G13396   1.592   6.581   7.808  0.4093 -1.0925 -1.0025
  125OSM   C13F13397   1.624   6.588   8.025 -0.4134  0.1216  0.4428
  125OSM   H13F13398   1.516   6.607   8.036 -0.8449 -2.2607  0.8880
  125OSM   H13G13399   1.685   6.680   8.015 -1.8143  1.0108 -0.1642
  125OSM   C14F13400   1.668   6.500   8.144 -0.0059 -0.4655 -0.3482
  125OSM   H14F13401   1.774   6.467   8.137 -0.5102 -2.0591 -1.2700
  125OSM   H14G13402   1.613   6.403   8.140 -0.6076 -0.0979 -1.4326
  125OSM   C15F13403   1.641   6.566   8.279 -0.0380 -0.2872  0.5408
  125OSM   H15F13404   1.536   6.602   8.274 -0.0795 -0.4425  0.2982
  125OSM   H15G13405   1.708   6.654   8.291 -0.0279 -0.1818 -0.2295
  125OSM   C16F13406   1.650   6.474   8.403 -0.0216 -0.9066  0.2055
  125OSM   H16F13407   1.751   6.428   8.404  1.9652  2.9971 -0.0832
  125OSM   H16G13408   1.580   6.390   8.382  1.8583 -1.8133 -3.2240
  125OSM   C17F13409   1.631   6.556   8.538 -1.3011  0.4632  0.3460
  125OSM   H17F13410   1.539   6.614   8.515 -0.4178  1.5952 -0.4446
  125OSM   H17G13411   1.714   6.628   8.545  0.6184 -1.7290  1.5476
  125OSM   C18F13412   1.625   6.462   8.659 -0.4421 -0.0315  0.5076
  125OSM   H18F13413   1.581   6.364   8.629  2.1097 -0.3771 -2.7425
  125OSM   H18G13414   1.575   6.508   8.746  0.0977 -0.6726  1.1708
  125OSM   H18H13415   1.732   6.455   8.688 -0.0672  2.6755 -0.0030
  126OSM      N13416   6.376   4.968   6.168  0.2388  0.3383 -0.5138
  126OSM    C1513417   6.451   4.876   6.070  0.1344  0.3794 -0.0735
  126OSM   H15A13418   6.456   4.912   5.968  2.8361  2.4103  0.6569
  126OSM   H15B13419   6.416   4.775   6.083  1.5706 -0.1077  0.2139
  126OSM   H15C13420   6.558   4.870   6.082  0.2248 -0.2170 -1.0305
  126OSM    C1413421   6.397   5.107   6.121 -0.6939  0.3778  0.4730
  126OSM   H14A13422   6.339   5.174   6.183  0.7193 -2.0611  4.8638
  126OSM   H14B13423   6.368   5.117   6.017 -0.3623  2.4803  0.5277
  126OSM   H14C13424   6.498   5.142   6.135 -0.9344  0.9238  0.8994
  126OSM    C1313425   6.226   4.934   6.167 -0.2153 -0.2495  0.3253
  126OSM   H13A13426   6.211   4.828   6.184  1.6969 -0.3011  2.0056
  126OSM   H13B13427   6.181   4.966   6.074  0.4150 -2.1331 -0.6902
  126OSM   H13C13428   6.189   4.994   6.249 -0.4283 -0.3719  0.3193
  126OSM    C1213429   6.435   4.961   6.305  0.4399 -0.2505 -0.8188
  126OSM   H12A13430   6.537   4.996   6.308  0.7141 -1.0096  2.4004
  126OSM   H12B13431   6.436   4.855   6.324  0.7035 -0.3602 -1.4406
  126OSM    C1113432   6.367   5.024   6.431  0.4067 -0.0085  0.2106
  126OSM   H11A13433   6.349   5.133   6.418 -0.4113 -0.0131  1.1902
  126OSM   H11B13434   6.423   5.005   6.524  1.0031 -1.8972 -0.4986
  126OSM      P13435   6.233   4.814   6.514  0.3621  0.6978 -0.0573
  126OSM    O1313436   6.094   4.756   6.499 -0.2715 -0.2722  0.0831
  126OSM    O1413437   6.337   4.732   6.437  0.4673 -0.0094  0.0846
  126OSM    O1113438   6.280   4.810   6.660  0.0231  0.1197 -0.1246
  126OSM    O1213439   6.235   4.970   6.467 -0.0605  0.1091 -0.3692
  126OSM    C1S13440   6.245   4.912   6.760  0.3018 -0.4454  0.2114
  126OSM    H1S13441   6.151   4.965   6.735  0.3415 -0.4930 -0.0463
  126OSM    H1T13442   6.326   4.988   6.771 -0.9489  1.1979 -1.2344
  126OSM     NF13443   6.209   4.960   6.997  0.2506  0.1036 -0.0540
  126OSM    HNF13444   6.279   4.978   7.065 -0.6513  1.9270  0.4421
  126OSM    C2S13445   6.229   4.855   6.902  0.6524 -0.5736  1.3194
  126OSM    H2S13446   6.130   4.804   6.897 -0.4341  1.5236 -0.9189
  126OSM    C3S13447   6.342   4.756   6.944  0.5053 -1.0741 -0.1336
  126OSM    H3S13448   6.433   4.816   6.964 -0.3631  0.3134 -0.2728
  126OSM     O313449   6.398   4.676   6.845  0.9509  0.1313 -0.0768
  126OSM    HO313450   6.340   4.702   6.773  0.7107  1.7183  0.6297
  126OSM    C4S13451   6.301   4.674   7.071 -0.0380  0.4901  0.8606
  126OSM    H4S13452   6.299   4.733   7.164 -1.6020  1.4829  0.2378
  126OSM    C5S13453   6.275   4.544   7.080  0.2822 -0.3171  0.0549
  126OSM    H5S13454   6.277   4.485   6.988  2.6619 -0.8182  0.3822
  126OSM    C6S13455   6.239   4.474   7.198  0.2910  0.6234 -0.5667
  126OSM    H6S13456   6.305   4.385   7.212 -1.3888 -0.7471 -0.9671
  126OSM    H6T13457   6.140   4.424   7.190  0.9528 -1.0863  1.2151
  126OSM    C7S13458   6.245   4.558   7.328  0.3790  0.2144 -0.5252
  126OSM    H7S13459   6.168   4.637   7.331 -0.6431 -0.7791  1.5102
  126OSM    H7T13460   6.348   4.601   7.333  0.0809  0.8706  0.0480
  126OSM    C8S13461   6.207   4.475   7.462  0.4607  0.5929  0.1383
  126OSM    H8S13462   6.288   4.408   7.497  0.9270  0.6598 -0.7807
  126OSM    H8T13463   6.125   4.404   7.438  0.7743  0.9625 -2.3470
  126OSM    C9S13464   6.181   4.567   7.578 -0.4060  0.0548  0.4244
  126OSM    H9S13465   6.090   4.626   7.554 -0.0181 -0.2053 -1.9272
  126OSM    H9T13466   6.265   4.639   7.580 -0.8509  0.7820 -2.3198
  126OSM   C10S13467   6.173   4.501   7.719 -0.5551 -0.1692 -0.3391
  126OSM   H10S13468   6.262   4.436   7.736 -2.0710 -1.7130  2.1990
  126OSM   H10T13469   6.094   4.424   7.720 -0.4795 -0.2431 -0.0838
  126OSM   C11S13470   6.155   4.598   7.839  0.1182  0.4661 -0.3558
  126OSM   H11S13471   6.053   4.642   7.841 -0.2504 -0.3835  1.6340
  126OSM   H11T13472   6.221   4.687   7.840  3.0723 -1.5809 -0.6631
  126OSM   C12S13473   6.172   4.524   7.974  0.5193 -0.4798  0.4231
  126OSM   H12S13474   6.273   4.477   7.976  0.9733  0.4753  1.8065
  126OSM   H12T13475   6.090   4.448   7.975 -0.1869  0.1665 -2.1968
  126OSM   C13S13476   6.146   4.616   8.103 -0.2729 -0.0090  0.4372
  126OSM   H13S13477   6.038   4.642   8.099  0.1458  1.7084 -1.2826
  126OSM   H13T13478   6.214   4.704   8.104  1.3753 -1.2408  1.3327
  126OSM   C14S13479   6.169   4.537   8.234  0.2614 -0.3840  0.4591
  126OSM   H14S13480   6.272   4.498   8.217 -0.1891 -1.1367 -0.6716
  126OSM   H14T13481   6.107   4.445   8.243  0.3585 -0.5562 -0.5275
  126OSM   C15S13482   6.153   4.616   8.362  0.0099  0.4509 -0.5680
  126OSM   H15S13483   6.047   4.639   8.385 -0.7822 -1.2477 -2.2466
  126OSM   H15T13484   6.219   4.705   8.352  0.9137 -0.0981  0.2755
  126OSM   C16S13485   6.208   4.527   8.478 -0.1489 -0.7344  0.1891
  126OSM   H16S13486   6.307   4.486   8.447  0.9565  0.1500  2.3325
  126OSM   H16T13487   6.134   4.445   8.488  0.2769 -1.2291 -0.6343
  126OSM   C17S13488   6.222   4.594   8.612 -0.4070  0.4168  0.5533
  126OSM   H17S13489   6.293   4.680   8.608 -1.0709  1.0960  2.1668
  126OSM   H17T13490   6.270   4.513   8.671 -2.1104 -1.1149 -0.0859
  126OSM   C18S13491   6.083   4.626   8.680 -0.6207 -0.4123  0.4678
  126OSM   H18S13492   6.097   4.629   8.790 -2.1862 -0.8837  0.7026
  126OSM   H18T13493   6.023   4.536   8.654 -0.1975 -0.5388 -0.0970
  126OSM   H18U13494   6.046   4.725   8.647  3.1458  0.9234 -0.2915
  126OSM    C1F13495   6.091   5.022   7.004  0.8348  0.3628 -0.2586
  126OSM     OF13496   6.003   4.995   6.926 -0.0031 -0.5661 -0.1201
  126OSM    C2F13497   6.073   5.116   7.128  0.1384 -0.6361 -0.5015
  126OSM    H2F13498   6.176   5.138   7.164  0.0650 -0.2712 -0.5127
  126OSM    H2G13499   6.028   5.053   7.208  1.9515 -0.5450  0.6597
  126OSM    C3F13500   5.991   5.243   7.096 -0.4646  0.3373  0.3389
  126OSM    H3F13501   5.887   5.212   7.075  0.1826 -0.0149 -3.0237
  126OSM    H3G13502   6.022   5.264   6.991 -1.7694 -1.7752 -0.5469
  126OSM    C4F13503   5.981   5.339   7.212 -0.8590  0.1369  0.2210
  126OSM    H4F13504   5.905   5.405   7.166  1.2854  2.7667  0.2285
  126OSM    H4G13505   6.078   5.382   7.245 -0.3584  0.0797 -1.1051
  126OSM    C5F13506   5.916   5.273   7.339 -0.3227 -0.1380  0.0059
  126OSM    H5F13507   5.981   5.186   7.364  1.0753  0.9733  0.3644
  126OSM    H5G13508   5.810   5.244   7.326 -0.5191 -1.3903  3.3139
  126OSM    C6F13509   5.921   5.368   7.462  0.6351  0.1320  0.5266
  126OSM    H6F13510   5.850   5.452   7.444  1.5915  0.6982 -0.6926
  126OSM    H6G13511   6.027   5.395   7.479  0.5353 -0.1432  1.6946
  126OSM    C7F13512   5.854   5.298   7.588 -0.9430  0.0004  0.0936
  126OSM    H7F13513   5.929   5.223   7.620 -0.3840  0.6129  0.2292
  126OSM    H7G13514   5.764   5.236   7.563  0.2731 -2.1987  0.8568
  126OSM    C8F13515   5.835   5.394   7.711  1.0407 -0.4743  0.8929
  126OSM    H8F13516   5.825   5.342   7.808  1.3405  1.7480  2.1601
  126OSM    H8G13517   5.741   5.451   7.698  0.9607 -1.0032 -1.2888
  126OSM    C9F13518   5.945   5.493   7.732 -0.7304 -0.1418 -0.8122
  126OSM    H9F13519   5.981   5.544   7.642  0.9499 -0.3185 -0.2736
  126OSM   C10F13520   6.015   5.514   7.849 -0.3842  0.5698  0.4369
  126OSM   H10F13521   6.102   5.581   7.845  1.4859 -1.5423  2.5422
  126OSM   C11F13522   5.998   5.452   7.990 -0.3313 -0.2198  0.0393
  126OSM   H11F13523   6.019   5.344   7.975  1.3850  0.0819  0.0445
  126OSM   H11G13524   5.895   5.463   8.030 -0.3411 -1.2406  0.3285
  126OSM   C12F13525   6.108   5.526   8.078  0.3636 -0.2545 -0.3643
  126OSM   H12F13526   6.072   5.630   8.095 -0.9497 -1.0099  1.8148
  126OSM   H12G13527   6.204   5.535   8.023  0.4934 -0.1152 -0.1158
  126OSM   C13F13528   6.140   5.463   8.213  0.2742  0.0190  0.2075
  126OSM   H13F13529   6.229   5.516   8.252 -0.2403 -0.8759  2.8365
  126OSM   H13G13530   6.175   5.357   8.212 -1.1358 -0.5117  1.7226
  126OSM   C14F13531   6.026   5.488   8.309 -0.9794  1.0705 -0.5585
  126OSM   H14F13532   6.057   5.453   8.409 -0.3602  0.7830 -0.8470
  126OSM   H14G13533   5.944   5.418   8.282 -0.5078 -0.0194  0.7543
  126OSM   C15F13534   5.968   5.628   8.322  0.2837 -0.8898  0.3720
  126OSM   H15F13535   5.915   5.650   8.227 -1.2010  1.4747  1.6271
  126OSM   H15G13536   6.043   5.707   8.343  0.5559 -0.1615 -2.8395
  126OSM   C16F13537   5.854   5.638   8.427  0.2648  0.1398  0.5791
  126OSM   H16F13538   5.884   5.587   8.521  2.0634 -0.8032 -0.4521
  126OSM   H16G13539   5.767   5.583   8.385  0.6132 -0.5540  0.7362
  126OSM   C17F13540   5.817   5.783   8.461  0.1995 -0.9799  0.9686
  126OSM   H17F13541   5.777   5.833   8.370 -0.4580  3.5099  3.4165
  126OSM   H17G13542   5.914   5.831   8.485  0.4575 -0.3291 -1.1784
  126OSM   C18F13543   5.715   5.790   8.578  0.4263  0.7835 -0.0366
  126OSM   H18F13544   5.762   5.760   8.673  0.2397  2.5930  0.6767
  126OSM   H18G13545   5.628   5.725   8.558  0.3741  0.2187  1.8839
  126OSM   H18H13546   5.684   5.897   8.581  1.1163  1.0026 -0.4134
  127OSM      N13547   6.652   3.550   6.063  0.6394  0.1659 -0.0555
  127OSM    C1513548   6.573   3.440   5.989 -0.0778 -0.3546  0.7010
  127OSM   H15A13549   6.599   3.344   6.033  0.3119 -0.0624  1.1166
  127OSM   H15B13550   6.603   3.445   5.886 -1.6652 -1.0597  0.1679
  127OSM   H15C13551   6.470   3.461   6.013 -0.2096 -1.7301  1.4563
  127OSM    C1413552   6.780   3.563   5.991 -0.9217 -0.2597  0.3729
  127OSM   H14A13553   6.773   3.583   5.885  2.4626  2.7335  0.5182
  127OSM   H14B13554   6.842   3.474   5.998 -1.2587 -0.4975  0.3307
  127OSM   H14C13555   6.850   3.632   6.037 -0.6211  0.3419 -0.9323
  127OSM    C1313556   6.573   3.677   6.051  0.0331 -1.0426 -0.0370
  127OSM   H13A13557   6.477   3.683   6.101  0.5685  0.2388  0.8770
  127OSM   H13B13558   6.561   3.695   5.945 -0.7948  1.1437  0.3863
  127OSM   H13C13559   6.631   3.757   6.094  1.7128 -1.9021 -0.5964
  127OSM    C1213560   6.668   3.524   6.216  0.0963  0.1748  0.4715
  127OSM   H12A13561   6.729   3.436   6.230  0.1490 -0.3483 -2.4742
  127OSM   H12B13562   6.573   3.505   6.264  0.2028 -1.1793  0.1897
  127OSM    C1113563   6.743   3.640   6.294  0.0076  0.3102 -0.8026
  127OSM   H11A13564   6.753   3.612   6.401  0.1970 -0.6708 -1.0604
  127OSM   H11B13565   6.690   3.737   6.290 -1.1246 -0.3067 -1.2292
  127OSM      P13566   6.986   3.551   6.278 -0.2964 -0.2210  0.4207
  127OSM    O1313567   6.939   3.425   6.338 -0.0688  0.3660 -0.6382
  127OSM    O1413568   7.064   3.534   6.151 -0.6319 -0.6849  0.2924
  127OSM    O1113569   7.081   3.624   6.383  0.4941 -0.2218  0.3188
  127OSM    O1213570   6.875   3.659   6.250  0.4725 -0.2890 -0.0452
  127OSM    C1S13571   7.024   3.655   6.513 -0.8474 -0.2392 -0.0667
  127OSM    H1S13572   6.923   3.613   6.535 -1.0861  0.1295 -0.4535
  127OSM    H1T13573   7.013   3.765   6.518 -0.7814 -0.2137 -0.4379
  127OSM     NF13574   7.064   3.619   6.758 -0.1608 -1.0501  0.0732
  127OSM    HNF13575   7.090   3.702   6.807  1.6311 -1.3393 -0.3150
  127OSM    C2S13576   7.120   3.601   6.625  0.0914 -0.4071 -0.1850
  127OSM    H2S13577   7.136   3.492   6.618 -1.5883 -0.6443 -0.9118
  127OSM    C3S13578   7.258   3.672   6.618  0.2676  0.2571 -0.3098
  127OSM    H3S13579   7.233   3.780   6.630 -2.6522 -0.1520 -1.8166
  127OSM     O313580   7.322   3.650   6.492  0.4274 -0.2833 -0.4915
  127OSM    HO313581   7.257   3.630   6.424  0.3161 -1.9821  0.0656
  127OSM    C4S13582   7.352   3.630   6.730  0.3342 -0.0865 -0.2439
  127OSM    H4S13583   7.356   3.520   6.731  0.2852 -0.0992 -0.8606
  127OSM    C5S13584   7.431   3.713   6.789 -0.6150 -0.0454 -0.0251
  127OSM    H5S13585   7.440   3.814   6.746 -1.6430 -0.2701 -0.7865
  127OSM    C6S13586   7.527   3.685   6.908  0.1223  0.0455  0.4685
  127OSM    H6S13587   7.477   3.717   7.002 -0.0450  2.2396 -0.3034
  127OSM    H6T13588   7.619   3.745   6.898 -0.6290  1.3943  1.3340
  127OSM    C7S13589   7.555   3.537   6.934  0.1358 -0.5161 -0.6522
  127OSM    H7S13590   7.611   3.504   6.844 -0.2490  0.2883 -1.1997
  127OSM    H7T13591   7.460   3.480   6.940  1.2946 -2.7432 -2.0964
  127OSM    C8S13592   7.640   3.506   7.054 -0.3443  0.1321 -0.6377
  127OSM    H8S13593   7.678   3.603   7.092  1.1364 -1.0456  1.0765
  127OSM    H8T13594   7.734   3.459   7.016  1.4163  1.3128  1.9517
  127OSM    C9S13595   7.566   3.425   7.162 -0.1853 -0.2433 -0.2684
  127OSM    H9S13596   7.538   3.328   7.116  2.0170 -0.5476 -1.0956
  127OSM    H9T13597   7.482   3.488   7.199  0.6472  0.2718  0.7933
  127OSM   C10S13598   7.671   3.399   7.272  0.4648  0.3380 -0.9128
  127OSM   H10S13599   7.692   3.498   7.318  2.6216 -0.3762 -0.2420
  127OSM   H10T13600   7.771   3.360   7.245  0.1346 -0.9830 -0.2983
  127OSM   C11S13601   7.616   3.309   7.394  0.0827 -0.2052  0.2924
  127OSM   H11S13602   7.586   3.208   7.360 -2.3766 -0.8151  3.6888
  127OSM   H11T13603   7.523   3.352   7.436 -0.3564  1.4644 -2.1837
  127OSM   C12S13604   7.717   3.281   7.502  0.0149  0.8885  0.0990
  127OSM   H12S13605   7.768   3.378   7.519  0.1572  0.7837  0.2844
  127OSM   H12T13606   7.798   3.209   7.477  0.1695  0.8973  0.5586
  127OSM   C13S13607   7.655   3.216   7.629  0.2891 -0.6340 -0.0527
  127OSM   H13S13608   7.607   3.122   7.596  0.8709 -0.2655 -2.1260
  127OSM   H13T13609   7.575   3.282   7.670  1.5417  1.2890 -0.5487
  127OSM   C14S13610   7.763   3.188   7.729 -0.4635 -0.6792  0.0859
  127OSM   H14S13611   7.806   3.289   7.745 -2.5904  0.1823  0.8388
  127OSM   H14T13612   7.846   3.121   7.697  2.2793  0.5880  3.8460
  127OSM   C15S13613   7.714   3.136   7.866 -0.2986  0.0497  0.3032
  127OSM   H15S13614   7.615   3.180   7.893  0.1859  0.1262  2.0845
  127OSM   H15T13615   7.785   3.171   7.944  1.0550  1.9464 -1.6506
  127OSM   C16S13616   7.703   2.981   7.853  0.2832 -0.1252  0.0646
  127OSM   H16S13617   7.794   2.920   7.870  0.6871  0.8548  1.5304
  127OSM   H16T13618   7.679   2.958   7.746  0.4737 -1.8733  0.3620
  127OSM   C17S13619   7.582   2.935   7.931  0.0276  0.2890  0.4860
  127OSM   H17S13620   7.557   2.827   7.925 -2.8358  0.7858  1.8380
  127OSM   H17T13621   7.494   2.993   7.897  0.3464 -0.0115 -0.9331
  127OSM   C18S13622   7.610   2.940   8.079  0.4185  0.4902 -0.4961
  127OSM   H18S13623   7.620   3.044   8.118 -1.2955 -0.0511  1.6002
  127OSM   H18T13624   7.694   2.880   8.119  0.3989  0.7319 -0.0816
  127OSM   H18U13625   7.517   2.902   8.126  2.4893 -1.6154  2.2803
  127OSM    C1F13626   6.969   3.539   6.805 -0.1889  0.2152  0.4036
  127OSM     OF13627   6.947   3.423   6.773 -0.4573  0.1878  0.3799
  127OSM    C2F13628   6.881   3.597   6.904  0.1431 -0.2303  0.0174
  127OSM    H2F13629   6.779   3.615   6.864 -0.1355 -0.1335  0.7378
  127OSM    H2G13630   6.921   3.695   6.941  0.2559  0.0626 -0.8708
  127OSM    C3F13631   6.863   3.510   7.027  0.5243 -0.3637 -0.1030
  127OSM    H3F13632   6.965   3.483   7.061  0.6952 -1.4281 -1.4156
  127OSM    H3G13633   6.809   3.415   7.005 -2.5146  0.7005  1.9863
  127OSM    C4F13634   6.782   3.591   7.133  0.1497  0.0705  1.0792
  127OSM    H4F13635   6.836   3.683   7.164 -0.6615  0.5788  1.0065
  127OSM    H4G13636   6.770   3.529   7.224 -2.3025  1.2396  1.6237
  127OSM    C5F13637   6.638   3.628   7.090  0.0438  0.6970  0.4332
  127OSM    H5F13638   6.573   3.540   7.068 -0.0883  0.9753 -0.3402
  127OSM    H5G13639   6.642   3.691   6.999 -0.7410 -0.1713 -0.2191
  127OSM    C6F13640   6.569   3.716   7.199 -0.1999  0.1002 -0.7711
  127OSM    H6F13641   6.643   3.798   7.208 -0.5505  0.4001 -0.5971
  127OSM    H6G13642   6.559   3.662   7.295  0.3264 -0.8750 -1.2539
  127OSM    C7F13643   6.433   3.777   7.156 -0.1180 -0.5808  0.9168
  127OSM    H7F13644   6.363   3.691   7.151  1.2026 -1.6600  0.2372
  127OSM    H7G13645   6.450   3.822   7.055 -1.4087 -1.3563  0.3242
  127OSM    C8F13646   6.367   3.877   7.255  0.1414 -0.6333 -0.4171
  127OSM    H8F13647   6.354   3.832   7.356  1.0411  0.3440  0.1567
  127OSM    H8G13648   6.267   3.917   7.228  0.4194  2.9993  2.9724
  127OSM    C9F13649   6.460   3.994   7.257  0.1624  0.3020  0.4598
  127OSM    H9F13650   6.454   4.052   7.163  0.9802 -3.2392 -1.9703
  127OSM   C10F13651   6.547   4.024   7.352 -0.1821  0.4268 -0.4488
  127OSM   H10F13652   6.610   4.110   7.326  0.5571 -0.6086 -2.3045
  127OSM   C11F13653   6.565   3.964   7.490  0.2741 -0.3598 -0.2127
  127OSM   H11F13654   6.523   3.862   7.499  0.0400 -0.3341 -0.9413
  127OSM   H11G13655   6.507   4.019   7.568 -2.4406  0.0426 -2.3446
  127OSM   C12F13656   6.717   3.979   7.530  0.2386 -0.9008  0.1932
  127OSM   H12F13657   6.733   4.080   7.574 -0.8284 -0.7545  0.2545
  127OSM   H12G13658   6.778   3.962   7.439 -2.5883 -0.4805 -1.8991
  127OSM   C13F13659   6.761   3.882   7.637 -0.0969  0.2755 -0.2182
  127OSM   H13F13660   6.870   3.891   7.653 -0.1067  0.5632 -0.3054
  127OSM   H13G13661   6.751   3.780   7.595  1.2444  1.4380 -3.6933
  127OSM   C14F13662   6.675   3.900   7.764  0.4292  0.0412  0.8779
  127OSM   H14F13663   6.567   3.880   7.744  0.4552 -0.1639  0.9384
  127OSM   H14G13664   6.670   4.006   7.798 -1.4953  0.3754 -0.2694
  127OSM   C15F13665   6.715   3.813   7.882 -0.3257  0.2302  0.1833
  127OSM   H15F13666   6.819   3.829   7.917  0.4990  0.5767 -2.2583
  127OSM   H15G13667   6.705   3.710   7.841 -0.1649  0.8554 -1.4890
  127OSM   C16F13668   6.627   3.830   8.000 -0.0292 -0.1994 -0.8943
  127OSM   H16F13669   6.527   3.787   7.975  0.8138 -2.3542 -0.7942
  127OSM   H16G13670   6.617   3.926   8.054  0.9373 -1.6453  2.0423
  127OSM   C17F13671   6.671   3.731   8.109  0.6424  0.3740 -0.0044
  127OSM   H17F13672   6.780   3.736   8.133  0.8346 -2.4568  0.1441
  127OSM   H17G13673   6.657   3.625   8.076 -1.4465  0.5350  0.2843
  127OSM   C18F13674   6.591   3.743   8.237 -0.1835 -0.3994  0.7074
  127OSM   H18F13675   6.490   3.699   8.221 -1.0808  1.6490  0.4027
  127OSM   H18G13676   6.564   3.845   8.273 -2.2877  0.1255 -2.0183
  127OSM   H18H13677   6.640   3.687   8.319  0.1622  0.3366  1.0132
  128OSM      N13678   3.375   0.513   6.404  0.2222  0.2014  0.2882
  128OSM    C1513679   3.407   0.544   6.548 -0.2851  0.0582 -0.4486
  128OSM   H15A13680   3.461   0.638   6.558  1.9254 -1.0763 -1.0615
  128OSM   H15B13681   3.475   0.472   6.590 -2.4996 -0.8564  1.7645
  128OSM   H15C13682   3.321   0.552   6.612  0.6209 -0.2511  0.8486
  128OSM    C1413683   3.292   0.623   6.351 -0.3005  0.0390 -0.0201
  128OSM   H14A13684   3.361   0.703   6.329 -1.1577  0.1199 -2.7380
  128OSM   H14B13685   3.212   0.648   6.420  0.7585 -3.8053  3.0046
  128OSM   H14C13686   3.255   0.608   6.251 -0.2790  0.9279 -0.1701
  128OSM    C1313687   3.500   0.515   6.333 -0.2911  0.1743 -0.1986
  128OSM   H13A13688   3.564   0.440   6.378 -0.1834  0.6725  0.5057
  128OSM   H13B13689   3.543   0.614   6.335 -0.5022  0.2717  1.2833
  128OSM   H13C13690   3.483   0.484   6.231 -0.9390  2.1904 -0.7641
  128OSM    C1213691   3.302   0.379   6.384  1.1258  0.9453 -0.0249
  128OSM   H12A13692   3.205   0.390   6.430  0.4679  1.1191 -1.4062
  128OSM   H12B13693   3.355   0.304   6.442  0.9083 -0.0124 -1.0393
  128OSM    C1113694   3.289   0.334   6.237  0.2953  0.0391 -0.8708
  128OSM   H11A13695   3.247   0.231   6.236 -1.7839  0.7530  1.6125
  128OSM   H11B13696   3.383   0.326   6.178 -0.5856  0.7531 -2.4280
  128OSM      P13697   3.043   0.416   6.166 -0.3072  0.2880 -0.0326
  128OSM    O1313698   2.996   0.505   6.060 -0.0072  0.2911 -0.0615
  128OSM    O1413699   3.001   0.276   6.148  0.1292 -0.0679 -0.1944
  128OSM    O1113700   3.001   0.477   6.303 -0.6981  0.1443 -0.1525
  128OSM    O1213701   3.203   0.417   6.163 -0.4691  0.6704  0.2499
  128OSM    C1S13702   2.964   0.395   6.411 -0.2247  0.2233  0.5695
  128OSM    H1S13703   3.031   0.311   6.442  3.4717  2.6668 -0.1656
  128OSM    H1T13704   2.868   0.348   6.380  0.9541 -1.6842 -0.4415
  128OSM     NF13705   2.923   0.415   6.658 -0.3346 -0.0634 -0.2518
  128OSM    HNF13706   2.842   0.424   6.716 -0.1827  2.2620 -0.3451
  128OSM    C2S13707   2.930   0.489   6.532 -0.7412  0.7651  0.2979
  128OSM    H2S13708   3.007   0.567   6.549  0.8688 -0.4451 -1.0985
  128OSM    C3S13709   2.792   0.562   6.500  0.3677  0.7498 -0.1381
  128OSM    H3S13710   2.721   0.478   6.485 -0.3809  1.6506 -1.8787
  128OSM     O313711   2.780   0.627   6.375  0.7027 -0.6201  0.3295
  128OSM    HO313712   2.869   0.624   6.338  0.5228 -0.9411 -0.0883
  128OSM    C4S13713   2.750   0.643   6.617  0.8413  0.3120 -0.2975
  128OSM    H4S13714   2.687   0.585   6.686  1.7363 -0.2178  0.0944
  128OSM    C5S13715   2.765   0.776   6.628  0.5971 -0.2361  0.5848
  128OSM    H5S13716   2.806   0.838   6.548  0.7947 -1.0996  0.0062
  128OSM    C6S13717   2.709   0.854   6.743 -0.2818  0.4703 -0.0660
  128OSM    H6S13718   2.702   0.958   6.704  0.8093  2.1437  3.7996
  128OSM    H6T13719   2.781   0.855   6.827  0.0846 -1.7166 -0.2914
  128OSM    C7S13720   2.567   0.811   6.785  0.5199  0.4649  0.7650
  128OSM    H7S13721   2.539   0.706   6.806  1.2724  0.0532 -0.2162
  128OSM    H7T13722   2.499   0.830   6.699 -0.3936  1.2486  1.6325
  128OSM    C8S13723   2.521   0.904   6.899  0.0247 -0.2081  0.6777
  128OSM    H8S13724   2.410   0.904   6.903 -0.2687 -2.3756 -2.7709
  128OSM    H8T13725   2.545   1.012   6.886 -0.6998 -0.2350 -1.1617
  128OSM    C9S13726   2.582   0.846   7.026 -0.0656 -0.3112  0.4727
  128OSM    H9S13727   2.690   0.867   7.020  0.0800 -1.3258 -1.1462
  128OSM    H9T13728   2.565   0.736   7.019 -1.4774 -0.1096  0.2705
  128OSM   C10S13729   2.520   0.915   7.152 -0.1958  0.1368 -0.6033
  128OSM   H10S13730   2.411   0.922   7.133 -1.2593  0.0296  4.2064
  128OSM   H10T13731   2.568   1.015   7.162  1.8214 -0.9092  0.9571
  128OSM   C11S13732   2.548   0.846   7.288 -0.2123 -0.1435  0.0833
  128OSM   H11S13733   2.657   0.833   7.300 -0.0359 -1.2195 -2.1360
  128OSM   H11T13734   2.507   0.743   7.287 -0.7789  0.0679  0.9990
  128OSM   C12S13735   2.485   0.922   7.406 -0.5658  0.6185  0.4250
  128OSM   H12S13736   2.374   0.918   7.402 -0.6171  1.4808  0.7189
  128OSM   H12T13737   2.512   1.030   7.402 -0.9997  0.8283  2.1190
  128OSM   C13S13738   2.524   0.857   7.540 -0.2286 -0.8143  0.0926
  128OSM   H13S13739   2.635   0.860   7.554 -0.0874 -0.4782 -0.9790
  128OSM   H13T13740   2.502   0.749   7.536 -2.2016 -0.4093 -1.1104
  128OSM   C14S13741   2.455   0.921   7.664  0.4688  0.0894 -0.1782
  128OSM   H14S13742   2.348   0.889   7.665  0.0383  1.4075 -0.9068
  128OSM   H14T13743   2.450   1.032   7.663 -1.2747  0.1063  1.9111
  128OSM   C15S13744   2.512   0.853   7.784 -0.0605 -0.2409 -0.7680
  128OSM   H15S13745   2.619   0.882   7.781 -0.0919  0.4849  2.1613
  128OSM   H15T13746   2.504   0.742   7.782 -2.1706 -0.4311  4.1243
  128OSM   C16S13747   2.459   0.901   7.926 -0.0803  0.0568 -0.2908
  128OSM   H16S13748   2.363   0.848   7.943 -0.3278  0.2443 -1.0399
  128OSM   H16T13749   2.427   1.008   7.923 -0.9914 -0.1009  1.8090
  128OSM   C17S13750   2.563   0.882   8.034 -0.2970 -0.5799  0.7814
  128OSM   H17S13751   2.637   0.965   8.036  0.9762 -1.6636  4.0815
  128OSM   H17T13752   2.613   0.783   8.022 -0.3813 -0.7690  1.8984
  128OSM   C18S13753   2.492   0.877   8.166 -0.4084 -0.0096 -0.5217
  128OSM   H18S13754   2.460   0.979   8.200  2.4976  0.1790  2.1028
  128OSM   H18T13755   2.571   0.871   8.244 -0.5922 -0.1479 -0.3450
  128OSM   H18U13756   2.415   0.798   8.178 -1.2733  0.4486 -2.5619
  128OSM    C1F13757   3.031   0.365   6.709 -0.3089 -0.0863 -0.7848
  128OSM     OF13758   3.140   0.367   6.651  0.3298  0.2215 -0.3898
  128OSM    C2F13759   3.012   0.285   6.829 -0.3110 -0.0720 -0.6273
  128OSM    H2F13760   2.973   0.187   6.796 -1.9925 -0.4156  2.0800
  128OSM    H2G13761   2.931   0.338   6.882 -1.0558  0.1190 -1.9075
  128OSM    C3F13762   3.142   0.284   6.914 -0.5393 -0.1334 -0.3129
  128OSM    H3F13763   3.179   0.388   6.923  1.5925 -0.7034 -1.7638
  128OSM    H3G13764   3.224   0.229   6.862 -1.9480 -0.9077 -1.7941
  128OSM    C4F13765   3.121   0.236   7.060  0.6140  0.1557 -0.3480
  128OSM    H4F13766   3.039   0.301   7.096 -0.3077  0.6885 -3.1866
  128OSM    H4G13767   3.219   0.257   7.109  1.0667 -0.5438 -0.9322
  128OSM    C5F13768   3.066   0.100   7.082  0.3012 -0.1529  0.2096
  128OSM    H5F13769   3.132   0.035   7.021  0.8313  1.1216 -0.6279
  128OSM    H5G13770   2.964   0.075   7.046  0.2981 -0.1567  0.2207
  128OSM    C6F13771   3.088   0.066   7.231  0.3093  0.3769 -0.1095
  128OSM    H6F13772   3.193   0.074   7.266  0.9494 -2.5374 -1.1390
  128OSM    H6G13773   3.065  -0.042   7.247  1.0935  0.0629 -1.0209
  128OSM    C7F13774   2.997   0.143   7.325 -0.3136  0.2301  0.3336
  128OSM    H7F13775   2.891   0.134   7.293 -0.7268  3.0415  0.6318
  128OSM    H7G13776   3.031   0.249   7.318  2.2554 -0.5502  0.1414
  128OSM    C8F13777   3.023   0.096   7.465  0.2570 -0.2545  0.1216
  128OSM    H8F13778   3.123   0.129   7.500  0.4677 -0.2577 -0.4724
  128OSM    H8G13779   3.020  -0.015   7.469 -0.6328 -0.2723 -0.6532
  128OSM    C9F13780   2.911   0.144   7.553 -0.4852  0.6911  0.4876
  128OSM    H9F13781   2.812   0.152   7.506  1.0158  1.7678 -2.8332
  128OSM   C10F13782   2.915   0.178   7.682  0.6874  0.6618  0.0574
  128OSM   H10F13783   2.822   0.215   7.729 -0.3182 -2.3140  0.6412
  128OSM   C11F13784   3.029   0.180   7.776 -0.3468  0.1505  0.0642
  128OSM   H11F13785   3.055   0.278   7.821  0.7764 -0.5116  0.9251
  128OSM   H11G13786   3.123   0.161   7.721  0.4715  0.6660  1.2594
  128OSM   C12F13787   3.029   0.070   7.885  0.2478  0.4384 -0.8293
  128OSM   H12F13788   3.132   0.071   7.925  0.9063  1.6720 -2.4690
  128OSM   H12G13789   3.013  -0.035   7.853  3.1455 -0.8806  1.6230
  128OSM   C13F13790   2.935   0.104   8.002 -0.1309  0.4949  0.1880
  128OSM   H13F13791   2.832   0.110   7.961  0.1813  0.4992 -0.6051
  128OSM   H13G13792   2.965   0.207   8.031  1.2882 -0.6644  3.2862
  128OSM   C14F13793   2.948   0.005   8.120  0.0749 -0.3168 -0.3510
  128OSM   H14F13794   2.952  -0.101   8.087 -1.9792 -1.3087  2.2051
  128OSM   H14G13795   2.855   0.011   8.180  2.0916  0.6211  2.9403
  128OSM   C15F13796   3.066   0.029   8.214  0.1823 -0.0699 -0.9292
  128OSM   H15F13797   3.100   0.134   8.201 -1.0492  0.7599  1.8214
  128OSM   H15G13798   3.151  -0.034   8.181  1.5454  1.1960  0.0378
  128OSM   C16F13799   3.026   0.005   8.366 -0.0844 -0.7226  0.0069
  128OSM   H16F13800   3.063  -0.099   8.382  1.3183  0.0050  1.7774
  128OSM   H16G13801   2.915  -0.006   8.375 -0.3292  0.8919 -0.6773
  128OSM   C17F13802   3.076   0.113   8.462 -0.3684  0.1480 -0.4244
  128OSM   H17F13803   3.053   0.216   8.426  1.6244  0.8800  0.2562
  128OSM   H17G13804   3.187   0.110   8.469 -0.4501 -0.9048  0.6641
  128OSM   C18F13805   3.016   0.082   8.601 -0.2923  0.2160  0.0042
  128OSM   H18F13806   3.050   0.163   8.668 -1.4309  0.0816  0.7761
  128OSM   H18G13807   3.053  -0.018   8.634  1.5427  1.6377  2.5289
  128OSM   H18H13808   2.906   0.072   8.593 -0.4773 -3.9495  3.5841
  129OSM      N13809   0.940   3.197   6.216 -0.3752 -0.1170 -0.5755
  129OSM    C1513810   0.844   3.221   6.110  0.3959  0.6105  0.1957
  129OSM   H15A13811   0.788   3.312   6.124  0.7147  1.0997 -1.4046
  129OSM   H15B13812   0.769   3.144   6.102 -1.3815  2.0031  2.4110
  129OSM   H15C13813   0.896   3.236   6.016  2.1609  0.5395  1.1269
  129OSM    C1413814   1.025   3.082   6.171  0.2891  0.3572  0.3129
  129OSM   H14A13815   0.954   3.007   6.139 -0.1289  0.7548  0.2929
  129OSM   H14B13816   1.075   3.047   6.260 -1.5230  0.8826  1.6001
  129OSM   H14C13817   1.097   3.111   6.096 -0.0967  2.5891  0.7505
  129OSM    C1313818   1.042   3.303   6.239  0.8076 -0.0491  0.7918
  129OSM   H13A13819   0.993   3.389   6.282 -3.0979 -0.2560 -2.6454
  129OSM   H13B13820   1.070   3.334   6.140 -0.4787  0.2019  0.4827
  129OSM   H13C13821   1.133   3.269   6.286  0.9235 -1.2487 -0.2499
  129OSM    C1213822   0.871   3.158   6.345  0.2322  0.2248 -0.3624
  129OSM   H12A13823   0.829   3.252   6.377 -0.5174 -0.2611  0.1322
  129OSM   H12B13824   0.947   3.122   6.413  0.4406 -2.1072 -1.7251
  129OSM    C1113825   0.748   3.060   6.356  0.3223 -0.2673  0.2094
  129OSM   H11A13826   0.726   3.020   6.457 -2.0921  0.4919  0.0516
  129OSM   H11B13827   0.772   2.960   6.312 -1.7199 -1.6725  2.0574
  129OSM      P13828   0.524   3.207   6.318  0.0816  0.0907 -0.1485
  129OSM    O1313829   0.587   3.343   6.311 -1.0130  0.1375 -0.4119
  129OSM    O1413830   0.400   3.188   6.234  0.4046 -1.0356 -0.5293
  129OSM    O1113831   0.490   3.175   6.471  0.1430  0.0508  0.2835
  129OSM    O1213832   0.631   3.093   6.290  0.5707 -0.0649 -0.0895
  129OSM    C1S13833   0.362   3.165   6.527 -0.2350  0.5308 -0.5909
  129OSM    H1S13834   0.299   3.083   6.486 -1.1609  0.8515  0.1757
  129OSM    H1T13835   0.306   3.258   6.509 -0.7209  0.6187  1.1802
  129OSM     NF13836   0.247   3.131   6.730 -0.5688  0.2662  0.1411
  129OSM    HNF13837   0.224   3.199   6.799 -1.4136  0.2125 -0.0739
  129OSM    C2S13838   0.378   3.137   6.677 -0.3022 -0.0018  0.3944
  129OSM    H2S13839   0.439   3.046   6.693  0.2198  0.7188  2.9548
  129OSM    C3S13840   0.461   3.238   6.759 -0.2008  0.3902  0.2761
  129OSM    H3S13841   0.418   3.340   6.763  0.6524  0.7047  3.2609
  129OSM     O313842   0.588   3.259   6.698 -0.0253 -0.1755  0.0580
  129OSM    HO313843   0.574   3.244   6.604 -2.6232 -2.7732  0.6773
  129OSM    C4S13844   0.470   3.194   6.897  0.0165 -0.7589 -0.4953
  129OSM    H4S13845   0.520   3.096   6.902 -0.6882 -1.0900  0.7897
  129OSM    C5S13846   0.410   3.243   7.009 -0.4850 -0.4535  0.1071
  129OSM    H5S13847   0.345   3.331   7.014  2.4165  1.9101 -0.7205
  129OSM    C6S13848   0.436   3.189   7.145  0.5045 -0.0937 -0.0580
  129OSM    H6S13849   0.343   3.166   7.202  1.6521  0.1711  1.9992
  129OSM    H6T13850   0.493   3.266   7.201 -0.5067  1.8505 -1.5322
  129OSM    C7S13851   0.520   3.061   7.171  0.4796  1.0064 -0.6774
  129OSM    H7S13852   0.626   3.084   7.150  0.4126  0.1417 -2.1236
  129OSM    H7T13853   0.483   2.985   7.098 -1.4284  1.0524  0.1967
  129OSM    C8S13854   0.482   2.982   7.299  0.3114  0.2878 -0.2457
  129OSM    H8S13855   0.536   2.884   7.299 -2.1786 -1.1848 -1.6074
  129OSM    H8T13856   0.373   2.964   7.294  0.5121 -1.2632  0.2885
  129OSM    C9S13857   0.522   3.064   7.430  0.4419  0.3331 -0.0828
  129OSM    H9S13858   0.474   3.163   7.414  2.2243  1.1791 -0.4411
  129OSM    H9T13859   0.631   3.081   7.441  0.1375  0.6292  4.5467
  129OSM   C10S13860   0.460   2.980   7.550  0.1704  0.4634  0.2516
  129OSM   H10S13861   0.494   2.875   7.555 -2.4659 -0.4358  5.5503
  129OSM   H10T13862   0.351   2.971   7.529  0.3248  1.0646 -0.9183
  129OSM   C11S13863   0.473   3.053   7.680  0.0699  0.4925 -0.6002
  129OSM   H11S13864   0.442   3.159   7.674  1.0007  0.6838 -4.0048
  129OSM   H11T13865   0.581   3.059   7.702 -0.0042  1.9621 -0.5732
  129OSM   C12S13866   0.409   2.968   7.792 -0.1094 -0.1284 -0.7117
  129OSM   H12S13867   0.461   2.871   7.803 -0.8548 -0.3980  0.6368
  129OSM   H12T13868   0.303   2.943   7.770 -0.5102 -0.7014  1.6500
  129OSM   C13S13869   0.411   3.035   7.932 -0.5319 -0.3739 -0.6076
  129OSM   H13S13870   0.355   3.131   7.926 -0.5479 -0.3667 -0.3486
  129OSM   H13T13871   0.511   3.074   7.959 -0.8946  0.3013 -0.2033
  129OSM   C14S13872   0.359   2.950   8.051  0.1386  0.5170 -0.3612
  129OSM   H14S13873   0.421   2.860   8.067 -0.2825 -0.3588 -3.1134
  129OSM   H14T13874   0.255   2.917   8.028  0.0050  0.7325 -0.0804
  129OSM   C15S13875   0.354   3.033   8.181  0.6238 -0.5536  0.1959
  129OSM   H15S13876   0.293   3.124   8.163  1.9673  0.0944 -1.3427
  129OSM   H15T13877   0.459   3.068   8.194  0.2978  1.2822 -1.5714
  129OSM   C16S13878   0.302   2.942   8.297  0.7748  0.4613 -0.6519
  129OSM   H16S13879   0.373   2.861   8.323 -1.1946 -1.2907 -0.4668
  129OSM   H16T13880   0.205   2.896   8.270 -0.4989  1.3818  1.9957
  129OSM   C17S13881   0.281   3.025   8.421  0.7214 -0.6712  0.0025
  129OSM   H17S13882   0.214   3.111   8.403  0.7174 -0.8384 -0.7840
  129OSM   H17T13883   0.382   3.058   8.452  0.4333 -0.6786  0.9889
  129OSM   C18S13884   0.221   2.952   8.536  0.2277 -0.2979  0.2411
  129OSM   H18S13885   0.197   3.028   8.613  1.3419  1.0857 -0.7130
  129OSM   H18T13886   0.285   2.870   8.576 -0.0371 -2.0122 -2.5510
  129OSM   H18U13887   0.125   2.903   8.511 -1.6994  2.4899  1.6871
  129OSM    C1F13888   0.156   3.032   6.714 -0.0634 -0.1349 -0.5265
  129OSM     OF13889   0.189   2.932   6.660  0.2693  1.1047 -0.0991
  129OSM    C2F13890   0.021   3.057   6.767  0.5001 -0.6126 -0.1563
  129OSM    H2F13891  -0.040   3.051   6.674  0.1241  0.0325  0.0380
  129OSM    H2G13892   0.016   3.156   6.818  1.6675 -0.0471 -1.0812
  129OSM    C3F13893  -0.039   2.946   6.853 -0.1643  0.3584  0.0103
  129OSM    H3F13894  -0.063   2.859   6.788  1.8321 -0.1970 -0.0512
  129OSM    H3G13895  -0.138   2.980   6.888 -0.5170 -1.0541  0.4699
  129OSM    C4F13896   0.049   2.902   6.972  0.5404 -0.5462 -0.0849
  129OSM    H4F13897   0.147   2.862   6.940  0.0831 -1.9894  0.2649
  129OSM    H4G13898  -0.008   2.824   7.027  0.3498  1.2904  2.5252
  129OSM    C5F13899   0.082   3.012   7.072  0.4688  0.2366 -0.1548
  129OSM    H5F13900   0.149   3.084   7.020  2.1660  0.7289  2.5265
  129OSM    H5G13901   0.138   2.971   7.159 -1.7634  0.5152  1.5106
  129OSM    C6F13902  -0.036   3.085   7.130 -0.2155 -0.6429  0.2395
  129OSM    H6F13903  -0.102   3.010   7.180 -0.6767 -1.8406 -2.0496
  129OSM    H6G13904  -0.104   3.129   7.054  0.2695  1.4754  0.9900
  129OSM    C7F13905   0.004   3.194   7.227 -0.6539 -0.6126  0.2379
  129OSM    H7F13906   0.034   3.282   7.165 -3.1444  0.5475  0.5652
  129OSM    H7G13907   0.089   3.170   7.294  0.8296  3.4273  0.0912
  129OSM    C8F13908  -0.102   3.247   7.330 -0.7809 -0.3515 -0.3166
  129OSM    H8F13909  -0.187   3.282   7.268 -1.8905 -2.3658  0.0038
  129OSM    H8G13910  -0.057   3.337   7.378  1.4016 -0.4155 -2.0677
  129OSM    C9F13911  -0.140   3.132   7.432  0.5141  0.3557 -0.3142
  129OSM    H9F13912  -0.235   3.081   7.409  0.6968  0.4724 -1.3682
  129OSM   C10F13913  -0.069   3.094   7.539 -0.2690  0.2288 -0.1306
  129OSM   H10F13914  -0.105   3.011   7.602 -3.4514  2.5157  1.3356
  129OSM   C11F13915   0.060   3.151   7.596 -0.2080 -1.0744 -0.3375
  129OSM   H11F13916   0.099   3.238   7.538 -1.4737 -1.3819 -1.7109
  129OSM   H11G13917   0.143   3.078   7.591  0.5236 -0.2631 -0.3703
  129OSM   C12F13918   0.051   3.204   7.740 -0.2457 -0.0190  0.0846
  129OSM   H12F13919   0.005   3.305   7.740  0.2195  0.1969  0.2169
  129OSM   H12G13920   0.159   3.218   7.765  0.0699  0.2115 -1.3116
  129OSM   C13F13921  -0.003   3.094   7.835 -1.0671 -1.0740 -0.3109
  129OSM   H13F13922   0.063   3.006   7.820  2.6764  1.4681 -0.0949
  129OSM   H13G13923  -0.108   3.065   7.810 -1.3310  0.4370 -1.0124
  129OSM   C14F13924  -0.002   3.133   7.987  0.1836 -0.6289 -0.3122
  129OSM   H14F13925  -0.046   3.234   7.995  1.0010 -0.1850 -1.2551
  129OSM   H14G13926   0.101   3.139   8.028 -0.1927 -1.3988  0.8120
  129OSM   C15F13927  -0.085   3.033   8.074 -0.8424 -0.7103 -0.1451
  129OSM   H15F13928  -0.038   2.933   8.085 -1.6871 -0.9604  1.3990
  129OSM   H15G13929  -0.188   3.011   8.040 -1.0120 -1.2142  0.6804
  129OSM   C16F13930  -0.097   3.080   8.222 -0.1647  0.2475 -0.3758
  129OSM   H16F13931  -0.142   3.181   8.237  0.3136  0.8582 -2.5745
  129OSM   H16G13932   0.005   3.085   8.267 -1.2602  1.4966  2.1576
  129OSM   C17F13933  -0.187   2.981   8.310 -0.1865 -1.1958 -0.1928
  129OSM   H17F13934  -0.146   2.878   8.302  2.3914 -0.0954 -3.3565
  129OSM   H17G13935  -0.287   2.964   8.266  0.5263 -0.2880 -2.3232
  129OSM   C18F13936  -0.201   3.032   8.456 -0.3772 -0.1131  0.6968
  129OSM   H18F13937  -0.292   2.991   8.506 -1.6776  1.5269 -0.1807
  129OSM   H18G13938  -0.232   3.138   8.441  1.6761  0.7249  1.9185
  129OSM   H18H13939  -0.112   3.040   8.521  1.5544  2.0087 -1.9668
  130OSM      N13940   1.653   5.662   6.069  0.3885  0.4317 -0.2792
  130OSM    C1513941   1.548   5.764   6.102 -0.3546  0.2866  0.9433
  130OSM   H15A13942   1.587   5.843   6.165  0.0378 -0.0571  1.1335
  130OSM   H15B13943   1.473   5.718   6.163  2.4203 -3.6816  1.7641
  130OSM   H15C13944   1.525   5.812   6.008  0.9201  0.2663  0.6035
  130OSM    C1413945   1.699   5.616   6.202  0.1963  0.2170 -0.1230
  130OSM   H14A13946   1.613   5.605   6.266  0.9279  1.5060  1.1263
  130OSM   H14B13947   1.756   5.692   6.254 -2.0186  0.6831  1.7810
  130OSM   H14C13948   1.756   5.524   6.201  1.2688  0.8417 -1.6659
  130OSM    C1313949   1.578   5.545   6.001  0.1491 -0.4126 -0.0254
  130OSM   H13A13950   1.646   5.472   5.961 -0.1318 -0.1243 -1.0930
  130OSM   H13B13951   1.525   5.573   5.911  2.8551  0.1321 -1.5485
  130OSM   H13C13952   1.509   5.504   6.073  1.4109  0.8229  1.9870
  130OSM    C1213953   1.759   5.706   5.970 -0.5239  0.5269 -0.1198
  130OSM   H12A13954   1.711   5.711   5.873 -3.4750 -1.4880  1.1063
  130OSM   H12B13955   1.823   5.619   5.960  0.8923  1.4118  0.8107
  130OSM    C1113956   1.835   5.838   5.992 -0.3523 -0.4129 -0.8737
  130OSM   H11A13957   1.757   5.911   6.023  0.7986  1.6010 -2.4498
  130OSM   H11B13958   1.880   5.870   5.895  0.9704  0.9557  0.1436
  130OSM      P13959   2.091   5.807   6.071  0.2719  0.1622 -0.3536
  130OSM    O1313960   2.109   5.728   5.949 -0.5807  0.0822 -0.5412
  130OSM    O1413961   2.142   5.943   6.070 -0.2806 -0.6321 -0.2499
  130OSM    O1113962   2.143   5.728   6.202 -0.8180 -0.2238  0.4206
  130OSM    O1213963   1.934   5.818   6.093 -0.4542  0.2151 -0.6457
  130OSM    C1S13964   2.058   5.711   6.315  0.9697 -0.1676  0.9662
  130OSM    H1S13965   1.964   5.667   6.275  2.1922 -1.3607 -0.7120
  130OSM    H1T13966   2.027   5.813   6.348  0.3805 -0.4091  1.1869
  130OSM     NF13967   2.035   5.623   6.542  0.5250  0.4250  0.5315
  130OSM    HNF13968   2.069   5.684   6.613 -2.1783 -0.3159  2.6717
  130OSM    C2S13969   2.115   5.610   6.418 -0.3710  0.1597  0.6495
  130OSM    H2S13970   2.104   5.506   6.383 -1.3195  0.2895  0.5560
  130OSM    C3S13971   2.272   5.633   6.432  0.2983 -0.1271  0.1008
  130OSM    H3S13972   2.291   5.739   6.462 -0.8405  0.8345 -2.3168
  130OSM     O313973   2.354   5.619   6.313  0.9237 -0.1649 -0.4785
  130OSM    HO313974   2.289   5.635   6.244  0.6099  0.5612 -0.0296
  130OSM    C4S13975   2.338   5.534   6.531  0.8960  0.2362 -0.3121
  130OSM    H4S13976   2.348   5.429   6.498  0.2605 -0.7689  2.3757
  130OSM    C5S13977   2.380   5.572   6.653  0.1604  0.3123 -0.2532
  130OSM    H5S13978   2.363   5.676   6.683 -1.0092 -0.1227  0.6954
  130OSM    C6S13979   2.434   5.477   6.758 -0.0926  0.7676 -0.0635
  130OSM    H6S13980   2.531   5.513   6.798 -0.3124  1.7500 -0.3868
  130OSM    H6T13981   2.444   5.373   6.719 -1.6583  0.4158  0.4070
  130OSM    C7S13982   2.334   5.474   6.875 -0.4275  0.0467  0.1300
  130OSM    H7S13983   2.244   5.421   6.837  0.2006 -0.6120 -0.4674
  130OSM    H7T13984   2.305   5.569   6.925  0.2760 -0.6957  2.0512
  130OSM    C8S13985   2.402   5.403   7.001 -0.1233 -0.6424 -0.0062
  130OSM    H8S13986   2.500   5.454   7.016  0.4591 -1.8380  0.4104
  130OSM    H8T13987   2.420   5.297   6.975  0.6463 -0.7325  0.8419
  130OSM    C9S13988   2.314   5.403   7.126 -0.0772 -0.2015 -0.3635
  130OSM    H9S13989   2.229   5.332   7.111 -1.1052  1.0116 -0.4795
  130OSM    H9T13990   2.277   5.503   7.158 -0.8795 -0.8893  0.9850
  130OSM   C10S13991   2.382   5.335   7.247 -0.0364  0.5157  0.5828
  130OSM   H10S13992   2.484   5.375   7.265  0.1382 -0.7233  2.7608
  130OSM   H10T13993   2.399   5.229   7.218  1.0575  0.9117 -0.2692
  130OSM   C11S13994   2.302   5.355   7.378  0.2763  0.5982 -0.0359
  130OSM   H11S13995   2.205   5.300   7.388  1.2467 -0.9197  1.6314
  130OSM   H11T13996   2.291   5.462   7.407  2.2113  0.9800 -0.6180
  130OSM   C12S13997   2.390   5.291   7.486 -0.1896 -0.4034  0.0072
  130OSM   H12S13998   2.492   5.333   7.491 -0.3714  0.0104  0.3335
  130OSM   H12T13999   2.409   5.187   7.451  0.2200 -0.9903  1.8438
  130OSM   C13S14000   2.325   5.294   7.629 -1.4210  0.3441 -0.0188
  130OSM   H13S14001   2.225   5.245   7.633 -1.4293  0.3553  4.5004
  130OSM   H13T14002   2.308   5.402   7.649  1.0967  0.4833  1.7745
  130OSM   C14S14003   2.414   5.226   7.727 -0.3109  0.5443  0.2009
  130OSM   H14S14004   2.519   5.251   7.701  0.9292 -2.3325  1.9842
  130OSM   H14T14005   2.415   5.115   7.731 -1.1862  0.5477  0.8554
  130OSM   C15S14006   2.388   5.272   7.865  0.1139  0.1914 -0.2592
  130OSM   H15S14007   2.375   5.382   7.877 -3.0350 -0.1666  0.3974
  130OSM   H15T14008   2.470   5.247   7.936 -1.7818 -1.3152  1.5120
  130OSM   C16S14009   2.259   5.215   7.922 -0.5451 -0.2218 -1.3194
  130OSM   H16S14010   2.274   5.106   7.906  1.0902  0.0641 -1.8845
  130OSM   H16T14011   2.167   5.243   7.866 -1.7391 -3.4784 -1.2145
  130OSM   C17S14012   2.227   5.248   8.071  0.1930 -0.1777 -0.8979
  130OSM   H17S14013   2.331   5.257   8.109  1.1288  0.1626 -3.3552
  130OSM   H17T14014   2.174   5.163   8.120  0.7186  1.2824  2.4642
  130OSM   C18S14015   2.138   5.377   8.106 -0.0796 -0.4266 -0.2064
  130OSM   H18S14016   2.207   5.464   8.093  0.3704 -0.9440 -1.4194
  130OSM   H18T14017   2.086   5.383   8.204  0.1648  0.8400 -0.1367
  130OSM   H18U14018   2.058   5.388   8.030 -0.3849  2.8602  0.4280
  130OSM    C1F14019   1.916   5.565   6.556  0.1531 -0.9570 -0.2710
  130OSM     OF14020   1.876   5.493   6.471 -0.3267 -0.3827  0.1063
  130OSM    C2F14021   1.845   5.588   6.686  0.9824 -0.2999  0.3622
  130OSM    H2F14022   1.736   5.574   6.674  1.1859 -0.3228 -1.6941
  130OSM    H2G14023   1.868   5.694   6.711 -2.0137  1.1024 -2.2357
  130OSM    C3F14024   1.890   5.494   6.795  0.6892  0.3983 -0.0144
  130OSM    H3F14025   1.990   5.516   6.839  0.4139 -1.0220  1.4084
  130OSM    H3G14026   1.886   5.393   6.750  0.9540  1.1101 -1.7168
  130OSM    C4F14027   1.782   5.496   6.903  0.0327  0.3373  0.0128
  130OSM    H4F14028   1.685   5.453   6.870 -1.0329  4.1187 -2.4416
  130OSM    H4G14029   1.767   5.603   6.927  3.1169  0.4976  1.7233
  130OSM    C5F14030   1.828   5.430   7.038  0.2940  0.1913  0.3764
  130OSM    H5F14031   1.932   5.463   7.059 -0.0162  2.1728 -0.9397
  130OSM    H5G14032   1.826   5.320   7.020 -0.9551  0.7015 -3.8184
  130OSM    C6F14033   1.735   5.461   7.151  0.4136  0.0096 -1.0591
  130OSM    H6F14034   1.631   5.432   7.124  0.6531 -0.7612 -1.1817
  130OSM    H6G14035   1.743   5.568   7.179  0.7966 -0.2836  0.0226
  130OSM    C7F14036   1.770   5.378   7.276  0.7066  0.7808 -0.3717
  130OSM    H7F14037   1.864   5.416   7.322  1.4089 -0.0571 -1.0708
  130OSM    H7G14038   1.782   5.274   7.237  0.9203  1.1993 -1.4671
  130OSM    C8F14039   1.658   5.372   7.381 -0.5435  0.6978 -0.1499
  130OSM    H8F14040   1.685   5.288   7.448  0.3868  0.9467 -0.1948
  130OSM    H8G14041   1.559   5.348   7.336  0.7539 -1.9369 -1.8048
  130OSM    C9F14042   1.642   5.507   7.451 -0.1672 -1.0422  0.4231
  130OSM    H9F14043   1.568   5.567   7.397 -0.1036 -1.1604  0.2024
  130OSM   C10F14044   1.703   5.550   7.567  0.3926  0.1790 -0.1845
  130OSM   H10F14045   1.680   5.652   7.602  0.7158 -0.6013  2.5724
  130OSM   C11F14046   1.806   5.479   7.652  0.4576 -0.2701  0.8251
  130OSM   H11F14047   1.870   5.558   7.696  1.2208 -0.6670  0.4517
  130OSM   H11G14048   1.863   5.413   7.583 -0.1145 -0.8733  0.9139
  130OSM   C12F14049   1.743   5.389   7.758 -1.3648  0.5049 -0.0150
  130OSM   H12F14050   1.829   5.330   7.796 -1.9264 -0.1079  0.3305
  130OSM   H12G14051   1.662   5.322   7.720 -2.1417  1.3787  0.0716
  130OSM   C13F14052   1.682   5.468   7.874  0.1459 -0.1919 -0.3159
  130OSM   H13F14053   1.590   5.518   7.836  0.6695 -0.0785 -1.4677
  130OSM   H13G14054   1.749   5.547   7.914  1.9452 -2.3992  1.3453
  130OSM   C14F14055   1.638   5.379   7.993  0.4612 -1.3026 -0.3672
  130OSM   H14F14056   1.711   5.296   8.005  0.2688 -1.4511 -0.2137
  130OSM   H14G14057   1.539   5.334   7.971 -0.1620 -0.7325  1.1692
  130OSM   C15F14058   1.625   5.460   8.117  0.2683  0.0330  0.0413
  130OSM   H15F14059   1.569   5.391   8.184  1.4491 -0.6027  0.4109
  130OSM   H15G14060   1.563   5.549   8.094  1.8504  1.1081 -0.1848
  130OSM   C16F14061   1.753   5.506   8.188 -0.6029 -0.3541  0.5344
  130OSM   H16F14062   1.809   5.569   8.116 -1.6955 -0.7989 -0.7283
  130OSM   H16G14063   1.824   5.423   8.211 -0.6826 -0.4336  0.4911
  130OSM   C17F14064   1.714   5.574   8.318  0.7397 -0.1812  0.2173
  130OSM   H17F14065   1.638   5.505   8.361  0.9804 -0.6699 -0.1284
  130OSM   H17G14066   1.667   5.673   8.303 -1.1240 -0.6381  2.4491
  130OSM   C18F14067   1.835   5.587   8.412 -0.4926  0.1395 -0.1558
  130OSM   H18F14068   1.887   5.494   8.443  1.2806  1.7323  1.8724
  130OSM   H18G14069   1.806   5.647   8.500 -1.1165  1.2711 -1.1117
  130OSM   H18H14070   1.909   5.651   8.360  0.1675  1.0192  1.7655
  131OSM      N14071   1.625   2.019   5.827 -0.8517 -0.6516 -0.2245
  131OSM    C1514072   1.504   1.975   5.749 -0.1635 -0.0812  0.3804
  131OSM   H15A14073   1.527   1.994   5.645  1.2170  0.8050  0.8172
  131OSM   H15B14074   1.422   2.033   5.788  0.2295  0.8936 -0.2235
  131OSM   H15C14075   1.491   1.868   5.759 -0.1458  0.0258  1.8277
  131OSM    C1414076   1.609   1.945   5.958  0.2546  0.2954  0.0757
  131OSM   H14A14077   1.598   1.838   5.947 -1.6563  0.5305 -0.6086
  131OSM   H14B14078   1.518   1.968   6.011 -0.3077 -1.4929 -0.0475
  131OSM   H14C14079   1.686   1.963   6.031 -0.3242  1.9271  0.3397
  131OSM    C1314080   1.749   1.984   5.755 -0.4552  0.1937  0.0460
  131OSM   H13A14081   1.763   1.877   5.759 -1.2273 -0.0457 -2.3589
  131OSM   H13B14082   1.840   2.016   5.804 -0.4110 -0.9210  0.7350
  131OSM   H13C14083   1.755   2.014   5.652  2.6421 -0.2126  0.0052
  131OSM    C1214084   1.623   2.172   5.857  0.5295 -0.2065  0.2732
  131OSM   H12A14085   1.582   2.223   5.771 -0.7805 -0.1932  0.8822
  131OSM   H12B14086   1.726   2.204   5.863  0.3273  0.7205 -0.8011
  131OSM    C1114087   1.547   2.237   5.982 -0.4969  0.4244  0.4224
  131OSM   H11A14088   1.559   2.347   5.987  0.1272  0.4210 -0.6269
  131OSM   H11B14089   1.582   2.193   6.078 -0.6158 -0.9502 -0.1445
  131OSM      P14090   1.317   2.124   6.070  0.6154 -0.1057 -0.2761
  131OSM    O1314091   1.188   2.188   6.083 -0.0494 -0.8432  0.3154
  131OSM    O1414092   1.318   1.981   6.032 -0.9358 -0.3235  0.2254
  131OSM    O1114093   1.393   2.134   6.208  0.1647 -0.7150 -0.2555
  131OSM    O1214094   1.410   2.203   5.965  0.3897 -0.4847 -0.4183
  131OSM    C1S14095   1.341   2.188   6.329 -0.4263 -0.1763  1.0643
  131OSM    H1S14096   1.240   2.145   6.347 -0.7846 -0.6592 -1.7051
  131OSM    H1T14097   1.335   2.299   6.334  1.8530  0.0772 -0.5882
  131OSM     NF14098   1.351   2.185   6.573  0.3051 -0.2697  0.6551
  131OSM    HNF14099   1.393   2.260   6.623 -0.2359 -0.1050  0.8788
  131OSM    C2S14100   1.420   2.148   6.452  0.3193 -0.3575 -0.6440
  131OSM    H2S14101   1.423   2.038   6.467 -0.6774  0.0153  3.6552
  131OSM    C3S14102   1.566   2.196   6.454  0.0151  0.5435  0.2369
  131OSM    H3S14103   1.569   2.307   6.457 -1.5153  0.5840  1.5330
  131OSM     O314104   1.639   2.159   6.334  0.3360  0.4651 -0.2726
  131OSM    HO314105   1.566   2.126   6.281 -0.4843 -0.1480  1.1864
  131OSM    C4S14106   1.640   2.139   6.574 -0.5092  0.4549 -0.2037
  131OSM    H4S14107   1.618   2.191   6.669  3.3962  0.7873  0.6849
  131OSM    C5S14108   1.740   2.049   6.588  0.6689  0.9119  0.6094
  131OSM    H5S14109   1.761   1.994   6.495 -0.7041  0.8267  0.3169
  131OSM    C6S14110   1.813   2.005   6.709  0.4122 -0.0870  0.2357
  131OSM    H6S14111   1.922   2.019   6.691  0.3545 -1.5670 -1.6146
  131OSM    H6T14112   1.802   1.894   6.704  1.8187 -0.1951 -1.2651
  131OSM    C7S14113   1.783   2.076   6.852 -0.2314 -0.2174  0.2548
  131OSM    H7S14114   1.675   2.057   6.871 -0.2023  1.7663  2.8646
  131OSM    H7T14115   1.800   2.185   6.839  0.5311  0.3231  4.3831
  131OSM    C8S14116   1.870   2.022   6.969 -0.5213  0.4679 -0.5899
  131OSM    H8S14117   1.975   2.054   6.958 -0.0987 -0.7342 -0.2665
  131OSM    H8T14118   1.852   1.912   6.961 -2.8250  0.8586 -1.6006
  131OSM    C9S14119   1.818   2.062   7.116  0.3042 -0.0371  0.5923
  131OSM    H9S14120   1.893   2.060   7.198 -0.1380 -1.1787  0.9868
  131OSM    H9T14121   1.740   1.989   7.147 -0.3602  0.0386 -0.8135
  131OSM   C10S14122   1.754   2.201   7.113 -0.1739  0.0480  0.7892
  131OSM   H10S14123   1.656   2.205   7.061  1.1498  1.5754 -1.8088
  131OSM   H10T14124   1.824   2.274   7.067  0.0373 -1.0823 -0.7908
  131OSM   C11S14125   1.740   2.259   7.254 -0.1603 -0.4932 -0.1234
  131OSM   H11S14126   1.680   2.352   7.246  0.5062 -0.1862 -2.1462
  131OSM   H11T14127   1.841   2.278   7.297 -0.4859 -0.6825  0.7264
  131OSM   C12S14128   1.664   2.170   7.340  0.6880 -0.2382 -0.5249
  131OSM   H12S14129   1.708   2.068   7.341 -1.7496 -1.3908 -1.7720
  131OSM   H12T14130   1.560   2.154   7.305  0.2882 -0.3590  0.6720
  131OSM   C13S14131   1.665   2.225   7.485 -0.4240 -0.4333 -0.2554
  131OSM   H13S14132   1.621   2.327   7.481  0.1852 -0.2053 -1.5458
  131OSM   H13T14133   1.765   2.245   7.529 -1.2826  0.6642  1.3116
  131OSM   C14S14134   1.595   2.135   7.585  0.2192  0.1745  0.0763
  131OSM   H14S14135   1.486   2.122   7.568 -0.0463  0.9606  1.0561
  131OSM   H14T14136   1.585   2.194   7.678  0.2033  1.5189 -0.7495
  131OSM   C15S14137   1.654   1.988   7.613  0.1535  0.3188 -0.2321
  131OSM   H15S14138   1.650   1.922   7.524  3.1334 -1.2222  0.6465
  131OSM   H15T14139   1.605   1.939   7.700  2.6757  0.2806  1.2536
  131OSM   C16S14140   1.801   1.991   7.661 -0.3824 -0.1180  0.1676
  131OSM   H16S14141   1.871   2.012   7.578  1.7458  0.7319  2.0579
  131OSM   H16T14142   1.824   1.888   7.696  0.0653 -0.5300 -1.2971
  131OSM   C17S14143   1.837   2.084   7.771 -0.4844  0.3426  0.0598
  131OSM   H17S14144   1.779   2.064   7.864 -0.1560  0.5147  0.3064
  131OSM   H17T14145   1.814   2.186   7.734 -2.6085  0.4161  1.4140
  131OSM   C18S14146   1.985   2.067   7.812  0.5881  0.3310 -0.3521
  131OSM   H18S14147   2.002   2.156   7.876 -0.8619  0.4333 -0.0777
  131OSM   H18T14148   2.052   2.064   7.723  2.9407 -1.3373  1.3416
  131OSM   H18U14149   1.993   1.977   7.878 -4.7103  0.6995  1.2118
  131OSM    C1F14150   1.228   2.142   6.606  0.1186 -0.0590 -0.3355
  131OSM     OF14151   1.179   2.048   6.550  0.0336  0.7872 -0.5291
  131OSM    C2F14152   1.158   2.214   6.719 -0.5188 -0.3806  0.5898
  131OSM    H2F14153   1.051   2.193   6.697 -0.4657 -1.1781  1.0966
  131OSM    H2G14154   1.182   2.323   6.717 -1.8745 -0.0658  0.1332
  131OSM    C3F14155   1.196   2.149   6.856  0.8401 -0.5218 -0.2327
  131OSM    H3F14156   1.298   2.166   6.895 -0.3387 -0.8237  3.3294
  131OSM    H3G14157   1.181   2.039   6.842 -1.3355 -0.5022  1.4741
  131OSM    C4F14158   1.100   2.198   6.969 -0.3551  0.2475  0.3696
  131OSM    H4F14159   0.996   2.178   6.934 -0.1120 -3.9258  1.5310
  131OSM    H4G14160   1.112   2.305   6.993 -2.6885  1.3001 -2.5049
  131OSM    C5F14161   1.125   2.108   7.095 -0.1039  0.3225  0.2155
  131OSM    H5F14162   1.228   2.136   7.123  0.6419 -0.0427 -1.9659
  131OSM    H5G14163   1.129   2.006   7.052  0.8665  0.9113 -1.1820
  131OSM    C6F14164   1.022   2.125   7.203  0.3005  0.1270 -0.4971
  131OSM    H6F14165   0.923   2.089   7.166  0.2109  1.0572 -1.1934
  131OSM    H6G14166   1.018   2.234   7.225 -0.1886  0.3409 -1.6088
  131OSM    C7F14167   1.058   2.048   7.329 -0.8513 -0.3113 -0.2578
  131OSM    H7F14168   1.154   2.084   7.372 -0.5624 -0.7905 -0.4780
  131OSM    H7G14169   1.077   1.945   7.291 -2.1217 -1.7335  2.6877
  131OSM    C8F14170   0.950   2.037   7.439  0.1255 -0.3756 -0.4968
  131OSM    H8F14171   0.859   2.006   7.382 -0.5687  0.9586 -0.1579
  131OSM    H8G14172   0.951   2.144   7.471  3.0933  0.9857 -4.2762
  131OSM    C9F14173   0.965   1.942   7.550  0.6768  0.2308 -0.4690
  131OSM    H9F14174   0.971   1.835   7.525 -2.7587 -0.4439  1.0019
  131OSM   C10F14175   0.966   1.966   7.685 -0.1869 -0.3607 -0.6278
  131OSM   H10F14176   0.988   1.890   7.762 -0.8857 -2.0785 -2.0617
  131OSM   C11F14177   0.936   2.102   7.750 -0.0520  0.2421  0.2016
  131OSM   H11F14178   0.828   2.129   7.752 -0.3347 -0.5175 -1.9000
  131OSM   H11G14179   0.983   2.178   7.683 -0.4456  0.3297  0.0192
  131OSM   C12F14180   0.994   2.130   7.887 -0.5419  0.1203 -0.6145
  131OSM   H12F14181   0.971   2.236   7.911 -0.4971 -0.4729  2.5189
  131OSM   H12G14182   1.105   2.122   7.880 -0.4853  0.2463  0.0891
  131OSM   C13F14183   0.922   2.037   7.986 -1.2082 -0.4609 -0.2243
  131OSM   H13F14184   0.936   1.927   7.979 -0.7197 -0.5922  1.8928
  131OSM   H13G14185   0.814   2.056   7.968 -1.3263  0.7795  1.4981
  131OSM   C14F14186   0.959   2.077   8.129  0.7009  0.3173  0.0137
  131OSM   H14F14187   0.922   2.176   8.163 -0.1328 -0.6692  2.1546
  131OSM   H14G14188   1.065   2.070   8.159  0.5289  1.5806  1.0000
  131OSM   C15F14189   0.875   1.976   8.224 -0.4606 -0.1114 -0.0731
  131OSM   H15F14190   0.893   1.875   8.181 -1.2362  0.3424 -1.5453
  131OSM   H15G14191   0.766   1.992   8.204 -0.7348 -1.2672  0.3983
  131OSM   C16F14192   0.892   1.997   8.371 -0.4995  0.1873  0.7769
  131OSM   H16F14193   0.843   2.094   8.394 -2.4835 -0.7348  0.6551
  131OSM   H16G14194   1.002   2.007   8.381  0.0627 -2.9499 -0.9518
  131OSM   C17F14195   0.848   1.882   8.463 -0.4226 -0.3188 -0.4100
  131OSM   H17F14196   0.738   1.874   8.447 -0.8934  1.1349  1.6295
  131OSM   H17G14197   0.864   1.932   8.561 -2.2249  1.0743 -0.7486
  131OSM   C18F14198   0.910   1.744   8.451 -0.3136  0.3176  0.4506
  131OSM   H18F14199   0.876   1.680   8.367  1.9980  2.8842 -2.7154
  131OSM   H18G14200   0.896   1.687   8.546  0.3985  0.6014  0.7317
  131OSM   H18H14201   1.019   1.750   8.432 -0.7584  2.4300 -2.0700
  132OSM      N14202   2.849   3.416   6.122 -0.5881  0.2939 -0.1181
  132OSM    C1514203   2.831   3.312   6.021 -0.2184 -0.6058  0.4878
  132OSM   H15A14204   2.855   3.343   5.921 -1.3311  2.0217  0.9608
  132OSM   H15B14205   2.729   3.276   6.027  0.2647 -1.9923  0.8631
  132OSM   H15C14206   2.897   3.227   6.037 -1.6626 -2.2425 -1.6706
  132OSM    C1414207   2.984   3.459   6.117  0.1587 -1.0683  0.6642
  132OSM   H14A14208   3.025   3.494   6.023 -0.8509  2.8944  1.5321
  132OSM   H14B14209   3.040   3.371   6.144 -0.6318 -1.3432  1.4612
  132OSM   H14C14210   3.000   3.546   6.179  3.5963 -0.3641 -0.9433
  132OSM    C1314211   2.755   3.531   6.090  0.3276  0.0662 -0.0706
  132OSM   H13A14212   2.762   3.602   6.171  1.5990  1.8386 -1.6307
  132OSM   H13B14213   2.652   3.503   6.078 -0.2008  1.8633 -0.0846
  132OSM   H13C14214   2.775   3.588   6.000  1.2872  0.2269  0.2236
  132OSM    C1214215   2.817   3.377   6.269  0.3126  0.1936 -0.4581
  132OSM   H12A14216   2.828   3.461   6.336 -0.3877  0.3190 -0.4893
  132OSM   H12B14217   2.881   3.300   6.310 -1.9640 -1.3805  0.4025
  132OSM    C1114218   2.672   3.330   6.282 -0.3747  0.1388 -0.0464
  132OSM   H11A14219   2.594   3.396   6.237 -0.7368  0.6943  1.3300
  132OSM   H11B14220   2.640   3.335   6.389 -0.0393 -0.6552  0.0974
  132OSM      P14221   2.686   3.073   6.320 -0.4693 -0.0643  0.0898
  132OSM    O1314222   2.722   2.963   6.225 -0.5740 -0.6611 -0.3283
  132OSM    O1414223   2.786   3.112   6.426 -0.1534 -0.0365 -0.3257
  132OSM    O1114224   2.546   3.045   6.377  0.2733  0.2794 -0.4997
  132OSM    O1214225   2.651   3.195   6.233 -0.1205  0.2602 -0.7241
  132OSM    C1S14226   2.533   2.969   6.499  0.2574  0.1752 -0.1588
  132OSM    H1S14227   2.618   2.900   6.516 -0.9879 -1.1528  0.8121
  132OSM    H1T14228   2.448   2.899   6.493  2.4476 -2.6281 -0.7566
  132OSM     NF14229   2.517   2.983   6.751  0.3396 -0.1859 -0.6032
  132OSM    HNF14230   2.446   2.922   6.785  1.6565 -2.3853 -1.5712
  132OSM    C2S14231   2.510   3.060   6.627 -0.2726  0.0519 -0.0207
  132OSM    H2S14232   2.597   3.130   6.631  0.2746 -0.6741  1.6956
  132OSM    C3S14233   2.379   3.148   6.620  0.3701 -0.3077  1.4022
  132OSM    H3S14234   2.292   3.079   6.620  0.1250 -0.3488 -3.1953
  132OSM     O314235   2.372   3.232   6.502 -0.1790 -0.0441  0.4430
  132OSM    HO314236   2.442   3.197   6.445  0.4470  0.4610  0.8898
  132OSM    C4S14237   2.373   3.238   6.737 -0.0029  0.2237 -0.1774
  132OSM    H4S14238   2.468   3.292   6.745  1.4124 -1.9960 -0.9116
  132OSM    C5S14239   2.287   3.252   6.839  0.3799 -0.3687  0.2818
  132OSM    H5S14240   2.197   3.189   6.832  2.2601 -3.1031 -0.8164
  132OSM    C6S14241   2.298   3.348   6.953 -0.1434  0.2652 -0.2579
  132OSM    H6S14242   2.284   3.285   7.044 -0.5484 -0.8616 -1.0863
  132OSM    H6T14243   2.222   3.428   6.964 -1.0985 -0.5073 -1.1060
  132OSM    C7S14244   2.437   3.409   6.969 -0.2258 -0.5311  0.4018
  132OSM    H7S14245   2.475   3.469   6.884  2.8331 -0.8971  1.3901
  132OSM    H7T14246   2.509   3.326   6.982  0.3497  0.1214  1.5192
  132OSM    C8S14247   2.462   3.501   7.084  0.1229  0.2683  0.0251
  132OSM    H8S14248   2.433   3.453   7.180  0.7884  1.0808  0.6502
  132OSM    H8T14249   2.398   3.590   7.064  1.5480  0.6523 -3.5505
  132OSM    C9S14250   2.616   3.541   7.092 -0.2675  0.3688  0.0118
  132OSM    H9S14251   2.636   3.590   6.994 -0.1160 -2.1555 -1.3044
  132OSM    H9T14252   2.675   3.448   7.106  0.6593  0.9433  0.0835
  132OSM   C10S14253   2.648   3.634   7.210 -0.1670  0.5717  0.1066
  132OSM   H10S14254   2.577   3.720   7.210 -3.0693 -1.5461  3.0012
  132OSM   H10T14255   2.751   3.676   7.208 -0.0607  0.4739  1.7488
  132OSM   C11S14256   2.619   3.564   7.348 -0.2735 -0.1426 -0.0296
  132OSM   H11S14257   2.689   3.479   7.367 -0.4381 -0.1065  0.7873
  132OSM   H11T14258   2.519   3.516   7.354 -0.7317  0.8432  0.4415
  132OSM   C12S14259   2.647   3.666   7.462 -0.4032 -0.1838 -0.0959
  132OSM   H12S14260   2.555   3.724   7.483 -0.0522  1.1156 -2.0061
  132OSM   H12T14261   2.723   3.736   7.422 -0.0100 -1.1737 -1.1410
  132OSM   C13S14262   2.696   3.592   7.591 -0.1096  0.3362  0.2199
  132OSM   H13S14263   2.787   3.534   7.563  0.8581  0.5379  2.7186
  132OSM   H13T14264   2.625   3.517   7.630  2.7612 -0.8824  3.6681
  132OSM   C14S14265   2.741   3.687   7.708 -0.0287  0.4669  0.0878
  132OSM   H14S14266   2.650   3.740   7.744  0.8982  2.0747  0.1346
  132OSM   H14T14267   2.797   3.769   7.658  1.7924 -0.4130  0.6054
  132OSM   C15S14268   2.825   3.620   7.819 -0.2615 -0.4185  0.1013
  132OSM   H15S14269   2.910   3.558   7.782 -1.3708 -2.7677  1.2820
  132OSM   H15T14270   2.753   3.556   7.873  0.1923 -0.0253  1.2031
  132OSM   C16S14271   2.874   3.723   7.918 -0.3452 -0.1225 -0.1781
  132OSM   H16S14272   2.797   3.797   7.950 -3.1463 -3.2603  0.9520
  132OSM   H16T14273   2.950   3.782   7.862 -1.5274  0.5572 -1.1185
  132OSM   C17S14274   2.951   3.660   8.037  0.4139  0.5841 -0.0400
  132OSM   H17S14275   3.026   3.590   7.997 -0.0670  0.0851 -0.0740
  132OSM   H17T14276   2.878   3.603   8.098  0.8379  0.4818  0.3813
  132OSM   C18S14277   3.027   3.763   8.126  0.3667 -0.0156 -0.5882
  132OSM   H18S14278   2.955   3.830   8.176 -0.8988 -1.4340 -0.4486
  132OSM   H18T14279   3.096   3.812   8.054 -1.1786 -0.0236 -2.1348
  132OSM   H18U14280   3.088   3.703   8.198 -0.6470  0.2919  0.5586
  132OSM    C1F14281   2.639   2.939   6.785  0.6861  0.4848 -0.6383
  132OSM     OF14282   2.733   2.966   6.721  0.2228 -0.7051  0.4324
  132OSM    C2F14283   2.659   2.858   6.908  0.3910 -0.0100 -0.5617
  132OSM    H2F14284   2.767   2.829   6.908  0.8944  1.7639 -0.8070
  132OSM    H2G14285   2.586   2.774   6.905  1.9485 -1.4763  0.3145
  132OSM    C3F14286   2.638   2.938   7.041  0.2737 -0.0234 -0.2734
  132OSM    H3F14287   2.648   2.879   7.134 -0.3312  0.4377  0.0935
  132OSM    H3G14288   2.536   2.979   7.057  0.7321  1.1154 -0.1631
  132OSM    C4F14289   2.734   3.055   7.053 -0.4141  0.4754 -0.8781
  132OSM    H4F14290   2.730   3.130   6.972  1.7951  2.5705  0.8220
  132OSM    H4G14291   2.837   3.013   7.057 -0.8114 -0.5231 -0.5698
  132OSM    C5F14292   2.692   3.142   7.181  0.8210 -0.0282  0.1390
  132OSM    H5F14293   2.590   3.184   7.177  0.8687  0.2789  1.5456
  132OSM    H5G14294   2.767   3.224   7.188  2.2667 -1.2844  0.0337
  132OSM    C6F14295   2.710   3.074   7.319  0.1055 -1.2414  0.4050
  132OSM    H6F14296   2.811   3.027   7.316  0.4581 -0.4919  0.1221
  132OSM    H6G14297   2.639   2.989   7.321  1.5503 -2.4916  0.8272
  132OSM    C7F14298   2.717   3.174   7.439  0.5935 -0.2843  0.3541
  132OSM    H7F14299   2.634   3.247   7.430  1.8759  1.0673 -1.1598
  132OSM    H7G14300   2.806   3.233   7.409  1.1744 -0.5744  1.4343
  132OSM    C8F14301   2.724   3.113   7.579  0.3045  0.3542 -0.2720
  132OSM    H8F14302   2.828   3.081   7.602 -0.1430  0.1932  1.6559
  132OSM    H8G14303   2.648   3.032   7.582  0.7429 -0.0487 -0.0107
  132OSM    C9F14304   2.693   3.224   7.678 -0.8842 -0.0560  0.1851
  132OSM    H9F14305   2.631   3.306   7.640 -0.0905  0.5592  0.2076
  132OSM   C10F14306   2.727   3.229   7.806  0.3496  0.1353  0.2431
  132OSM   H10F14307   2.688   3.315   7.862 -0.4703 -0.1105  0.0605
  132OSM   C11F14308   2.809   3.126   7.888  0.1842 -0.3168  0.5553
  132OSM   H11F14309   2.828   3.029   7.838 -2.5294 -2.3727  3.1710
  132OSM   H11G14310   2.749   3.085   7.972 -0.6466  0.7792  0.5206
  132OSM   C12F14311   2.934   3.185   7.959 -0.2943 -0.3118  0.1253
  132OSM   H12F14312   3.009   3.214   7.883 -0.2494 -1.8907 -0.4746
  132OSM   H12G14313   2.969   3.092   8.009  0.2996 -1.3678 -2.1376
  132OSM   C13F14314   2.899   3.296   8.065 -0.1882 -0.4757 -0.6589
  132OSM   H13F14315   2.802   3.281   8.118 -0.8818  1.6071 -1.2306
  132OSM   H13G14316   2.885   3.394   8.015 -0.7110 -0.5446 -0.6619
  132OSM   C14F14317   3.011   3.313   8.174  0.0112  0.0579  0.5036
  132OSM   H14F14318   2.992   3.406   8.231  0.2931  1.5361 -1.6856
  132OSM   H14G14319   3.111   3.331   8.129 -1.0450  0.4139 -1.8996
  132OSM   C15F14320   3.015   3.203   8.278  0.1712 -0.3011 -0.0537
  132OSM   H15F14321   3.074   3.124   8.228 -0.7105 -0.1823 -1.3275
  132OSM   H15G14322   2.913   3.159   8.292 -0.7110  2.1782  2.2409
  132OSM   C16F14323   3.075   3.243   8.418 -0.5801  0.5060  0.3070
  132OSM   H16F14324   3.060   3.147   8.472  2.1966 -0.1400  0.0841
  132OSM   H16G14325   3.014   3.316   8.475 -1.6908 -1.1196  1.2943
  132OSM   C17F14326   3.223   3.292   8.403  0.6582 -0.3678  1.1786
  132OSM   H17F14327   3.227   3.391   8.352 -1.5123 -0.2373  1.1729
  132OSM   H17G14328   3.280   3.213   8.350 -1.2383 -0.4608 -0.8517
  132OSM   C18F14329   3.290   3.313   8.536  0.0653  0.0102  0.5474
  132OSM   H18F14330   3.247   3.233   8.601  0.2483  0.3278  1.0637
  132OSM   H18G14331   3.252   3.404   8.586  2.5098  0.2694  2.0958
  132OSM   H18H14332   3.401   3.316   8.530 -0.0417  1.7686 -2.0244
  133OSM      N14333   2.247   4.696   6.411 -0.0318 -0.4145 -0.0017
  133OSM    C1514334   2.145   4.769   6.320 -0.1293 -1.1350 -0.8857
  133OSM   H15A14335   2.046   4.738   6.349  0.0031  0.8882  2.1651
  133OSM   H15B14336   2.170   4.759   6.215  1.9488 -1.8347 -0.3754
  133OSM   H15C14337   2.145   4.874   6.346 -1.1768 -1.3133 -0.1002
  133OSM    C1414338   2.388   4.730   6.374 -0.0167  0.0374 -0.2216
  133OSM   H14A14339   2.426   4.668   6.295  1.3505 -2.9382  2.5331
  133OSM   H14B14340   2.449   4.697   6.457  2.5545  0.2618 -1.8991
  133OSM   H14C14341   2.402   4.834   6.346 -1.0345  0.5879  1.1873
  133OSM    C1314342   2.233   4.730   6.552 -0.6392  0.2398 -0.1615
  133OSM   H13A14343   2.277   4.827   6.569  2.0644 -1.3125  2.9086
  133OSM   H13B14344   2.297   4.662   6.606 -0.3985 -1.9401 -2.9328
  133OSM   H13C14345   2.133   4.715   6.591  0.1320 -1.7338  1.2198
  133OSM    C1214346   2.213   4.556   6.401  0.0844 -0.3581  0.2974
  133OSM   H12A14347   2.114   4.539   6.439 -0.6306 -0.5376 -1.5682
  133OSM   H12B14348   2.275   4.495   6.466 -0.1722  0.1891  1.0664
  133OSM    C1114349   2.228   4.493   6.257 -0.0576  0.3664 -0.4294
  133OSM   H11A14350   2.179   4.562   6.185 -0.5109 -0.1260 -0.5945
  133OSM   H11B14351   2.175   4.395   6.254 -0.2758  0.2961  2.5295
  133OSM      P14352   2.440   4.329   6.233  0.2918 -0.4539 -0.5712
  133OSM    O1314353   2.358   4.236   6.156 -0.4670  0.1839  0.2090
  133OSM    O1414354   2.570   4.351   6.171  0.2987 -0.1796 -0.2123
  133OSM    O1114355   2.440   4.294   6.387 -0.4678  0.1408 -0.0773
  133OSM    O1214356   2.370   4.466   6.232  0.2268 -0.2916 -0.1898
  133OSM    C1S14357   2.528   4.376   6.469 -0.2136  0.0180  1.0381
  133OSM    H1S14358   2.482   4.477   6.474 -1.2186 -0.4779  2.3857
  133OSM    H1T14359   2.628   4.391   6.422  0.1156  1.5408  2.1548
  133OSM     NF14360   2.613   4.420   6.696 -0.7879  0.2276  0.4663
  133OSM    HNF14361   2.712   4.408   6.707 -1.0017 -1.7603  0.5239
  133OSM    C2S14362   2.548   4.320   6.609 -0.0176 -0.3996  0.7413
  133OSM    H2S14363   2.448   4.300   6.652 -0.9097 -0.6747 -1.3778
  133OSM    C3S14364   2.626   4.186   6.599 -0.5045  0.3392 -0.3345
  133OSM    H3S14365   2.725   4.201   6.549  0.0774  0.0497  0.6986
  133OSM     O314366   2.550   4.094   6.518  0.3904 -0.2456  0.6576
  133OSM    HO314367   2.480   4.145   6.477  1.0701 -0.6760 -1.1475
  133OSM    C4S14368   2.651   4.127   6.741  0.7134  0.5713 -0.2610
  133OSM    H4S14369   2.739   4.173   6.789  0.5606  0.4473  0.1397
  133OSM    C5S14370   2.585   4.020   6.805 -0.7781 -1.0292  0.3148
  133OSM    H5S14371   2.504   3.972   6.747 -0.3162  1.1285 -2.3218
  133OSM    C6S14372   2.625   3.959   6.942 -0.5216 -0.0454 -0.0820
  133OSM    H6S14373   2.720   3.999   6.984 -0.6245  0.0595  0.0532
  133OSM    H6T14374   2.646   3.851   6.930  2.4423 -0.1775  3.9760
  133OSM    C7S14375   2.512   3.970   7.048  0.5984  0.2250 -0.3702
  133OSM    H7S14376   2.533   3.901   7.133  0.5655  0.4738 -0.1613
  133OSM    H7T14377   2.406   3.968   7.014 -0.0573  3.6550  1.0341
  133OSM    C8S14378   2.503   4.113   7.098  0.2719 -0.0800  0.2015
  133OSM    H8S14379   2.471   4.174   7.011 -1.7953 -2.5865 -0.9288
  133OSM    H8T14380   2.597   4.158   7.137 -0.4866  1.9783 -0.2294
  133OSM    C9S14381   2.400   4.126   7.211 -0.8482 -0.5275 -0.4875
  133OSM    H9S14382   2.296   4.113   7.175 -0.7064 -1.0430 -0.7235
  133OSM    H9T14383   2.412   4.231   7.244  1.2928 -0.4743 -1.3158
  133OSM   C10S14384   2.433   4.040   7.331  0.0832 -0.3143 -0.3707
  133OSM   H10S14385   2.541   4.026   7.353  0.3121  1.6503 -0.0288
  133OSM   H10T14386   2.383   3.943   7.309 -0.7111  0.1743 -0.7854
  133OSM   C11S14387   2.365   4.098   7.467 -0.2666  0.5478  0.2772
  133OSM   H11S14388   2.415   4.196   7.482 -1.0060  0.9367  0.2466
  133OSM   H11T14389   2.397   4.026   7.546  2.3823 -0.5840 -1.6936
  133OSM   C12S14390   2.208   4.112   7.454  1.0335  0.6642 -0.4247
  133OSM   H12S14391   2.169   4.008   7.440  0.9922  0.6142  0.0401
  133OSM   H12T14392   2.182   4.166   7.361  1.5739 -1.5223 -1.9171
  133OSM   C13S14393   2.131   4.157   7.578 -0.7237  0.2864  0.9292
  133OSM   H13S14394   2.028   4.162   7.535  0.3184  0.2179 -1.7478
  133OSM   H13T14395   2.166   4.259   7.606  2.8505 -0.3150 -0.8976
  133OSM   C14S14396   2.128   4.048   7.689  0.2211  0.5658  0.2685
  133OSM   H14S14397   2.230   4.011   7.712 -0.8586 -1.3305  2.4615
  133OSM   H14T14398   2.068   3.961   7.654 -1.7398  0.8920  2.5228
  133OSM   C15S14399   2.057   4.088   7.820  0.4479  0.2024 -0.3389
  133OSM   H15S14400   1.954   4.112   7.785  1.1271  1.9329 -1.2831
  133OSM   H15T14401   2.090   4.186   7.861 -1.9199  1.4718 -1.2512
  133OSM   C16S14402   2.058   3.982   7.935  0.2215  0.3215 -0.2900
  133OSM   H16S14403   1.999   4.032   8.015 -0.6961 -0.2286 -0.5987
  133OSM   H16T14404   2.164   3.962   7.961  0.3667 -0.0061 -1.1015
  133OSM   C17S14405   1.991   3.848   7.891 -0.0441  0.2836 -0.2151
  133OSM   H17S14406   2.052   3.808   7.807 -1.5011  0.0306 -1.1880
  133OSM   H17T14407   1.884   3.870   7.872 -0.0393  2.1252  1.5602
  133OSM   C18S14408   2.000   3.756   8.011 -0.0033  0.8077  0.3273
  133OSM   H18S14409   2.104   3.723   8.031 -0.4202 -0.3235  0.7285
  133OSM   H18T14410   1.940   3.664   7.995  3.0403 -1.7915  2.5166
  133OSM   H18U14411   1.966   3.810   8.102 -2.0926  1.0814 -0.5526
  133OSM    C1F14412   2.554   4.526   6.734  0.3465 -0.2731  0.4876
  133OSM     OF14413   2.436   4.540   6.706  0.4200 -0.1020 -0.5449
  133OSM    C2F14414   2.635   4.639   6.786  0.5317  0.4197  0.5094
  133OSM    H2F14415   2.600   4.730   6.734  0.3549  0.0279 -0.0558
  133OSM    H2G14416   2.739   4.637   6.748  0.2792 -0.0309 -0.1795
  133OSM    C3F14417   2.613   4.650   6.935  0.1818  0.2797 -0.1017
  133OSM    H3F14418   2.505   4.641   6.958 -0.2417  1.4351 -1.4753
  133OSM    H3G14419   2.649   4.751   6.964 -2.5499  0.9564  1.3279
  133OSM    C4F14420   2.684   4.548   7.019 -0.5830  0.1762  0.3380
  133OSM    H4F14421   2.786   4.588   7.038 -0.1078  0.0097 -1.6434
  133OSM    H4G14422   2.700   4.447   6.974  1.3795  0.5060  0.1739
  133OSM    C5F14423   2.608   4.516   7.151 -0.3163  0.2267 -0.0810
  133OSM    H5F14424   2.510   4.466   7.139 -0.6253  0.5701  0.9444
  133OSM    H5G14425   2.575   4.619   7.175  0.5466  1.6138 -4.1019
  133OSM    C6F14426   2.693   4.458   7.276  0.3402 -0.6200  0.5164
  133OSM    H6F14427   2.793   4.505   7.284  0.8654 -1.3916 -1.2503
  133OSM    H6G14428   2.708   4.352   7.248  0.3666 -1.9244  4.7056
  133OSM    C7F14429   2.613   4.457   7.405 -0.3937 -0.0720 -0.2798
  133OSM    H7F14430   2.524   4.391   7.400 -0.7196  0.4183 -0.9459
  133OSM    H7G14431   2.577   4.562   7.417  0.2918  0.3129 -1.4823
  133OSM    C8F14432   2.700   4.412   7.523 -0.1918 -0.5638  0.0279
  133OSM    H8F14433   2.655   4.444   7.619 -2.3620  1.7032 -1.6218
  133OSM    H8G14434   2.790   4.477   7.517 -0.8774  0.2782 -2.7112
  133OSM    C9F14435   2.724   4.263   7.515  0.1284 -0.3237 -0.2936
  133OSM    H9F14436   2.744   4.223   7.415 -0.7052 -4.3503  0.9610
  133OSM   C10F14437   2.700   4.170   7.613  0.2973 -0.0730  0.1964
  133OSM   H10F14438   2.715   4.066   7.583  1.7274  0.6609 -1.9100
  133OSM   C11F14439   2.657   4.201   7.753  0.7613  0.4738  0.0277
  133OSM   H11F14440   2.548   4.178   7.754  0.8273  0.1091 -0.6308
  133OSM   H11G14441   2.682   4.304   7.786 -2.0796  0.7254  1.6613
  133OSM   C12F14442   2.718   4.097   7.855  0.0834  0.3050 -0.1076
  133OSM   H12F14443   2.686   3.992   7.836  2.0759 -0.5185  0.8185
  133OSM   H12G14444   2.671   4.124   7.952 -0.0573  1.2664 -0.4272
  133OSM   C13F14445   2.872   4.107   7.886 -1.0851  0.9978  0.2964
  133OSM   H13F14446   2.935   4.071   7.802  1.6245  1.7087  1.8867
  133OSM   H13G14447   2.899   4.048   7.977  3.4092  2.6931  0.3031
  133OSM   C14F14448   2.921   4.250   7.927  0.1227 -0.3667 -0.6854
  133OSM   H14F14449   2.897   4.312   7.838  0.1563  0.1292 -0.3511
  133OSM   H14G14450   3.029   4.234   7.949  0.0250 -0.0420  0.0699
  133OSM   C15F14451   2.849   4.305   8.050  0.7430 -0.0965 -0.2725
  133OSM   H15F14452   2.867   4.229   8.129  1.0683  0.0925 -0.1649
  133OSM   H15G14453   2.738   4.304   8.044  0.5650 -0.2957  2.1143
  133OSM   C16F14454   2.908   4.438   8.108 -0.1291  0.5391  0.1530
  133OSM   H16F14455   3.019   4.442   8.106  0.0543 -2.4302  0.7126
  133OSM   H16G14456   2.875   4.454   8.213  1.6273  0.8816  0.6902
  133OSM   C17F14457   2.862   4.560   8.015  0.3490  0.8081 -0.3508
  133OSM   H17F14458   2.752   4.550   8.002  0.4268 -1.3720  0.2278
  133OSM   H17G14459   2.899   4.536   7.913 -0.0872  0.5621 -0.4549
  133OSM   C18F14460   2.913   4.697   8.066 -0.7482  0.4713  0.3409
  133OSM   H18F14461   2.898   4.776   7.990 -0.7616  1.4470  1.3350
  133OSM   H18G14462   3.021   4.689   8.090 -0.3974 -0.3688 -1.4157
  133OSM   H18H14463   2.858   4.721   8.160 -0.6463 -0.2443  0.5898
  134OSM      N14464   2.771   6.441   6.269 -0.3463 -0.5596  0.2261
  134OSM    C1514465   2.859   6.360   6.178  0.4455 -0.4865 -0.0526
  134OSM   H15A14466   2.896   6.271   6.227  0.8343  0.8828  2.2775
  134OSM   H15B14467   2.951   6.407   6.146  1.0241  0.3385  2.5785
  134OSM   H15C14468   2.801   6.335   6.090  0.3777  4.3308 -1.6398
  134OSM    C1414469   2.779   6.583   6.220 -0.0725 -0.7293 -0.0114
  134OSM   H14A14470   2.880   6.617   6.208 -0.0423  0.5491  2.9204
  134OSM   H14B14471   2.730   6.645   6.294 -0.7029 -2.0467  0.7222
  134OSM   H14C14472   2.734   6.586   6.122 -2.9981  1.8880  1.2126
  134OSM    C1314473   2.626   6.398   6.251 -0.0295  0.1840 -0.5785
  134OSM   H13A14474   2.625   6.293   6.275 -0.9483 -0.7869 -4.2697
  134OSM   H13B14475   2.594   6.413   6.149 -1.5642  4.8705  0.3506
  134OSM   H13C14476   2.554   6.448   6.313  0.7495 -0.8770  1.2712
  134OSM    C1214477   2.818   6.434   6.410 -0.2557  0.4619  0.5262
  134OSM   H12A14478   2.760   6.503   6.468 -0.4372  1.8309 -1.1960
  134OSM   H12B14479   2.920   6.466   6.421 -0.3822  1.0317  0.0641
  134OSM    C1114480   2.795   6.298   6.476  0.1139  0.1288 -0.1703
  134OSM   H11A14481   2.687   6.273   6.464  0.5806 -1.8259 -0.4802
  134OSM   H11B14482   2.820   6.315   6.583  0.1673  1.5195 -0.3767
  134OSM      P14483   2.849   6.045   6.397 -0.0912 -0.6988 -0.0412
  134OSM    O1314484   2.771   6.026   6.274  0.1931 -0.2821 -0.3922
  134OSM    O1414485   2.978   5.974   6.408  0.0087 -0.2705 -0.2985
  134OSM    O1114486   2.762   6.024   6.527 -0.5999  0.1753 -0.2477
  134OSM    O1214487   2.879   6.201   6.416  0.1310  0.7756 -0.0319
  134OSM    C1S14488   2.840   6.005   6.646  0.4170 -0.0633 -0.0290
  134OSM    H1S14489   2.908   6.090   6.669 -0.8564  0.7621  0.8074
  134OSM    H1T14490   2.896   5.909   6.645  0.2051 -0.1866 -0.2202
  134OSM     NF14491   2.828   5.977   6.887  0.1751 -0.4766  0.5851
  134OSM    HNF14492   2.878   5.891   6.893  1.5339  0.2173 -0.1380
  134OSM    C2S14493   2.744   5.973   6.762 -0.2752 -0.7676  0.1822
  134OSM    H2S14494   2.668   6.053   6.775 -0.9071 -1.0442 -1.4837
  134OSM    C3S14495   2.674   5.832   6.744  0.3291 -0.5818  0.4253
  134OSM    H3S14496   2.765   5.768   6.739  0.5216 -0.3775  1.2192
  134OSM     O314497   2.611   5.815   6.619 -0.1503  0.2491  0.7073
  134OSM    HO314498   2.632   5.895   6.571 -3.3539 -0.4445 -2.2341
  134OSM    C4S14499   2.590   5.805   6.860  0.4838  0.0567  0.1403
  134OSM    H4S14500   2.646   5.747   6.935  1.7033 -2.0801 -2.2632
  134OSM    C5S14501   2.475   5.872   6.879  0.1537  0.0071  0.7548
  134OSM    H5S14502   2.451   5.942   6.798 -0.9546 -1.7540 -0.5051
  134OSM    C6S14503   2.381   5.866   6.989  0.0942  0.2936  0.4033
  134OSM    H6S14504   2.286   5.823   6.953  0.0712  0.4257  0.3035
  134OSM    H6T14505   2.355   5.970   7.017 -0.3099  0.3250 -0.0794
  134OSM    C7S14506   2.440   5.782   7.100  0.2957 -0.1010  0.3514
  134OSM    H7S14507   2.533   5.835   7.129 -0.6318  0.7606  1.9247
  134OSM    H7T14508   2.458   5.674   7.081  1.6957 -0.2291  2.0963
  134OSM    C8S14509   2.368   5.785   7.236 -0.2691 -0.2644  0.0717
  134OSM    H8S14510   2.265   5.744   7.226  0.8584 -3.1231 -0.9851
  134OSM    H8T14511   2.366   5.891   7.270  1.1337 -0.4802  0.9065
  134OSM    C9S14512   2.447   5.712   7.347 -0.4757 -0.1945  0.1821
  134OSM    H9S14513   2.537   5.776   7.355 -0.8885  0.4378 -0.0977
  134OSM    H9T14514   2.468   5.605   7.328 -1.8930 -0.3975 -0.3688
  134OSM   C10S14515   2.378   5.729   7.483  0.2731 -0.4452  0.2445
  134OSM   H10S14516   2.285   5.668   7.488 -0.3647  0.2615 -2.0812
  134OSM   H10T14517   2.361   5.838   7.492  1.6151  0.3052 -4.1291
  134OSM   C11S14518   2.479   5.677   7.591 -0.0773  0.6911 -0.0904
  134OSM   H11S14519   2.573   5.731   7.571 -0.0326  0.6395 -0.0214
  134OSM   H11T14520   2.499   5.571   7.563 -0.9591  0.5224 -0.1056
  134OSM   C12S14521   2.427   5.700   7.730 -0.5610  0.8001  0.0929
  134OSM   H12S14522   2.328   5.654   7.748 -0.2438  0.6636  1.5862
  134OSM   H12T14523   2.417   5.809   7.749  2.8879  1.2174  0.2313
  134OSM   C13S14524   2.522   5.643   7.839  0.4631 -0.0728 -0.4801
  134OSM   H13S14525   2.617   5.700   7.845  0.6332 -0.2217 -1.5526
  134OSM   H13T14526   2.562   5.542   7.813 -0.0951  0.1940 -2.5391
  134OSM   C14S14527   2.455   5.637   7.978 -0.3509  0.6248  0.2709
  134OSM   H14S14528   2.364   5.573   7.978 -0.2276  0.3177  3.2723
  134OSM   H14T14529   2.421   5.741   7.998  0.0086  0.6827  0.5847
  134OSM   C15S14530   2.553   5.604   8.088  0.2937 -0.1655  0.1392
  134OSM   H15S14531   2.549   5.670   8.177 -1.9747 -1.1953  0.8747
  134OSM   H15T14532   2.658   5.607   8.053  0.1127  1.5237 -0.3286
  134OSM   C16S14533   2.520   5.461   8.148 -0.2886 -0.4080 -0.4940
  134OSM   H16S14534   2.524   5.376   8.077  1.6635 -3.8338  3.2990
  134OSM   H16T14535   2.414   5.468   8.178 -0.0567 -0.6859  0.4126
  134OSM   C17S14536   2.607   5.413   8.270  0.5914  0.0828  0.3186
  134OSM   H17S14537   2.714   5.395   8.245  0.4135 -1.0064  0.2760
  134OSM   H17T14538   2.560   5.314   8.287 -1.3801  1.1325  1.2780
  134OSM   C18S14539   2.589   5.512   8.385  1.0501  0.0469  0.0285
  134OSM   H18S14540   2.631   5.471   8.480  0.7716  0.0728  0.1637
  134OSM   H18T14541   2.483   5.539   8.401  1.4714  0.5420  2.3192
  134OSM   H18U14542   2.641   5.608   8.367  2.2080 -0.6990 -0.8127
  134OSM    C1F14543   2.876   6.090   6.943 -0.2994  0.3565  1.3009
  134OSM     OF14544   2.837   6.200   6.918 -0.0044  0.0752  0.0615
  134OSM    C2F14545   2.982   6.056   7.046 -1.2245 -0.2000 -0.2767
  134OSM    H2F14546   3.035   5.963   7.015  1.0417  0.4935  1.2167
  134OSM    H2G14547   2.924   6.034   7.138 -1.2109  1.1437  0.0743
  134OSM    C3F14548   3.093   6.163   7.066 -0.2076  0.2138 -0.2749
  134OSM    H3F14549   3.052   6.265   7.083  2.1919  1.3807 -0.9550
  134OSM    H3G14550   3.134   6.171   6.963 -1.8361 -0.5017 -1.0020
  134OSM    C4F14551   3.199   6.129   7.175 -0.0654  0.5433  0.1549
  134OSM    H4F14552   3.261   6.221   7.177 -2.6405  2.3435  1.0577
  134OSM    H4G14553   3.262   6.044   7.140  0.1220  0.6855  0.1436
  134OSM    C5F14554   3.138   6.105   7.317  0.9371  0.1941 -0.4553
  134OSM    H5F14555   3.094   6.004   7.324 -2.5330  1.3102 -3.0131
  134OSM    H5G14556   3.051   6.175   7.319  0.1801 -0.7129 -0.9909
  134OSM    C6F14557   3.231   6.140   7.430 -0.0197  0.1432 -0.6475
  134OSM    H6F14558   3.267   6.243   7.410  0.2230 -0.0819 -1.3787
  134OSM    H6G14559   3.315   6.068   7.421  1.0010  1.0580  0.9493
  134OSM    C7F14560   3.163   6.121   7.572 -0.2602  0.0624 -0.1244
  134OSM    H7F14561   3.148   6.012   7.587 -0.7206 -0.0622 -1.3737
  134OSM    H7G14562   3.059   6.161   7.573 -0.4860 -0.5155  0.8940
  134OSM    C8F14563   3.253   6.157   7.695 -0.5310  0.1187 -0.6197
  134OSM    H8F14564   3.362   6.158   7.678 -0.3127  2.8860  0.3270
  134OSM    H8G14565   3.222   6.097   7.783 -1.6978 -0.3722 -1.3349
  134OSM    C9F14566   3.227   6.299   7.735  0.5803 -0.0711  0.0134
  134OSM    H9F14567   3.225   6.372   7.654  0.2391 -0.9942 -0.8344
  134OSM   C10F14568   3.186   6.342   7.858 -0.9541  0.0603  0.4250
  134OSM   H10F14569   3.181   6.450   7.879 -3.0761  0.3970 -1.4134
  134OSM   C11F14570   3.152   6.263   7.985  0.1781 -0.2634  1.0612
  134OSM   H11F14571   3.203   6.165   7.976 -0.0958 -0.2838 -0.4676
  134OSM   H11G14572   3.042   6.247   7.987 -0.0746  0.7300 -1.5425
  134OSM   C12F14573   3.194   6.325   8.116  0.7265 -0.3283  0.6511
  134OSM   H12F14574   3.152   6.428   8.124  0.1620 -0.5072  0.0919
  134OSM   H12G14575   3.304   6.333   8.122  0.6013  1.2450  1.2809
  134OSM   C13F14576   3.143   6.241   8.235 -0.2781  0.0054 -0.6888
  134OSM   H13F14577   3.181   6.137   8.227 -0.8744 -0.1975 -0.9268
  134OSM   H13G14578   3.032   6.237   8.230 -0.3711  1.1544  0.1185
  134OSM   C14F14579   3.182   6.299   8.371 -0.6209 -0.7078  0.1473
  134OSM   H14F14580   3.293   6.302   8.381 -0.6619 -0.5878  0.5839
  134OSM   H14G14581   3.136   6.243   8.455  1.4030 -0.4313  1.5230
  134OSM   C15F14582   3.149   6.449   8.392 -0.0151  0.9840 -0.0666
  134OSM   H15F14583   3.038   6.453   8.390 -0.2025 -1.3790  1.6298
  134OSM   H15G14584   3.196   6.499   8.305 -1.3067  0.6303 -0.9934
  134OSM   C16F14585   3.231   6.510   8.505  0.2881  0.3624  0.8499
  134OSM   H16F14586   3.253   6.618   8.491  1.7244  0.0561  0.5035
  134OSM   H16G14587   3.328   6.455   8.501 -0.6970 -1.4512  0.9221
  134OSM   C17F14588   3.160   6.489   8.636  0.2263 -0.4113  1.3076
  134OSM   H17F14589   3.139   6.380   8.636  1.4402 -0.6674  1.0660
  134OSM   H17G14590   3.061   6.538   8.633 -0.5948 -1.8509 -3.3320
  134OSM   C18F14591   3.237   6.537   8.753  0.1736 -0.3956  0.1538
  134OSM   H18F14592   3.305   6.455   8.785  1.6659  0.0592 -1.6865
  134OSM   H18G14593   3.175   6.557   8.843  0.4902  0.3890  0.2091
  134OSM   H18H14594   3.286   6.634   8.731  0.1128  0.1049  2.0394
  135OSM      N14595   2.366   6.041   6.323 -0.7838 -0.6550 -0.2725
  135OSM    C1514596   2.344   6.163   6.239 -0.6835 -0.0352  0.3019
  135OSM   H15A14597   2.308   6.247   6.298  1.9673 -0.1381  2.2739
  135OSM   H15B14598   2.284   6.137   6.153  1.2751  2.2147 -1.9140
  135OSM   H15C14599   2.436   6.193   6.192 -1.5650  1.4306 -0.5867
  135OSM    C1414600   2.238   5.998   6.379  0.6760  0.5980 -0.0529
  135OSM   H14A14601   2.244   5.911   6.442 -1.7442  1.3998  1.4743
  135OSM   H14B14602   2.183   5.959   6.294  1.1886  0.6249 -0.3995
  135OSM   H14C14603   2.189   6.084   6.424  1.3742  0.7572  0.4193
  135OSM    C1314604   2.421   5.930   6.235 -0.2668  0.0043  0.1711
  135OSM   H13A14605   2.382   5.933   6.134 -0.3988  4.2441  0.1768
  135OSM   H13B14606   2.393   5.833   6.275 -0.0446 -1.7359 -3.4682
  135OSM   H13C14607   2.528   5.928   6.221 -0.3740  0.5110 -0.8110
  135OSM    C1214608   2.462   6.063   6.437 -0.2129  0.5719 -0.4811
  135OSM   H12A14609   2.563   6.063   6.397  0.3479  0.5809  0.8746
  135OSM   H12B14610   2.440   5.978   6.499 -0.2492 -0.2652 -1.6037
  135OSM    C1114611   2.427   6.179   6.533 -0.1390 -0.0854 -0.5634
  135OSM   H11A14612   2.494   6.174   6.622 -0.8543  0.4787  0.0157
  135OSM   H11B14613   2.323   6.170   6.571 -0.2639 -0.3732 -0.9726
  135OSM      P14614   2.365   6.434   6.504  0.1511  0.1546 -0.1158
  135OSM    O1314615   2.408   6.549   6.424 -0.5218 -0.3439  0.2861
  135OSM    O1414616   2.228   6.394   6.480  0.0461  0.3995  0.2705
  135OSM    O1114617   2.378   6.459   6.656 -0.7117 -0.6836  0.4118
  135OSM    O1214618   2.450   6.300   6.472  0.1348 -0.1246 -0.1735
  135OSM    C1S14619   2.509   6.465   6.724 -0.2060 -0.2075  0.1134
  135OSM    H1S14620   2.553   6.565   6.704 -2.2203  0.8984  0.9866
  135OSM    H1T14621   2.578   6.390   6.678 -0.2768  0.1079 -0.5208
  135OSM     NF14622   2.648   6.456   6.932  0.8113 -0.1006  0.4608
  135OSM    HNF14623   2.692   6.372   6.963 -0.5936 -0.3320  1.9779
  135OSM    C2S14624   2.511   6.437   6.880  0.3319 -0.2854  0.4800
  135OSM    H2S14625   2.438   6.511   6.917 -1.1596 -2.0439  1.1977
  135OSM    C3S14626   2.458   6.294   6.906  0.8662 -0.1552 -0.7629
  135OSM    H3S14627   2.516   6.214   6.855  0.5230  0.1430 -1.6375
  135OSM     O314628   2.321   6.261   6.867 -0.0343 -0.4057  0.6452
  135OSM    HO314629   2.279   6.341   6.835 -0.1142  0.0336  1.8006
  135OSM    C4S14630   2.474   6.271   7.055  0.0014 -0.2036  0.0005
  135OSM    H4S14631   2.423   6.349   7.114 -0.8890 -0.5076 -0.3537
  135OSM    C5S14632   2.528   6.164   7.120 -0.0543  0.5146 -0.1080
  135OSM    H5S14633   2.585   6.088   7.064 -0.7143 -0.7284  0.8756
  135OSM    C6S14634   2.530   6.148   7.268 -0.4687  0.4354 -0.0556
  135OSM    H6S14635   2.468   6.060   7.296 -0.3114  0.1943 -0.4543
  135OSM    H6T14636   2.497   6.246   7.308  0.9121  0.3852  1.3193
  135OSM    C7S14637   2.659   6.111   7.340 -0.5015 -0.7095  0.4670
  135OSM    H7S14638   2.722   6.202   7.341 -1.9171  0.3024  1.3352
  135OSM    H7T14639   2.713   6.028   7.290  1.0602 -1.5402  3.3045
  135OSM    C8S14640   2.642   6.071   7.483 -0.1671 -0.0219 -0.4912
  135OSM    H8S14641   2.589   5.973   7.487 -0.9158  0.3592 -0.7610
  135OSM    H8T14642   2.583   6.145   7.542  2.6361  0.9718  1.2292
  135OSM    C9S14643   2.777   6.031   7.554  0.2244 -0.0339 -0.1078
  135OSM    H9S14644   2.856   6.105   7.528 -0.8856  1.3132  0.2309
  135OSM    H9T14645   2.802   5.930   7.515 -1.6705 -0.4425 -0.4088
  135OSM   C10S14646   2.748   6.014   7.701 -0.8574  0.2741  0.1093
  135OSM   H10S14647   2.650   5.964   7.716 -1.5854  2.0020  1.5920
  135OSM   H10T14648   2.735   6.114   7.749 -0.8545  0.2241  0.2147
  135OSM   C11S14649   2.861   5.932   7.759  0.3871  0.3858  0.8148
  135OSM   H11S14650   2.952   5.966   7.706  1.8783 -2.3527  1.4192
  135OSM   H11T14651   2.837   5.826   7.737  0.4716 -0.6491  4.8324
  135OSM   C12S14652   2.876   5.961   7.910 -0.3071  0.4159 -0.0155
  135OSM   H12S14653   2.802   5.894   7.960 -0.1928 -1.4209 -2.1493
  135OSM   H12T14654   2.863   6.067   7.939  1.6203  0.7600 -0.2692
  135OSM   C13S14655   3.023   5.914   7.961  0.5371 -0.2607 -0.3314
  135OSM   H13S14656   3.086   6.005   7.961 -0.3954  0.4157 -1.3558
  135OSM   H13T14657   3.067   5.843   7.888  4.4443  0.9842  0.5997
  135OSM   C14S14658   3.012   5.859   8.110 -0.5408  0.4586 -0.4026
  135OSM   H14S14659   2.932   5.782   8.107 -0.8690  0.8236 -1.6839
  135OSM   H14T14660   2.972   5.944   8.169  1.2813  0.8625  0.3254
  135OSM   C15S14661   3.137   5.799   8.173  0.1832 -0.0113  0.1207
  135OSM   H15S14662   3.229   5.861   8.165 -1.7421  3.0123  0.0373
  135OSM   H15T14663   3.157   5.712   8.106 -2.3802  1.2102 -2.4005
  135OSM   C16S14664   3.099   5.747   8.315  0.1432  0.6317 -0.1270
  135OSM   H16S14665   2.995   5.710   8.302  0.9257 -1.2670 -1.6198
  135OSM   H16T14666   3.097   5.829   8.389 -0.1610  2.1097 -1.7140
  135OSM   C17S14667   3.204   5.645   8.362  0.1995 -0.5191 -0.0274
  135OSM   H17S14668   3.296   5.706   8.372 -0.4241  0.2842  1.0479
  135OSM   H17T14669   3.207   5.559   8.292 -2.2210 -1.3472  0.7923
  135OSM   C18S14670   3.164   5.592   8.492  0.6559  0.2799 -0.0630
  135OSM   H18S14671   3.070   5.535   8.477  1.3247 -0.7027 -0.6054
  135OSM   H18T14672   3.150   5.671   8.569  3.2946  0.5819  0.2088
  135OSM   H18U14673   3.241   5.522   8.533  1.3939  1.5666  0.8334
  135OSM    C1F14674   2.695   6.577   6.936 -0.7965  0.0562  0.9423
  135OSM     OF14675   2.620   6.670   6.912 -0.1135 -0.5841 -0.0090
  135OSM    C2F14676   2.840   6.590   6.961  0.2401 -0.5976 -0.4146
  135OSM    H2F14677   2.876   6.695   6.967  0.8797 -0.8736  1.0552
  135OSM    H2G14678   2.895   6.537   6.880  0.9910  0.6866 -0.7714
  135OSM    C3F14679   2.888   6.528   7.099 -0.3307  0.0738 -0.0549
  135OSM    H3F14680   2.997   6.538   7.115 -0.3442  1.8902 -0.8925
  135OSM    H3G14681   2.865   6.419   7.109  0.5113  0.0008  1.2987
  135OSM    C4F14682   2.831   6.605   7.225  0.3405 -0.5883 -0.1431
  135OSM    H4F14683   2.722   6.589   7.235  0.8251 -3.2188  1.7205
  135OSM    H4G14684   2.853   6.713   7.212 -0.6173 -0.3764 -0.0130
  135OSM    C5F14685   2.890   6.565   7.360 -0.0404  0.4630  0.6009
  135OSM    H5F14686   2.864   6.649   7.429 -1.2556  1.8864 -1.4704
  135OSM    H5G14687   3.001   6.562   7.367  0.0090 -1.1436 -0.6233
  135OSM    C6F14688   2.833   6.439   7.422  0.4592  0.3436  0.0926
  135OSM    H6F14689   2.867   6.354   7.359  0.8737  0.9069 -0.4411
  135OSM    H6G14690   2.722   6.439   7.418  0.4877 -0.4981 -2.4420
  135OSM    C7F14691   2.890   6.420   7.564 -0.1265  0.0871 -0.0766
  135OSM    H7F14692   3.000   6.403   7.557  0.1649  2.2493 -1.6583
  135OSM    H7G14693   2.861   6.315   7.587  1.4371 -0.2567  0.4589
  135OSM    C8F14694   2.846   6.516   7.682 -0.1563 -0.3047 -1.0850
  135OSM    H8F14695   2.877   6.619   7.653 -0.5266  0.0536 -0.2323
  135OSM    H8G14696   2.909   6.485   7.768 -0.9080  3.1780  0.9240
  135OSM    C9F14697   2.699   6.520   7.720 -0.3611  0.3347  0.5168
  135OSM    H9F14698   2.639   6.556   7.635  0.6829 -1.3112 -0.9740
  135OSM   C10F14699   2.644   6.509   7.845  0.0524 -0.1365 -0.8028
  135OSM   H10F14700   2.535   6.520   7.854  0.1624  2.2183 -1.7287
  135OSM   C11F14701   2.720   6.489   7.969 -0.3193 -0.1587 -0.8220
  135OSM   H11F14702   2.669   6.553   8.045  0.7615  0.3960 -0.5416
  135OSM   H11G14703   2.828   6.515   7.966 -0.0657 -1.2423 -1.2043
  135OSM   C12F14704   2.713   6.349   8.014  0.4555 -0.0883  0.4857
  135OSM   H12F14705   2.773   6.277   7.954  0.1301  0.3767 -0.4250
  135OSM   H12G14706   2.608   6.320   7.993  0.5545  1.2912 -2.3950
  135OSM   C13F14707   2.752   6.325   8.155 -0.3106  0.4334  0.3337
  135OSM   H13F14708   2.681   6.393   8.206 -0.5360  0.4976 -0.0587
  135OSM   H13G14709   2.857   6.356   8.174  0.2633 -0.7296 -0.7696
  135OSM   C14F14710   2.729   6.182   8.205  0.8163 -0.5357  0.1375
  135OSM   H14F14711   2.803   6.121   8.149  0.7357 -0.7819  0.2985
  135OSM   H14G14712   2.629   6.147   8.172  0.5517  1.5207 -1.4834
  135OSM   C15F14713   2.733   6.161   8.355 -0.1482  0.6328  0.0934
  135OSM   H15F14714   2.649   6.211   8.409 -1.7278 -0.8093 -0.9052
  135OSM   H15G14715   2.830   6.194   8.397 -0.3811  1.8668 -0.3049
  135OSM   C16F14716   2.721   6.008   8.391 -0.0653  0.8236 -0.4251
  135OSM   H16F14717   2.690   5.964   8.294  3.2525  2.5347 -2.4372
  135OSM   H16G14718   2.661   6.004   8.484 -0.3966  0.6731 -0.6466
  135OSM   C17F14719   2.862   5.957   8.423  0.3072  0.0798 -0.2010
  135OSM   H17F14720   2.944   5.990   8.356 -0.1707  0.5409 -0.5671
  135OSM   H17G14721   2.864   5.847   8.408  0.2611  0.0937 -0.3089
  135OSM   C18F14722   2.915   5.974   8.569 -0.3906  0.0489  0.2580
  135OSM   H18F14723   2.914   6.082   8.597 -0.0645 -0.1572  1.1092
  135OSM   H18G14724   3.013   5.927   8.591  0.1497  0.7509 -0.5824
  135OSM   H18H14725   2.841   5.935   8.643 -0.1134  0.8997  1.0021
  136OSM      N14726   1.122   1.794   6.319 -0.2058 -0.4242  0.1913
  136OSM    C1514727   1.024   1.909   6.315 -0.2167  0.8830 -0.2390
  136OSM   H15A14728   1.036   1.957   6.219  0.0075  3.3133  0.9214
  136OSM   H15B14729   1.039   1.969   6.404 -0.7351 -0.6099  0.9023
  136OSM   H15C14730   0.926   1.864   6.317  0.6859 -1.1684 -0.3026
  136OSM    C1414731   1.253   1.834   6.278 -0.2447 -0.2804  0.6179
  136OSM   H14A14732   1.296   1.908   6.343  0.9282  0.7280 -1.2111
  136OSM   H14B14733   1.249   1.868   6.175 -1.2910  0.2231  0.8094
  136OSM   H14C14734   1.315   1.746   6.282 -0.3372 -0.3044  4.2990
  136OSM    C1314735   1.121   1.754   6.466  0.7835  0.3944  0.3647
  136OSM   H13A14736   1.018   1.734   6.492  1.2739 -1.3275  1.1108
  136OSM   H13B14737   1.163   1.834   6.525  0.4498  1.6864 -1.0651
  136OSM   H13C14738   1.178   1.663   6.474 -0.4093 -0.5739 -1.5119
  136OSM    C1214739   1.059   1.684   6.230 -0.5127  0.6569 -0.0706
  136OSM   H12A14740   1.045   1.727   6.132  0.5048  1.0319 -0.0617
  136OSM   H12B14741   0.958   1.664   6.262 -0.5892  0.9686 -0.1082
  136OSM    C1114742   1.139   1.546   6.221 -0.1506 -0.1226  0.3100
  136OSM   H11A14743   1.061   1.489   6.166 -0.6633  0.7560  0.1042
  136OSM   H11B14744   1.156   1.505   6.323 -3.5659 -1.9021  0.3192
  136OSM      P14745   1.351   1.442   6.133  0.0474  0.7380  0.2513
  136OSM    O1314746   1.283   1.315   6.094  0.1772 -0.3147 -0.1091
  136OSM    O1414747   1.467   1.485   6.049 -0.1345  0.3556 -0.0411
  136OSM    O1114748   1.385   1.420   6.287  0.4685 -0.2541  0.6628
  136OSM    O1214749   1.249   1.561   6.131 -0.1937  0.1611 -0.2466
  136OSM    C1S14750   1.417   1.285   6.328  0.0480  0.4576 -0.5756
  136OSM    H1S14751   1.498   1.248   6.262  0.6977  3.0027 -1.2945
  136OSM    H1T14752   1.322   1.227   6.319 -0.3085  0.8785  0.4084
  136OSM     NF14753   1.467   1.137   6.512 -0.1475 -0.3695  0.1385
  136OSM    HNF14754   1.388   1.090   6.550  0.0386 -2.6516 -2.0461
  136OSM    C2S14755   1.454   1.276   6.477  0.0881  0.8562  0.3433
  136OSM    H2S14756   1.556   1.315   6.495 -0.5536  1.3917  3.4523
  136OSM    C3S14757   1.342   1.343   6.567 -0.0141  0.7337  0.2234
  136OSM    H3S14758   1.254   1.276   6.561 -0.0416  0.6472  1.4143
  136OSM     O314759   1.298   1.471   6.529  0.2801 -0.5428 -0.1418
  136OSM    HO314760   1.328   1.485   6.439 -3.5104 -0.9151 -1.6833
  136OSM    C4S14761   1.393   1.350   6.709  0.2003 -0.9269  0.1281
  136OSM    H4S14762   1.478   1.416   6.731  0.0456 -1.5175  2.7594
  136OSM    C5S14763   1.323   1.314   6.816 -0.1291 -0.2961  0.5981
  136OSM    H5S14764   1.222   1.277   6.797  0.3711 -0.6885 -1.7417
  136OSM    C6S14765   1.378   1.323   6.954  0.4364 -0.4986  0.1319
  136OSM    H6S14766   1.333   1.410   7.006  0.0141  0.1048 -1.2002
  136OSM    H6T14767   1.487   1.348   6.949  1.0379 -2.9164 -0.3049
  136OSM    C7S14768   1.366   1.203   7.041  0.3580 -0.1849  0.4984
  136OSM    H7S14769   1.413   1.121   6.982  1.8532  0.6855  0.4355
  136OSM    H7T14770   1.258   1.179   7.056  0.7185 -1.5576  1.0514
  136OSM    C8S14771   1.439   1.208   7.172  0.2478  0.0867 -0.1639
  136OSM    H8S14772   1.532   1.269   7.162 -0.1125  0.3608 -2.4327
  136OSM    H8T14773   1.466   1.102   7.191 -0.2303  0.0722  0.4609
  136OSM    C9S14774   1.347   1.266   7.275 -0.0174  0.0258 -0.2204
  136OSM    H9S14775   1.258   1.203   7.296  1.2964 -1.9488 -0.4058
  136OSM    H9T14776   1.331   1.374   7.254  1.3094  0.3504  0.3304
  136OSM   C10S14777   1.423   1.283   7.410  1.0424 -0.0193  0.1855
  136OSM   H10S14778   1.520   1.335   7.396 -0.0272  1.4774 -2.7071
  136OSM   H10T14779   1.436   1.181   7.451 -2.7540 -0.4606  0.6815
  136OSM   C11S14780   1.332   1.350   7.515  0.2008 -0.0129 -0.0450
  136OSM   H11S14781   1.242   1.288   7.538 -0.8189  1.0524 -0.9854
  136OSM   H11T14782   1.298   1.449   7.479 -0.1778 -0.9066 -2.3366
  136OSM   C12S14783   1.402   1.346   7.650 -0.0124 -0.1600  0.3384
  136OSM   H12S14784   1.485   1.419   7.654  0.1842 -0.3680  0.0489
  136OSM   H12T14785   1.449   1.246   7.660  0.1400 -0.0356  0.9403
  136OSM   C13S14786   1.319   1.376   7.774  0.0099 -0.1978  0.2704
  136OSM   H13S14787   1.261   1.286   7.801 -0.0826 -0.3901 -0.5565
  136OSM   H13T14788   1.255   1.466   7.762 -0.6331 -0.5741  0.8144
  136OSM   C14S14789   1.419   1.410   7.891  0.1383  0.3855 -0.1338
  136OSM   H14S14790   1.472   1.500   7.853 -3.6379  3.3843  0.9640
  136OSM   H14T14791   1.497   1.332   7.901  0.2521  0.4938 -0.1892
  136OSM   C15S14792   1.350   1.437   8.026  0.0496 -0.5196  0.0046
  136OSM   H15S14793   1.273   1.516   8.016 -0.0187 -0.2635  2.1158
  136OSM   H15T14794   1.432   1.467   8.095 -1.4130  2.4638  0.5855
  136OSM   C16S14795   1.276   1.310   8.088 -0.1843 -0.3653 -0.0534
  136OSM   H16S14796   1.356   1.244   8.126 -0.4877 -0.9114 -0.3448
  136OSM   H16T14797   1.206   1.264   8.015  0.9907 -0.0493 -1.4246
  136OSM   C17S14798   1.189   1.360   8.203  0.3907 -0.9216 -0.1987
  136OSM   H17S14799   1.149   1.263   8.238 -2.4486 -1.1520 -3.6155
  136OSM   H17T14800   1.104   1.418   8.162  1.1539  0.9334  0.6827
  136OSM   C18S14801   1.266   1.427   8.311  0.5711 -0.0342 -0.1621
  136OSM   H18S14802   1.263   1.536   8.288  0.6743  0.3029  1.3419
  136OSM   H18T14803   1.367   1.382   8.313  0.6083 -0.1780 -2.3476
  136OSM   H18U14804   1.208   1.415   8.405 -0.2655  0.7625 -0.5606
  136OSM    C1F14805   1.573   1.064   6.475  0.3873 -0.4860 -0.5189
  136OSM     OF14806   1.669   1.103   6.404 -0.2427 -0.3398 -0.0418
  136OSM    C2F14807   1.570   0.916   6.521  0.2634 -0.4457  0.1507
  136OSM    H2F14808   1.602   0.858   6.432 -1.9768  0.9453 -1.6746
  136OSM    H2G14809   1.469   0.883   6.553  0.1745 -1.3047 -0.9255
  136OSM    C3F14810   1.667   0.894   6.636  0.1895 -0.9603 -0.7808
  136OSM    H3F14811   1.771   0.923   6.608 -0.5214  1.9126 -0.7823
  136OSM    H3G14812   1.673   0.787   6.664  3.8957 -0.3858  1.2799
  136OSM    C4F14813   1.644   0.985   6.761  0.4345  0.3946 -0.3911
  136OSM    H4F14814   1.544   0.977   6.809  0.7441 -0.5492  0.1216
  136OSM    H4G14815   1.654   1.088   6.720 -3.0162  1.0245  0.0380
  136OSM    C5F14816   1.749   0.959   6.875 -0.2000  0.6074 -0.3802
  136OSM    H5F14817   1.832   1.030   6.852 -0.2617 -0.1711 -3.4535
  136OSM    H5G14818   1.786   0.855   6.868 -0.9161  0.4331 -2.9706
  136OSM    C6F14819   1.701   0.985   7.015  0.3218  0.1740 -0.4611
  136OSM    H6F14820   1.595   0.954   7.022  0.4441 -0.3432 -0.8732
  136OSM    H6G14821   1.697   1.095   7.035  0.4263 -0.1109  1.2919
  136OSM    C7F14822   1.784   0.925   7.129  0.5462  0.0930  0.1722
  136OSM    H7F14823   1.880   0.977   7.148  1.4800 -2.0263  1.5374
  136OSM    H7G14824   1.800   0.818   7.101 -5.2924 -0.3632 -3.1165
  136OSM    C8F14825   1.713   0.937   7.268 -0.2576 -1.1007  0.0853
  136OSM    H8F14826   1.755   0.862   7.338 -1.7989 -2.3671 -0.2747
  136OSM    H8G14827   1.604   0.914   7.268 -0.3718 -0.5940 -0.3824
  136OSM    C9F14828   1.737   1.083   7.317  0.1631 -0.2117 -0.0682
  136OSM    H9F14829   1.718   1.159   7.241 -0.9998 -1.1813 -0.7820
  136OSM   C10F14830   1.780   1.130   7.430 -0.2435  0.2181  1.3407
  136OSM   H10F14831   1.811   1.235   7.437  0.6511 -0.0102  1.0002
  136OSM   C11F14832   1.816   1.048   7.551  0.0675 -0.3966  0.4213
  136OSM   H11F14833   1.836   1.127   7.626 -1.0540  0.1230  0.1862
  136OSM   H11G14834   1.905   0.982   7.537 -0.8535 -1.6338  0.2022
  136OSM   C12F14835   1.713   0.968   7.622  0.4330 -0.2092  0.0810
  136OSM   H12F14836   1.673   0.893   7.551 -0.8814 -0.2303  0.8112
  136OSM   H12G14837   1.625   1.032   7.646  1.1826  1.5298 -1.5377
  136OSM   C13F14838   1.769   0.901   7.755  0.6435  0.0179  0.3477
  136OSM   H13F14839   1.877   0.924   7.767  0.5000  1.1401 -0.3108
  136OSM   H13G14840   1.761   0.790   7.751 -1.0003  0.1349 -1.9504
  136OSM   C14F14841   1.692   0.946   7.880  0.2565  0.3119 -0.1383
  136OSM   H14F14842   1.703   0.876   7.966  1.5835  1.5277  0.7219
  136OSM   H14G14843   1.587   0.952   7.845  0.6502 -0.3770 -1.5051
  136OSM   C15F14844   1.733   1.082   7.911  0.1653  0.2902  0.3734
  136OSM   H15F14845   1.713   1.155   7.829 -1.5185 -1.2947 -0.7100
  136OSM   H15G14846   1.842   1.079   7.929 -0.1471 -2.4327  2.4218
  136OSM   C16F14847   1.659   1.132   8.033  0.2027  0.7746  0.5629
  136OSM   H16F14848   1.554   1.146   7.997 -0.1680  0.0409  1.3362
  136OSM   H16G14849   1.692   1.234   8.062  0.2215  0.9636 -0.1069
  136OSM   C17F14850   1.656   1.035   8.147 -0.3109  0.2035 -0.5143
  136OSM   H17F14851   1.765   1.019   8.162 -0.8129 -1.3120  2.2382
  136OSM   H17G14852   1.611   0.937   8.122  1.0051 -0.5853  0.0398
  136OSM   C18F14853   1.598   1.093   8.278  0.2447 -0.0903  0.4640
  136OSM   H18F14854   1.605   1.014   8.356  2.2243 -1.2426 -0.8044
  136OSM   H18G14855   1.494   1.127   8.257 -0.2019 -1.1396  0.8868
  136OSM   H18H14856   1.657   1.184   8.301 -0.2138  0.4432 -0.4324
  137OSM      N14857   4.186   5.852   6.235 -0.3814  0.2469  0.2001
  137OSM    C1514858   4.123   5.799   6.106  0.2557  0.2882  0.0843
  137OSM   H15A14859   4.027   5.754   6.123  0.5431  0.3888  2.2143
  137OSM   H15B14860   4.192   5.731   6.059 -1.4943 -1.1341 -0.5071
  137OSM   H15C14861   4.112   5.880   6.035 -0.4644 -0.0586 -0.2028
  137OSM    C1414862   4.329   5.880   6.196 -0.0431  0.6595  0.2505
  137OSM   H14A14863   4.340   5.977   6.149  2.3541  0.1158 -0.4377
  137OSM   H14B14864   4.360   5.810   6.120 -0.0739  1.5191 -0.5696
  137OSM   H14C14865   4.391   5.884   6.284  1.7255  1.3894 -0.9628
  137OSM    C1314866   4.114   5.970   6.274  0.4673  0.4484 -0.2088
  137OSM   H13A14867   4.140   6.056   6.214  2.2494 -0.3812 -0.6827
  137OSM   H13B14868   4.143   5.992   6.376 -0.3374  0.4438  0.0330
  137OSM   H13C14869   4.007   5.960   6.280  0.4709  0.3066 -0.3639
  137OSM    C1214870   4.186   5.751   6.350  0.2960 -0.5640 -0.2908
  137OSM   H12A14871   4.245   5.664   6.326  2.0163  0.4676  0.0200
  137OSM   H12B14872   4.082   5.732   6.374  0.3286  1.2809  1.6181
  137OSM    C1114873   4.253   5.796   6.483 -0.8538  0.2423  1.1423
  137OSM   H11A14874   4.238   5.706   6.547 -0.2044 -1.0784 -0.4873
  137OSM   H11B14875   4.209   5.894   6.512 -2.6990  0.3664 -1.6351
  137OSM      P14876   4.485   5.845   6.575 -0.1933  0.0580  0.0627
  137OSM    O1314877   4.620   5.794   6.540  0.1751 -0.4288  0.3178
  137OSM    O1414878   4.487   5.991   6.604 -0.2201 -0.3388 -0.3875
  137OSM    O1114879   4.425   5.753   6.694 -0.1669  0.4707 -0.2522
  137OSM    O1214880   4.391   5.816   6.457  0.4899  0.2828  0.3399
  137OSM    C1S14881   4.443   5.805   6.821 -0.3594  0.4729  0.4859
  137OSM    H1S14882   4.386   5.901   6.830  2.5391  2.5025 -1.1541
  137OSM    H1T14883   4.548   5.826   6.851 -0.9467  0.9905  2.3474
  137OSM     NF14884   4.395   5.773   7.060  0.3792  0.6138 -0.1580
  137OSM    HNF14885   4.472   5.762   7.122 -0.7844  0.0307  1.2190
  137OSM    C2S14886   4.396   5.704   6.933  0.5061  0.1341 -0.4038
  137OSM    H2S14887   4.291   5.674   6.912  0.1132 -0.0111  1.5891
  137OSM    C3S14888   4.488   5.570   6.929 -0.2226 -0.5352  1.0024
  137OSM    H3S14889   4.587   5.583   6.977  1.7974 -3.6567 -1.8830
  137OSM     O314890   4.520   5.519   6.803  0.2459  0.2021  0.3101
  137OSM    HO314891   4.499   5.580   6.732 -0.3351 -1.5693 -1.1270
  137OSM    C4S14892   4.411   5.473   7.012 -0.0827  0.0028  0.1192
  137OSM    H4S14893   4.454   5.456   7.112 -1.7355 -1.8654  0.5858
  137OSM    C5S14894   4.299   5.401   6.990 -0.5370 -0.4373  0.3175
  137OSM    H5S14895   4.233   5.425   6.905  0.2843 -1.7032 -0.7207
  137OSM    C6S14896   4.234   5.302   7.086 -0.2989  0.2515  0.3184
  137OSM    H6S14897   4.167   5.223   7.045  1.1837 -0.4956 -0.8041
  137OSM    H6T14898   4.154   5.353   7.142 -1.6580 -1.7608  0.3296
  137OSM    C7S14899   4.317   5.246   7.199  0.0456  0.4727 -0.2961
  137OSM    H7S14900   4.391   5.314   7.248  2.2799  1.2363 -4.2938
  137OSM    H7T14901   4.382   5.168   7.155  0.3016 -0.0665  0.9865
  137OSM    C8S14902   4.229   5.184   7.315 -0.8453  0.4410  0.2362
  137OSM    H8S14903   4.174   5.096   7.276 -1.1648  0.1515  1.3231
  137OSM    H8T14904   4.161   5.265   7.348 -2.1502 -0.4676 -0.1366
  137OSM    C9S14905   4.318   5.113   7.419  0.4085 -0.3620 -0.6089
  137OSM    H9S14906   4.371   5.186   7.483 -2.1637  1.7001 -0.6477
  137OSM    H9T14907   4.401   5.063   7.366 -0.0123 -3.0773  1.0979
  137OSM   C10S14908   4.238   5.007   7.493  0.2579  0.0035 -0.1000
  137OSM   H10S14909   4.221   4.922   7.423  1.4644 -0.1792 -0.2008
  137OSM   H10T14910   4.136   5.045   7.515  0.5473  1.2054 -0.7802
  137OSM   C11S14911   4.312   4.951   7.622 -0.6270  0.3249 -0.4692
  137OSM   H11S14912   4.332   5.037   7.689 -0.5881  0.3339 -0.4928
  137OSM   H11T14913   4.409   4.904   7.595  0.2145  1.5005  0.4170
  137OSM   C12S14914   4.218   4.854   7.696  0.0852  0.2860 -0.0605
  137OSM   H12S14915   4.225   4.763   7.633  2.5566  0.8421 -0.7075
  137OSM   H12T14916   4.115   4.894   7.701 -1.1276 -2.5390 -0.6767
  137OSM   C13S14917   4.280   4.815   7.834 -0.1042  0.1289 -0.3305
  137OSM   H13S14918   4.277   4.905   7.898 -0.1867 -0.8669  1.1353
  137OSM   H13T14919   4.385   4.789   7.811  0.0959  0.0331  0.6518
  137OSM   C14S14920   4.213   4.694   7.904  0.5126 -0.2779 -0.1323
  137OSM   H14S14921   4.218   4.602   7.842 -1.6877 -0.6927  0.2139
  137OSM   H14T14922   4.103   4.705   7.897  0.5760  0.0197 -0.6831
  137OSM   C15S14923   4.266   4.672   8.046 -0.3460  0.0804 -0.4650
  137OSM   H15S14924   4.287   4.775   8.080 -0.3109 -0.7849  2.3615
  137OSM   H15T14925   4.361   4.616   8.054 -1.6864 -2.6867 -2.1760
  137OSM   C16S14926   4.164   4.606   8.139  0.1456 -0.1913  0.4266
  137OSM   H16S14927   4.131   4.507   8.102 -1.9483 -0.8298  3.5935
  137OSM   H16T14928   4.068   4.662   8.137  0.1875 -0.1496 -0.8324
  137OSM   C17S14929   4.201   4.593   8.289  0.1768  0.6285  0.4640
  137OSM   H17S14930   4.199   4.697   8.329  1.2946  0.8597 -0.0402
  137OSM   H17T14931   4.301   4.545   8.287 -0.8283 -1.5983 -0.9555
  137OSM   C18S14932   4.111   4.511   8.379  0.1455  0.3560  0.7077
  137OSM   H18S14933   4.127   4.515   8.489 -1.1398  0.6000  0.9061
  137OSM   H18T14934   4.109   4.403   8.355  1.2704  0.5477 -0.3197
  137OSM   H18U14935   4.009   4.554   8.369  0.2836  0.9158  1.6757
  137OSM    C1F14936   4.316   5.870   7.094 -0.6726  0.0439 -0.1511
  137OSM     OF14937   4.217   5.894   7.026  0.4214 -0.2727 -0.6035
  137OSM    C2F14938   4.355   5.946   7.214  0.3666 -0.4768 -0.0740
  137OSM    H2F14939   4.371   6.052   7.185  2.3698 -1.1930 -1.8225
  137OSM    H2G14940   4.457   5.917   7.245  0.3915 -0.7178 -0.3821
  137OSM    C3F14941   4.269   5.921   7.344 -0.6834 -0.7096  0.1803
  137OSM    H3F14942   4.277   5.812   7.362 -0.1816 -0.7808 -0.4274
  137OSM    H3G14943   4.168   5.954   7.313  0.2350  1.8422 -0.3476
  137OSM    C4F14944   4.310   6.001   7.469 -0.9758 -0.0571 -0.5400
  137OSM    H4F14945   4.266   6.104   7.466 -1.2174 -0.1835 -2.9543
  137OSM    H4G14946   4.420   5.997   7.482 -0.7260 -0.1491 -2.4258
  137OSM    C5F14947   4.256   5.936   7.597 -0.5140  0.1693  0.1728
  137OSM    H5F14948   4.293   5.832   7.599  0.7901  0.6235  2.5532
  137OSM    H5G14949   4.147   5.934   7.577 -0.1684 -0.2024 -1.9662
  137OSM    C6F14950   4.296   6.015   7.722  0.7872  0.2655 -0.1838
  137OSM    H6F14951   4.230   6.104   7.721 -0.6655 -0.7765  0.0108
  137OSM    H6G14952   4.397   6.060   7.710  0.4515  0.6138 -1.9900
  137OSM    C7F14953   4.282   5.948   7.854  0.0322 -0.2786  0.2528
  137OSM    H7F14954   4.362   5.871   7.848 -0.5799 -1.1441  2.3326
  137OSM    H7G14955   4.188   5.892   7.877  1.8320 -2.7159  2.3254
  137OSM    C8F14956   4.308   6.034   7.983  0.8986 -0.8104  0.3760
  137OSM    H8F14957   4.232   6.114   7.982 -0.0721 -1.6890 -0.9919
  137OSM    H8G14958   4.404   6.088   7.971  1.0153 -0.9708  0.5779
  137OSM    C9F14959   4.312   5.946   8.103 -0.0033 -0.2128  0.4397
  137OSM    H9F14960   4.389   5.867   8.097 -0.0083 -0.2177  0.4395
  137OSM   C10F14961   4.230   5.949   8.206  0.9010 -0.2268 -0.5919
  137OSM   H10F14962   4.250   5.885   8.293 -0.4220 -0.2780 -0.2943
  137OSM   C11F14963   4.110   6.040   8.231  0.5032  0.4084 -0.0031
  137OSM   H11F14964   4.054   6.072   8.140  0.6470  1.4386  0.2514
  137OSM   H11G14965   4.150   6.135   8.273  0.5811  0.9186 -1.1768
  137OSM   C12F14966   4.006   5.970   8.318 -0.1413 -0.1075  0.1479
  137OSM   H12F14967   4.008   5.860   8.305  0.6060 -0.0882  0.1022
  137OSM   H12G14968   3.907   6.014   8.291  0.5950  1.1309 -0.6244
  137OSM   C13F14969   4.030   5.993   8.466 -0.2285 -0.4474  0.0019
  137OSM   H13F14970   4.037   6.103   8.481  0.2704 -0.1419 -2.1658
  137OSM   H13G14971   4.125   5.942   8.492 -0.4313 -0.1201  1.4556
  137OSM   C14F14972   3.919   5.931   8.551  0.0101  0.2056 -0.1660
  137OSM   H14F14973   3.917   5.820   8.542  0.1932  0.1135  0.7857
  137OSM   H14G14974   3.818   5.977   8.546 -1.0782 -2.0204  0.0666
  137OSM   C15F14975   3.948   5.973   8.697  0.1076 -0.5515  0.5106
  137OSM   H15F14976   3.926   6.081   8.695 -2.2462 -0.9671  0.4612
  137OSM   H15G14977   4.057   5.957   8.712 -0.1674 -1.5729  1.5485
  137OSM   C16F14978   3.862   5.899   8.794 -0.1243  0.7296 -0.2900
  137OSM   H16F14979   3.758   5.933   8.775  0.0793  1.0250 -0.9081
  137OSM   H16G14980   3.883   5.942   8.894  0.5952  1.7475 -0.8591
  137OSM   C17F14981   3.872   5.749   8.809 -0.6633  0.0035 -0.4621
  137OSM   H17F14982   3.866   5.694   8.712 -0.1528 -0.0183 -0.4834
  137OSM   H17G14983   3.799   5.716   8.886  1.3893  0.0315  1.5703
  137OSM   C18F14984   4.003   5.709   8.866  0.4158  0.3052 -0.3035
  137OSM   H18F14985   4.082   5.751   8.800 -0.1466  2.0544  0.0836
  137OSM   H18G14986   4.002   5.598   8.867 -2.1024  0.2727  0.2859
  137OSM   H18H14987   4.006   5.743   8.972 -1.1791  0.6272 -0.3403
  138OSM      N14988   6.174   0.306   6.081 -0.1256 -0.0055  0.4998
  138OSM    C1514989   6.309   0.243   6.060  0.1109 -0.2312 -0.0061
  138OSM   H15A14990   6.309   0.173   5.977  0.3371 -0.8754  0.5264
  138OSM   H15B14991   6.343   0.195   6.151 -1.8711 -0.1442  0.8448
  138OSM   H15C14992   6.382   0.317   6.031 -0.2459  0.4981  0.9083
  138OSM    C1414993   6.154   0.420   5.981  0.1750 -0.6349 -0.3751
  138OSM   H14A14994   6.056   0.465   5.988  1.5535  2.4328  1.3195
  138OSM   H14B14995   6.174   0.384   5.881 -1.7167 -0.8338 -0.7100
  138OSM   H14C14996   6.216   0.507   5.997 -2.5983  1.9276 -2.4743
  138OSM    C1314997   6.061   0.207   6.073 -0.1007  0.3960  0.0485
  138OSM   H13A14998   5.983   0.244   6.138  0.1786  1.2122 -0.0685
  138OSM   H13B14999   6.081   0.109   6.114 -0.3380 -0.8966 -2.7355
  138OSM   H13C15000   6.041   0.187   5.969  0.8385 -3.1651  0.4361
  138OSM    C1215001   6.174   0.372   6.218  0.1409 -0.4224  0.2194
  138OSM   H12A15002   6.257   0.441   6.220  0.0808 -0.3126 -0.6275
  138OSM   H12B15003   6.199   0.294   6.288  0.1529 -1.5987 -1.0493
  138OSM    C1115004   6.051   0.462   6.268  0.3822 -0.0937  0.3420
  138OSM   H11A15005   6.046   0.479   6.378  0.5283  1.5294  0.1226
  138OSM   H11B15006   5.961   0.401   6.246  1.5724 -1.6496 -0.4192
  138OSM      P15007   6.144   0.708   6.228  0.2849 -0.1509  0.2966
  138OSM    O1315008   6.273   0.650   6.259 -0.3963 -0.5263  0.4293
  138OSM    O1415009   6.139   0.793   6.112  0.6999  0.4463  0.1159
  138OSM    O1115010   6.086   0.776   6.361 -0.3892  0.0530  0.0631
  138OSM    O1215011   6.037   0.589   6.199  0.1139  0.2909 -0.2446
  138OSM    C1S15012   5.947   0.759   6.390 -0.0343 -0.3463 -0.0117
  138OSM    H1S15013   5.931   0.652   6.413  1.1453 -0.3081  1.1241
  138OSM    H1T15014   5.888   0.794   6.303  3.0391  1.1089 -1.6660
  138OSM     NF15015   5.770   0.814   6.535 -0.0219 -0.3351 -0.5573
  138OSM    HNF15016   5.714   0.893   6.512  0.0479  0.5491  1.9500
  138OSM    C2S15017   5.912   0.833   6.517 -0.1300  0.1894  0.3309
  138OSM    H2S15018   5.975   0.782   6.593 -0.1912 -2.4317 -1.2573
  138OSM    C3S15019   5.959   0.986   6.509 -0.0318 -0.7499  0.3750
  138OSM    H3S15020   5.888   1.025   6.434  0.5188 -2.3165 -1.0320
  138OSM     O315021   6.081   1.031   6.446  0.3812 -0.1969 -0.8328
  138OSM    HO315022   6.112   0.947   6.413 -2.4423 -1.0950 -1.4894
  138OSM    C4S15023   5.944   1.046   6.645  0.3226 -0.6838  0.1767
  138OSM    H4S15024   6.007   1.007   6.726 -1.7281 -2.5479  0.9770
  138OSM    C5S15025   5.842   1.133   6.673 -0.4561 -0.9206 -0.2074
  138OSM    H5S15026   5.779   1.172   6.592  1.3381  1.7111 -0.5010
  138OSM    C6S15027   5.806   1.199   6.811 -0.1512  0.4275 -0.2687
  138OSM    H6S15028   5.696   1.209   6.822 -0.3243 -1.2894 -0.0886
  138OSM    H6T15029   5.830   1.307   6.800 -0.3324  0.4083 -0.9388
  138OSM    C7S15030   5.875   1.136   6.933  0.2374 -0.7686 -0.0131
  138OSM    H7S15031   5.985   1.143   6.921  0.0881  0.6386 -0.7798
  138OSM    H7T15032   5.838   1.031   6.943  1.8574 -1.3760  0.0132
  138OSM    C8S15033   5.837   1.211   7.068 -0.7110  0.5184 -0.8473
  138OSM    H8S15034   5.727   1.224   7.068 -0.8120 -0.0879  0.9069
  138OSM    H8T15035   5.891   1.307   7.085  2.4898 -0.5651 -3.6501
  138OSM    C9S15036   5.877   1.110   7.181 -0.2481 -0.0422  0.0449
  138OSM    H9S15037   5.987   1.099   7.181 -0.4788 -3.5581 -0.1938
  138OSM    H9T15038   5.840   1.007   7.163  0.3457 -0.6017  1.8197
  138OSM   C10S15039   5.832   1.156   7.317  0.4224 -0.5603 -0.3281
  138OSM   H10S15040   5.724   1.142   7.340  0.6783 -2.6312 -0.1919
  138OSM   H10T15041   5.845   1.266   7.325 -0.4641 -0.2861 -2.0438
  138OSM   C11S15042   5.906   1.077   7.428 -0.7158  0.1371 -1.1797
  138OSM   H11S15043   6.016   1.074   7.411 -0.2914 -0.2264  1.2227
  138OSM   H11T15044   5.879   0.969   7.423 -1.7098  0.3244 -0.3613
  138OSM   C12S15045   5.883   1.139   7.567 -0.1169  0.3749 -0.5211
  138OSM   H12S15046   5.773   1.140   7.576 -0.3286  0.0949 -2.5411
  138OSM   H12T15047   5.919   1.244   7.563  0.0967  0.2769 -1.9975
  138OSM   C13S15048   5.959   1.051   7.674 -0.2131  0.9320  0.3556
  138OSM   H13S15049   6.069   1.060   7.660  0.1250  0.8011  2.5772
  138OSM   H13T15050   5.924   0.947   7.654  1.4614  0.3385  0.3551
  138OSM   C14S15051   5.927   1.101   7.815 -0.2691  0.2664  0.2335
  138OSM   H14S15052   5.828   1.151   7.820 -0.8768 -0.4853 -2.5651
  138OSM   H14T15053   5.999   1.185   7.826  1.0350 -0.5135 -1.6434
  138OSM   C15S15054   5.958   1.001   7.925 -0.0918 -0.6094  0.3484
  138OSM   H15S15055   6.057   0.951   7.914  0.4618  0.4469  0.3914
  138OSM   H15T15056   5.889   0.915   7.912  0.8367 -1.1955 -1.0498
  138OSM   C16S15057   5.949   1.060   8.070  0.0004 -0.2875  0.1059
  138OSM   H16S15058   5.856   1.121   8.078 -0.4474 -1.1906  2.8544
  138OSM   H16T15059   6.040   1.123   8.071  2.1887 -3.2518  1.0987
  138OSM   C17S15060   5.964   0.959   8.185  0.1474 -0.4254  0.5567
  138OSM   H17S15061   6.043   0.884   8.161 -0.1817 -0.4607 -0.4981
  138OSM   H17T15062   5.866   0.909   8.194 -0.9107  1.8138  2.8161
  138OSM   C18S15063   5.987   1.017   8.318 -0.5396  0.4038 -0.3930
  138OSM   H18S15064   5.985   0.938   8.396 -0.3238  0.9802  0.2061
  138OSM   H18T15065   5.906   1.090   8.336  0.5569  2.4054 -2.9034
  138OSM   H18U15066   6.088   1.063   8.322 -1.2886  2.0442  2.0467
  138OSM    C1F15067   5.723   0.704   6.590  0.0655  0.0159 -0.6187
  138OSM     OF15068   5.786   0.597   6.581 -0.1065 -0.4441 -0.4785
  138OSM    C2F15069   5.586   0.713   6.653 -0.7072 -0.0627  0.3573
  138OSM    H2F15070   5.560   0.606   6.639  1.2493 -0.4620 -0.6472
  138OSM    H2G15071   5.516   0.772   6.590  0.1773 -1.9167 -2.5944
  138OSM    C3F15072   5.594   0.752   6.803 -0.0070  0.2615  0.2673
  138OSM    H3F15073   5.628   0.858   6.808  2.7823 -0.5598  0.5177
  138OSM    H3G15074   5.663   0.681   6.853 -0.7126 -2.0657 -1.8355
  138OSM    C4F15075   5.458   0.754   6.875  0.2176  0.0590  0.2925
  138OSM    H4F15076   5.428   0.647   6.867 -0.8228  0.3445  0.1590
  138OSM    H4G15077   5.380   0.808   6.817 -0.7864 -1.0073  0.5962
  138OSM    C5F15078   5.474   0.784   7.024  0.1609  0.1417  0.1621
  138OSM    H5F15079   5.547   0.716   7.072  2.0771  2.1549  0.2978
  138OSM    H5G15080   5.369   0.787   7.061  0.9508 -2.6797  2.9418
  138OSM    C6F15081   5.527   0.926   7.068  0.8631 -0.2460 -0.3777
  138OSM    H6F15082   5.434   0.987   7.064  0.7931 -0.3298 -0.0549
  138OSM    H6G15083   5.606   0.975   7.007  2.1020  1.5040  2.4333
  138OSM    C7F15084   5.572   0.921   7.217  0.1273 -0.2133 -0.6495
  138OSM    H7F15085   5.584   1.023   7.260 -1.7251  0.3149 -1.3081
  138OSM    H7G15086   5.669   0.868   7.227  0.2558  0.0867 -0.2585
  138OSM    C8F15087   5.471   0.850   7.308  0.2960  0.4273 -0.4584
  138OSM    H8F15088   5.536   0.817   7.392  0.6983  0.6968 -0.6599
  138OSM    H8G15089   5.436   0.751   7.272  1.6225 -1.3742  2.7291
  138OSM    C9F15090   5.355   0.947   7.328 -0.2186 -1.0223 -0.1210
  138OSM    H9F15091   5.275   0.941   7.254  1.3462 -1.0851 -1.8799
  138OSM   C10F15092   5.344   1.038   7.429 -1.0158 -0.4613  0.0736
  138OSM   H10F15093   5.250   1.094   7.436  0.1010  1.4459  0.4372
  138OSM   C11F15094   5.443   1.060   7.534  0.5965 -0.2841  0.2549
  138OSM   H11F15095   5.481   1.165   7.537 -0.8268  0.2343  0.9222
  138OSM   H11G15096   5.535   1.000   7.519  1.1681  0.4719  0.6816
  138OSM   C12F15097   5.379   1.023   7.669 -0.8170 -0.5256  0.5045
  138OSM   H12F15098   5.354   0.914   7.671  2.0510 -1.2578  2.2435
  138OSM   H12G15099   5.286   1.083   7.674 -0.9610 -0.7341  0.3293
  138OSM   C13F15100   5.471   1.054   7.787  0.7517  0.1010  1.2347
  138OSM   H13F15101   5.468   1.163   7.806 -1.0726  0.3272 -0.0164
  138OSM   H13G15102   5.574   1.016   7.771  0.7772  0.4381  0.5446
  138OSM   C14F15103   5.431   0.991   7.923 -0.1365 -0.5286  0.1883
  138OSM   H14F15104   5.432   0.881   7.910  1.4720 -0.5748  0.4684
  138OSM   H14G15105   5.324   1.010   7.946 -0.0884 -1.0683  0.8829
  138OSM   C15F15106   5.530   1.038   8.030 -0.1153 -0.1824  0.5299
  138OSM   H15F15107   5.526   1.149   8.041  1.7575  0.2890 -2.4350
  138OSM   H15G15108   5.629   1.007   7.991 -0.7794 -2.4910  0.5431
  138OSM   C16F15109   5.513   0.985   8.170 -0.3095  0.3331  0.0221
  138OSM   H16F15110   5.410   0.990   8.212  0.3147 -1.8157  2.0072
  138OSM   H16G15111   5.582   1.048   8.230 -0.8692  0.1043  0.9129
  138OSM   C17F15112   5.574   0.837   8.185  0.5745 -0.0084 -0.9647
  138OSM   H17F15113   5.682   0.829   8.158  0.7324 -1.8831  0.0350
  138OSM   H17G15114   5.523   0.770   8.113  1.3141 -3.5312  1.5430
  138OSM   C18F15115   5.550   0.781   8.327 -0.5767 -0.2797 -0.3019
  138OSM   H18F15116   5.443   0.778   8.357 -0.8509 -3.8127 -1.1483
  138OSM   H18G15117   5.604   0.832   8.410 -0.2049 -1.7479  0.3884
  138OSM   H18H15118   5.593   0.679   8.341 -1.0321 -0.8951 -2.8718
  139OSM      N15119   3.200   1.301   5.942 -0.2184 -0.2734  0.5094
  139OSM    C1515120   3.053   1.295   5.957  0.3953  0.2979  0.4592
  139OSM   H15A15121   3.029   1.234   6.042 -1.6520 -3.6050 -2.6106
  139OSM   H15B15122   3.006   1.248   5.872 -0.8960 -0.3532  1.4961
  139OSM   H15C15123   3.008   1.388   5.989  2.2588  1.0183  1.1330
  139OSM    C1415124   3.221   1.382   5.818 -0.2915 -0.2456  0.0037
  139OSM   H14A15125   3.171   1.477   5.821  1.0690  0.4740  1.3100
  139OSM   H14B15126   3.194   1.327   5.729  0.4787 -0.0122 -0.3881
  139OSM   H14C15127   3.324   1.405   5.796 -0.4066 -1.8274 -2.5756
  139OSM    C1315128   3.254   1.384   6.048 -0.8720  0.2207 -0.6152
  139OSM   H13A15129   3.228   1.320   6.131  0.3887 -2.4477 -2.1319
  139OSM   H13B15130   3.206   1.479   6.066 -0.2037  0.1642  1.8601
  139OSM   H13C15131   3.361   1.394   6.032 -0.4002 -0.1147  1.8813
  139OSM    C1215132   3.276   1.175   5.937 -0.1876  0.7822  0.6414
  139OSM   H12A15133   3.379   1.202   5.919 -0.4530  1.0410 -0.6194
  139OSM   H12B15134   3.252   1.125   5.844  2.0658  2.3712 -0.9042
  139OSM    C1115135   3.275   1.075   6.049 -0.3654 -0.3701 -0.0719
  139OSM   H11A15136   3.171   1.035   6.054  0.7532 -3.5871 -0.3410
  139OSM   H11B15137   3.295   1.128   6.145  0.7329 -0.4388 -0.2577
  139OSM      P15138   3.521   0.989   6.033  0.4210 -0.0067 -0.0836
  139OSM    O1315139   3.600   0.863   6.013  0.1065  0.1942 -0.5336
  139OSM    O1415140   3.554   1.095   5.938  0.0612  0.1809 -0.8503
  139OSM    O1115141   3.556   1.048   6.177 -0.1602  0.4556 -0.2383
  139OSM    O1215142   3.361   0.961   6.032 -0.6515 -0.1267 -0.4247
  139OSM    C1S15143   3.683   1.031   6.240  0.2846 -0.1352 -0.0508
  139OSM    H1S15144   3.748   1.118   6.214 -0.5186 -0.0617 -1.9588
  139OSM    H1T15145   3.735   0.940   6.202 -1.5357 -1.9130  1.5077
  139OSM     NF15146   3.790   1.031   6.452 -0.2206  0.1986 -0.0131
  139OSM    HNF15147   3.835   0.943   6.463 -2.5482 -1.2949 -1.4599
  139OSM    C2S15148   3.666   1.020   6.391  0.9785 -0.0054 -0.5525
  139OSM    H2S15149   3.596   1.099   6.426  2.5157  1.6710 -1.0842
  139OSM    C3S15150   3.590   0.878   6.425  0.2284 -0.0648 -0.5439
  139OSM    H3S15151   3.626   0.791   6.366  1.3471 -0.3871  0.5603
  139OSM     O315152   3.455   0.879   6.401  0.7597 -0.0882 -0.2293
  139OSM    HO315153   3.444   0.955   6.343 -1.9744 -0.1040  0.1579
  139OSM    C4S15154   3.597   0.854   6.575 -0.3379 -0.5001  0.0547
  139OSM    H4S15155   3.527   0.918   6.630  0.2265  1.1777 -1.1030
  139OSM    C5S15156   3.649   0.746   6.642 -1.3828  0.1812  0.4424
  139OSM    H5S15157   3.676   0.667   6.571  1.7404  2.5176 -1.1627
  139OSM    C6S15158   3.643   0.725   6.796 -0.7445  0.1599 -0.4734
  139OSM    H6S15159   3.733   0.671   6.832 -0.9479 -1.1466 -1.7833
  139OSM    H6T15160   3.552   0.665   6.821 -1.0412 -0.0991 -2.0746
  139OSM    C7S15161   3.632   0.856   6.878  0.1410 -0.5671 -0.8466
  139OSM    H7S15162   3.545   0.914   6.841 -0.3398 -1.4867 -1.1731
  139OSM    H7T15163   3.717   0.926   6.857  1.4054 -2.3367 -1.8895
  139OSM    C8S15164   3.605   0.840   7.030 -0.6993  0.6128 -0.3913
  139OSM    H8S15165   3.508   0.788   7.042 -0.2096  0.2242  2.4967
  139OSM    H8T15166   3.588   0.935   7.085  1.2023  1.4272 -1.1149
  139OSM    C9S15167   3.716   0.765   7.106  0.2061 -0.3464 -0.1216
  139OSM    H9S15168   3.810   0.822   7.086  0.0974 -0.4482 -0.9409
  139OSM    H9T15169   3.720   0.666   7.055 -0.2896  0.4064 -1.6960
  139OSM   C10S15170   3.672   0.749   7.253  0.8586 -0.7737 -0.4532
  139OSM   H10S15171   3.567   0.714   7.266  0.7517 -0.3625 -0.1871
  139OSM   H10T15172   3.683   0.848   7.302 -1.3884 -1.2487  1.2260
  139OSM   C11S15173   3.764   0.656   7.329 -0.3630  0.1856 -0.3613
  139OSM   H11S15174   3.871   0.677   7.311  0.3143 -2.3488  0.3865
  139OSM   H11T15175   3.754   0.549   7.302  0.4053 -0.4317  1.6418
  139OSM   C12S15176   3.735   0.651   7.479 -0.5885 -0.0708 -0.0834
  139OSM   H12S15177   3.762   0.558   7.534 -0.7332  1.4395  2.7596
  139OSM   H12T15178   3.631   0.685   7.493  0.1632  2.1327  0.6268
  139OSM   C13S15179   3.797   0.763   7.558 -0.0634 -0.5699  0.3688
  139OSM   H13S15180   3.771   0.862   7.515  1.5497 -1.0419 -1.8580
  139OSM   H13T15181   3.907   0.750   7.557  0.0496  0.0208  1.7506
  139OSM   C14S15182   3.750   0.749   7.707 -0.1098 -0.2586 -0.2618
  139OSM   H14S15183   3.686   0.661   7.727 -1.3940  0.6647 -0.2058
  139OSM   H14T15184   3.672   0.827   7.719 -2.3633 -2.4028 -0.1301
  139OSM   C15S15185   3.879   0.768   7.800  0.2604  0.5047  0.4091
  139OSM   H15S15186   3.928   0.862   7.766 -0.7746  0.5399 -1.0658
  139OSM   H15T15187   3.952   0.685   7.790  0.9869  1.2606 -0.8226
  139OSM   C16S15188   3.845   0.793   7.951  0.2749  0.3993 -0.1631
  139OSM   H16S15189   3.766   0.870   7.960 -1.0175 -0.9700  0.5743
  139OSM   H16T15190   3.934   0.836   8.002  0.4843  0.1336 -0.3025
  139OSM   C17S15191   3.802   0.663   8.019  0.4173 -0.4143 -0.7398
  139OSM   H17S15192   3.883   0.587   8.010  0.7482 -0.1703  0.1015
  139OSM   H17T15193   3.715   0.617   7.966  0.7853 -0.3329 -1.4213
  139OSM   C18S15194   3.771   0.681   8.169 -0.3884 -0.5200 -0.1688
  139OSM   H18S15195   3.668   0.719   8.185 -0.0389  0.0241  0.8621
  139OSM   H18T15196   3.847   0.740   8.224  0.0836 -1.8997  0.7143
  139OSM   H18U15197   3.784   0.579   8.211  1.5534 -0.6114 -0.8797
  139OSM    C1F15198   3.858   1.144   6.468  0.2310  0.0737 -0.1059
  139OSM     OF15199   3.793   1.245   6.450 -0.0035 -0.3979 -0.0568
  139OSM    C2F15200   4.003   1.139   6.507  0.2711  0.3925 -0.1407
  139OSM    H2F15201   4.066   1.219   6.463  3.4458 -1.8060  0.0057
  139OSM    H2G15202   4.046   1.041   6.477 -1.8991 -0.3496 -1.0275
  139OSM    C3F15203   4.008   1.148   6.665  0.0711  0.0910  0.8173
  139OSM    H3F15204   3.956   1.059   6.707 -0.2173 -1.2589 -2.1536
  139OSM    H3G15205   3.953   1.239   6.699 -0.0759 -0.2118  1.4195
  139OSM    C4F15206   4.153   1.135   6.712  0.5087  0.3295 -0.4604
  139OSM    H4F15207   4.212   1.211   6.657 -1.2247  1.4957 -0.7558
  139OSM    H4G15208   4.182   1.031   6.684  0.2045  0.5344 -1.5629
  139OSM    C5F15209   4.168   1.160   6.867 -0.0624  0.1792  0.1650
  139OSM    H5F15210   4.276   1.143   6.887  0.4665  1.9500 -0.9659
  139OSM    H5G15211   4.107   1.097   6.934 -2.7914  2.7046  0.2650
  139OSM    C6F15212   4.133   1.304   6.909 -0.7802 -0.3563 -0.7371
  139OSM    H6F15213   4.026   1.319   6.887 -0.7417  0.7786 -0.2456
  139OSM    H6G15214   4.191   1.385   6.858  1.3705 -2.2178 -1.4309
  139OSM    C7F15215   4.142   1.318   7.067  0.7744 -0.7396  0.9291
  139OSM    H7F15216   4.252   1.308   7.081  0.9781  0.5546  0.3458
  139OSM    H7G15217   4.088   1.233   7.115  0.7031  0.4864  3.1670
  139OSM    C8F15218   4.104   1.462   7.113  1.3085  0.5687 -0.1778
  139OSM    H8F15219   4.083   1.455   7.222 -1.1993  0.4090 -0.6011
  139OSM    H8G15220   4.006   1.490   7.068  0.7755 -2.7820 -1.4037
  139OSM    C9F15221   4.200   1.569   7.068  0.6680  1.1769  0.0155
  139OSM    H9F15222   4.207   1.584   6.959 -2.3337 -1.6463 -0.7259
  139OSM   C10F15223   4.270   1.646   7.154 -0.3112  0.4839  0.6686
  139OSM   H10F15224   4.350   1.707   7.109  0.3165 -2.6268 -2.9007
  139OSM   C11F15225   4.255   1.642   7.311  0.1757 -0.2055  0.0452
  139OSM   H11F15226   4.154   1.625   7.353 -0.9450  1.7541 -1.6394
  139OSM   H11G15227   4.272   1.740   7.361 -0.5901 -0.6504  1.2237
  139OSM   C12F15228   4.356   1.535   7.380 -0.5814  0.2211 -0.3713
  139OSM   H12F15229   4.460   1.551   7.347 -0.0516  2.8980  2.1948
  139OSM   H12G15230   4.323   1.433   7.353  2.5133 -1.5258  1.8501
  139OSM   C13F15231   4.323   1.535   7.532  0.5965  0.0941  0.1183
  139OSM   H13F15232   4.224   1.586   7.538  2.1650  3.4462 -0.6281
  139OSM   H13G15233   4.394   1.604   7.581 -1.3856  2.7212 -0.4742
  139OSM   C14F15234   4.329   1.396   7.598  0.5877  0.0279 -0.1744
  139OSM   H14F15235   4.423   1.381   7.655  2.8626  0.7438 -3.4433
  139OSM   H14G15236   4.323   1.309   7.530  0.9907 -1.1194  1.2241
  139OSM   C15F15237   4.217   1.355   7.696 -0.2366  0.0508 -0.7912
  139OSM   H15F15238   4.254   1.268   7.754 -1.4806  1.0078  1.5543
  139OSM   H15G15239   4.124   1.336   7.637 -2.5209  2.2482  1.8285
  139OSM   C16F15240   4.184   1.461   7.797 -0.1604  0.2162 -0.3736
  139OSM   H16F15241   4.075   1.460   7.818  0.0506 -0.1095  0.7700
  139OSM   H16G15242   4.191   1.569   7.769  0.8064  1.1419  2.9103
  139OSM   C17F15243   4.247   1.443   7.941 -0.1019 -0.3174  0.1535
  139OSM   H17F15244   4.358   1.455   7.939 -0.1191  0.7842  2.5780
  139OSM   H17G15245   4.213   1.349   7.989  0.3195  0.8955  3.0608
  139OSM   C18F15246   4.193   1.556   8.030  0.0605  0.1909  0.1871
  139OSM   H18F15247   4.084   1.577   8.024 -0.2789 -1.4622 -0.0363
  139OSM   H18G15248   4.242   1.651   8.002  0.4661  0.0636  0.4461
  139OSM   H18H15249   4.215   1.532   8.136 -1.2899  0.6257  0.5900
  140OSM      N15250   5.153   3.909   5.940 -0.0217  0.6855  0.6089
  140OSM    C1515251   5.005   3.907   5.950 -0.0967  0.0416  0.9629
  140OSM   H15A15252   4.977   3.967   6.035  0.6771 -1.4752  2.3703
  140OSM   H15B15253   4.962   3.810   5.969 -1.1182  0.2803 -0.0633
  140OSM   H15C15254   4.956   3.952   5.865  0.4247 -0.0930  0.5826
  140OSM    C1415255   5.192   3.837   5.812  0.8865 -0.4639 -0.5564
  140OSM   H14A15256   5.156   3.892   5.726 -3.5154 -1.1217  0.6391
  140OSM   H14B15257   5.149   3.739   5.802 -2.0439  0.6344  0.1122
  140OSM   H14C15258   5.298   3.824   5.798  0.5445 -2.1596 -1.8597
  140OSM    C1315259   5.200   4.051   5.917  0.0119  0.7402 -0.5201
  140OSM   H13A15260   5.308   4.051   5.919  0.1041  0.5409 -2.7798
  140OSM   H13B15261   5.145   4.121   5.978 -2.0101 -2.3826  1.5688
  140OSM   H13C15262   5.184   4.074   5.813  0.4754 -2.1166 -1.3189
  140OSM    C1215263   5.214   3.853   6.065 -0.3061  0.0588  0.3695
  140OSM   H12A15264   5.184   3.750   6.079  0.9804 -0.6715 -1.8030
  140OSM   H12B15265   5.195   3.903   6.159  1.2355 -3.3544  2.6854
  140OSM    C1115266   5.366   3.843   6.063  0.0947  0.0280  0.4578
  140OSM   H11A15267   5.437   3.926   6.043  1.0749 -0.9430 -0.1894
  140OSM   H11B15268   5.399   3.770   5.986 -2.3168 -1.6736  0.8976
  140OSM      P15269   5.437   3.883   6.310  0.1258 -0.3682 -0.4368
  140OSM    O1315270   5.582   3.868   6.323 -0.6526 -0.2532  0.1379
  140OSM    O1415271   5.381   4.016   6.290  0.1667  0.1027 -0.6652
  140OSM    O1115272   5.364   3.842   6.442 -0.0220 -0.1531  0.0821
  140OSM    O1215273   5.399   3.785   6.192  0.1007 -0.2881  0.3147
  140OSM    C1S15274   5.397   3.723   6.517  0.0926 -0.0456 -0.3953
  140OSM    H1S15275   5.507   3.706   6.506  0.0575 -0.1814 -0.5365
  140OSM    H1T15276   5.339   3.637   6.478 -1.0526 -0.0660  1.2795
  140OSM     NF15277   5.421   3.627   6.741 -0.3160 -0.1196 -0.3101
  140OSM    HNF15278   5.352   3.563   6.774 -2.2233  1.8024 -0.3171
  140OSM    C2S15279   5.372   3.741   6.666  0.3107 -0.1621 -0.0155
  140OSM    H2S15280   5.425   3.832   6.703  0.2183 -0.9357  2.1835
  140OSM    C3S15281   5.218   3.768   6.689  0.0105  0.1696 -0.1889
  140OSM    H3S15282   5.153   3.681   6.663  0.8400  0.1212 -2.3302
  140OSM     O315283   5.161   3.876   6.604 -0.7638  0.2763  0.4754
  140OSM    HO315284   5.232   3.883   6.539  2.1865 -2.0416  3.1676
  140OSM    C4S15285   5.191   3.802   6.837 -0.1070  0.6131  0.9297
  140OSM    H4S15286   5.170   3.709   6.892 -0.9365 -0.7228 -1.5089
  140OSM    C5S15287   5.193   3.924   6.903 -0.8616  0.3260  0.0742
  140OSM    H5S15288   5.215   4.018   6.852 -0.6230  0.3986  0.3087
  140OSM    C6S15289   5.163   3.942   7.048  0.0447 -0.4483  0.4600
  140OSM    H6S15290   5.127   4.045   7.066  0.5417 -0.4983  1.8560
  140OSM    H6T15291   5.258   3.932   7.104 -0.4705 -2.7913  1.0534
  140OSM    C7S15292   5.055   3.851   7.098 -0.5621 -0.3109 -0.1277
  140OSM    H7S15293   5.088   3.745   7.090 -0.0255 -0.1893  0.4107
  140OSM    H7T15294   4.959   3.852   7.042 -0.8360  0.5556  0.3372
  140OSM    C8S15295   5.008   3.869   7.244  0.4188 -1.2109 -0.2918
  140OSM    H8S15296   4.925   3.797   7.259  3.4390 -5.5602 -2.2756
  140OSM    H8T15297   4.962   3.970   7.234  0.8938 -0.7110  1.9886
  140OSM    C9S15298   5.114   3.868   7.352  0.4205 -0.0382  0.0372
  140OSM    H9S15299   5.186   3.952   7.351  0.8231 -0.3817 -0.4738
  140OSM    H9T15300   5.167   3.770   7.351  0.4601 -0.1251  2.6552
  140OSM   C10S15301   5.046   3.859   7.493 -0.3024 -0.4328 -0.2772
  140OSM   H10S15302   5.030   3.750   7.500  2.3760 -0.8639  0.3587
  140OSM   H10T15303   4.951   3.917   7.486  0.7991  1.3709 -1.0473
  140OSM   C11S15304   5.126   3.895   7.616  0.2024 -0.4129 -0.5518
  140OSM   H11S15305   5.068   3.898   7.711  0.2232 -1.2137 -0.5062
  140OSM   H11T15306   5.158   4.001   7.610 -0.7313 -0.1732 -1.7051
  140OSM   C12S15307   5.244   3.804   7.655  0.1745 -0.6771  0.0251
  140OSM   H12S15308   5.293   3.868   7.732 -2.0861 -0.2174  1.1920
  140OSM   H12T15309   5.311   3.780   7.570  2.6504  0.4452  1.5697
  140OSM   C13S15310   5.200   3.678   7.724 -1.3905  0.0282 -0.1411
  140OSM   H13S15311   5.122   3.622   7.668 -1.1277 -2.4619  1.7878
  140OSM   H13T15312   5.163   3.716   7.822 -0.0380 -1.4282  0.9942
  140OSM   C14S15313   5.316   3.579   7.738 -0.9218  0.8510  0.0503
  140OSM   H14S15314   5.350   3.540   7.640 -0.0542 -1.7532  1.2802
  140OSM   H14T15315   5.272   3.502   7.804  0.5017  0.6531  0.7985
  140OSM   C15S15316   5.438   3.622   7.820 -0.7869 -0.4969 -0.0948
  140OSM   H15S15317   5.479   3.702   7.755 -1.5617 -2.3576 -3.0114
  140OSM   H15T15318   5.520   3.548   7.831  2.0002  1.8473 -3.0476
  140OSM   C16S15319   5.413   3.698   7.951 -0.5453 -0.3776 -0.0230
  140OSM   H16S15320   5.361   3.627   8.019 -0.4012  0.5318  1.0646
  140OSM   H16T15321   5.347   3.784   7.926 -0.2878 -0.0994  0.2403
  140OSM   C17S15322   5.539   3.760   8.015 -0.5394 -0.7513  0.5810
  140OSM   H17S15323   5.595   3.824   7.943  0.8769 -1.0840  1.3681
  140OSM   H17T15324   5.615   3.688   8.052  1.1614 -0.2946 -1.7911
  140OSM   C18S15325   5.506   3.841   8.138  0.2355 -0.0595 -0.1777
  140OSM   H18S15326   5.594   3.859   8.203 -0.3150 -0.3872  0.6905
  140OSM   H18T15327   5.437   3.781   8.201  1.3562  0.8812  2.0549
  140OSM   H18U15328   5.456   3.939   8.121 -0.4470  0.2373  2.8504
  140OSM    C1F15329   5.547   3.603   6.754 -1.0188  0.8007 -0.5158
  140OSM     OF15330   5.627   3.689   6.723 -0.3220  0.3928  0.7093
  140OSM    C2F15331   5.589   3.471   6.825 -0.0965 -0.8302 -0.1330
  140OSM    H2F15332   5.599   3.384   6.757  0.5867 -1.1819  0.4051
  140OSM    H2G15333   5.527   3.444   6.914 -1.0460 -1.2875 -0.9040
  140OSM    C3F15334   5.730   3.495   6.883  0.4106 -0.0721  0.6477
  140OSM    H3F15335   5.725   3.581   6.953 -1.5628  1.3013 -1.0422
  140OSM    H3G15336   5.802   3.519   6.802 -1.8734  0.7006 -1.2907
  140OSM    C4F15337   5.778   3.381   6.975  0.3896  0.6005 -0.6022
  140OSM    H4F15338   5.762   3.279   6.933 -0.7011  0.1111  0.9283
  140OSM    H4G15339   5.712   3.391   7.063  1.7053  2.4936  0.2461
  140OSM    C5F15340   5.923   3.384   7.025 -0.2691  0.2164  0.3759
  140OSM    H5F15341   5.986   3.366   6.935 -2.0628  0.4809 -0.9705
  140OSM    H5G15342   5.934   3.299   7.096  0.5903  1.0057  1.2335
  140OSM    C6F15343   5.952   3.520   7.091 -0.5273 -0.2875 -0.3200
  140OSM    H6F15344   5.879   3.537   7.173 -0.3010  1.2509 -0.4085
  140OSM    H6G15345   5.926   3.600   7.019 -2.6101 -0.3331  0.3050
  140OSM    C7F15346   6.097   3.539   7.148 -0.4271 -0.3349  0.0325
  140OSM    H7F15347   6.127   3.643   7.172  1.1770 -0.5392 -0.9460
  140OSM    H7G15348   6.169   3.508   7.069  0.3160 -1.4843  1.1060
  140OSM    C8F15349   6.109   3.439   7.261 -0.3354 -0.3219 -0.0350
  140OSM    H8F15350   6.077   3.342   7.218 -1.2962  0.3095 -0.7908
  140OSM    H8G15351   6.032   3.463   7.338 -0.7018 -0.6233 -0.3084
  140OSM    C9F15352   6.253   3.407   7.308  0.4456  0.9276  0.3402
  140OSM    H9F15353   6.315   3.375   7.223 -1.7943 -0.0497 -1.0356
  140OSM   C10F15354   6.294   3.398   7.438 -0.4731 -0.2644 -0.5866
  140OSM   H10F15355   6.399   3.381   7.464  0.0539  2.2968 -0.8453
  140OSM   C11F15356   6.203   3.432   7.557  0.3815 -0.3044 -0.5822
  140OSM   H11F15357   6.197   3.343   7.624  0.3136 -0.2158 -0.4701
  140OSM   H11G15358   6.101   3.470   7.538  0.8371  0.8857 -0.7545
  140OSM   C12F15359   6.285   3.539   7.640  0.4268  0.1474 -0.2359
  140OSM   H12F15360   6.214   3.594   7.706  0.8285  0.1985  0.1550
  140OSM   H12G15361   6.334   3.601   7.562  0.8576 -1.3601 -1.2058
  140OSM   C13F15362   6.402   3.493   7.733  0.1737  0.0636 -0.9218
  140OSM   H13F15363   6.455   3.587   7.759  0.1696 -0.4031  0.9402
  140OSM   H13G15364   6.477   3.438   7.673  1.3480  0.3865  0.1921
  140OSM   C14F15365   6.355   3.427   7.861  0.6487  0.7350  0.2743
  140OSM   H14F15366   6.331   3.322   7.833  1.2079  0.9474 -1.0629
  140OSM   H14G15367   6.256   3.462   7.897  0.5486 -0.2423  0.9977
  140OSM   C15F15368   6.467   3.427   7.981  0.9065  0.4771 -0.2144
  140OSM   H15F15369   6.499   3.530   8.006  1.9045  0.4672 -1.3935
  140OSM   H15G15370   6.562   3.394   7.935 -0.1059  1.1525 -3.0031
  140OSM   C16F15371   6.427   3.336   8.100 -0.4003 -0.4690  0.2212
  140OSM   H16F15372   6.499   3.349   8.183  0.2129  0.6680 -0.4500
  140OSM   H16G15373   6.432   3.233   8.059 -1.2500 -0.1196 -0.8241
  140OSM   C17F15374   6.287   3.364   8.165  0.2739 -0.1843  0.1830
  140OSM   H17F15375   6.205   3.358   8.091  1.0733 -1.7199 -0.6342
  140OSM   H17G15376   6.283   3.470   8.197  0.5315  0.9723 -3.2644
  140OSM   C18F15377   6.250   3.286   8.294  0.3970 -0.2442  0.1551
  140OSM   H18F15378   6.338   3.272   8.361 -0.7758 -1.2524  1.5502
  140OSM   H18G15379   6.223   3.180   8.275  0.3384 -0.3802  0.9387
  140OSM   H18H15380   6.166   3.330   8.351  0.8653  2.7471 -1.2864
  141OSM      N15381   3.244   5.701   6.059 -0.3781  0.3626  0.7979
  141OSM    C1515382   3.115   5.670   6.123 -0.2811 -0.1297  0.0731
  141OSM   H15A15383   3.118   5.581   6.184 -0.4168  0.2962  0.7081
  141OSM   H15B15384   3.027   5.664   6.061 -0.4784 -0.2077  0.3585
  141OSM   H15C15385   3.080   5.748   6.188 -0.4840 -2.6768  3.2869
  141OSM    C1415386   3.271   5.618   5.937  0.3541  0.4898  0.4561
  141OSM   H14A15387   3.271   5.512   5.957  1.8780  0.5528  0.9447
  141OSM   H14B15388   3.369   5.640   5.896 -0.2717  0.2918 -1.2158
  141OSM   H14C15389   3.205   5.623   5.852  1.3829 -2.6485 -0.6979
  141OSM    C1315390   3.256   5.843   6.009  0.1575  0.5151 -0.0203
  141OSM   H13A15391   3.352   5.848   5.959 -0.1095 -1.4034 -0.8389
  141OSM   H13B15392   3.236   5.912   6.089 -3.4588 -0.8891  0.5030
  141OSM   H13C15393   3.172   5.863   5.943 -0.7171 -1.0520  0.5593
  141OSM    C1215394   3.356   5.671   6.157 -0.2582  0.3975  1.2280
  141OSM   H12A15395   3.339   5.738   6.240 -0.0686  3.0552 -0.7392
  141OSM   H12B15396   3.449   5.703   6.113 -0.7494  0.8861  0.5131
  141OSM    C1115397   3.362   5.529   6.211  0.2063 -0.2773 -0.3861
  141OSM   H11A15398   3.448   5.528   6.282 -0.3361  3.7474  0.5818
  141OSM   H11B15399   3.388   5.465   6.124  0.8506  0.8133 -1.0092
  141OSM      P15400   3.186   5.339   6.239  0.2310 -0.0520  0.2226
  141OSM    O1315401   3.075   5.319   6.331 -0.1659  0.7228 -0.6114
  141OSM    O1415402   3.153   5.323   6.097 -0.7014  0.4837 -0.0117
  141OSM    O1115403   3.312   5.248   6.283 -0.0789 -0.3175 -0.4885
  141OSM    O1215404   3.237   5.485   6.274 -0.6026 -0.3200  0.3112
  141OSM    C1S15405   3.364   5.248   6.414 -0.1171 -0.4958  0.1023
  141OSM    H1S15406   3.377   5.354   6.444  0.9144 -0.6401  0.1818
  141OSM    H1T15407   3.466   5.204   6.414 -0.2273 -0.7720  0.7116
  141OSM     NF15408   3.348   5.176   6.646  0.6211 -0.1997  1.2407
  141OSM    HNF15409   3.424   5.116   6.668  1.4996  0.4960  0.1898
  141OSM    C2S15410   3.287   5.165   6.516  0.5195  0.4879  0.0672
  141OSM    H2S15411   3.181   5.195   6.524  1.0604  3.3519 -1.9000
  141OSM    C3S15412   3.291   5.021   6.461  0.1350  0.3148 -0.2197
  141OSM    H3S15413   3.393   4.983   6.441 -1.1624 -2.5214 -2.2530
  141OSM     O315414   3.232   5.004   6.332 -0.0735  0.2067 -0.4399
  141OSM    HO315415   3.222   5.091   6.293  2.9309 -0.8580 -4.2570
  141OSM    C4S15416   3.236   4.921   6.569 -0.2584 -0.2669 -0.0979
  141OSM    H4S15417   3.300   4.917   6.658  0.1011 -0.1181 -0.3487
  141OSM    C5S15418   3.114   4.861   6.555 -0.4627  0.5532 -0.3096
  141OSM    H5S15419   3.054   4.884   6.466 -0.6566  2.1452  0.2018
  141OSM    C6S15420   3.052   4.772   6.665  0.9621 -0.4571 -0.8001
  141OSM    H6S15421   3.040   4.676   6.612  1.7239 -0.6762 -0.5858
  141OSM    H6T15422   2.950   4.813   6.686  1.5710  0.3802  0.7445
  141OSM    C7S15423   3.131   4.754   6.795 -0.1803 -0.1476 -0.0940
  141OSM    H7S15424   3.140   4.859   6.828  0.5527  0.8166 -3.0531
  141OSM    H7T15425   3.230   4.705   6.781  0.3739  0.4868  1.4030
  141OSM    C8S15426   3.059   4.675   6.906 -0.2245  0.7821 -0.0416
  141OSM    H8S15427   3.049   4.568   6.877  0.1631  1.4122 -2.7785
  141OSM    H8T15428   2.955   4.710   6.920 -0.9208 -0.7052 -1.1710
  141OSM    C9S15429   3.123   4.676   7.041 -0.8148 -0.0261  0.1986
  141OSM    H9S15430   3.155   4.780   7.062  0.2847  0.0646 -1.6732
  141OSM    H9T15431   3.217   4.624   7.014 -1.1601 -0.4841 -0.1433
  141OSM   C10S15432   3.048   4.586   7.146  0.2282  0.1356  0.6414
  141OSM   H10S15433   3.026   4.483   7.111 -2.2528  0.7770  0.0842
  141OSM   H10T15434   2.951   4.641   7.151 -0.0327 -0.0884 -1.2487
  141OSM   C11S15435   3.106   4.587   7.285  1.0215 -0.1591  0.0148
  141OSM   H11S15436   3.028   4.538   7.347  1.5401 -0.9822  0.0290
  141OSM   H11T15437   3.132   4.693   7.306  0.3130 -0.2271  1.3028
  141OSM   C12S15438   3.231   4.504   7.290 -0.0892 -0.2757  0.2350
  141OSM   H12S15439   3.303   4.537   7.212  1.7142  1.6420  2.5546
  141OSM   H12T15440   3.215   4.398   7.261 -2.1268 -0.0496  0.4361
  141OSM   C13S15441   3.313   4.519   7.419 -0.2528 -0.1325  0.3123
  141OSM   H13S15442   3.339   4.622   7.451  0.7545 -0.2835 -0.0005
  141OSM   H13T15443   3.402   4.452   7.419 -1.1349 -1.3528  0.1730
  141OSM   C14S15444   3.227   4.469   7.543  0.9445 -0.7942  0.1263
  141OSM   H14S15445   3.197   4.371   7.502  0.8952  0.0967 -2.0963
  141OSM   H14T15446   3.130   4.522   7.557  0.5951 -1.0226 -1.3217
  141OSM   C15S15447   3.292   4.472   7.675  0.2281  0.0796 -0.7782
  141OSM   H15S15448   3.316   4.573   7.714 -1.1622  0.2555 -0.3004
  141OSM   H15T15449   3.387   4.420   7.652  2.1040  3.1471 -0.5118
  141OSM   C16S15450   3.201   4.409   7.783  0.0825 -0.0154  0.3560
  141OSM   H16S15451   3.206   4.300   7.760 -1.4538  0.1121 -0.7441
  141OSM   H16T15452   3.098   4.446   7.762  0.5178  0.3504 -1.2343
  141OSM   C17S15453   3.242   4.435   7.926  0.1272 -0.2945  0.1761
  141OSM   H17S15454   3.345   4.407   7.956  1.0803  2.9918  0.3544
  141OSM   H17T15455   3.170   4.374   7.985 -1.0021  0.9855  0.1736
  141OSM   C18S15456   3.251   4.584   7.967  0.6049 -0.2350 -0.0985
  141OSM   H18S15457   3.265   4.589   8.077 -1.2325 -1.7980  0.2731
  141OSM   H18T15458   3.152   4.632   7.950  1.1104  1.3179  1.0839
  141OSM   H18U15459   3.321   4.640   7.901 -1.5106  1.0216 -1.4312
  141OSM    C1F15460   3.331   5.291   6.702  0.1665  0.4077 -0.1679
  141OSM     OF15461   3.249   5.372   6.655 -0.0028 -0.4154 -0.2243
  141OSM    C2F15462   3.409   5.321   6.827 -0.2879 -0.2841  0.5928
  141OSM    H2F15463   3.415   5.432   6.830 -1.5177 -0.2184  1.3946
  141OSM    H2G15464   3.511   5.277   6.829 -1.1434 -2.4354  0.3843
  141OSM    C3F15465   3.316   5.289   6.956 -0.6544 -0.2654  0.7138
  141OSM    H3F15466   3.232   5.362   6.958 -0.7749 -0.3476 -0.5058
  141OSM    H3G15467   3.383   5.312   7.041 -0.0213 -1.9637  0.7183
  141OSM    C4F15468   3.283   5.134   6.951  0.6577 -0.8553  0.8322
  141OSM    H4F15469   3.237   5.097   6.857 -1.4704 -1.6970  2.1301
  141OSM    H4G15470   3.194   5.108   7.013 -1.0695 -1.8269 -1.8851
  141OSM    C5F15471   3.399   5.041   6.984  0.0536  0.3381  0.2301
  141OSM    H5F15472   3.470   5.065   6.902 -2.8319  0.4244 -2.4324
  141OSM    H5G15473   3.366   4.938   6.960 -1.9642  0.8781  0.4531
  141OSM    C6F15474   3.459   5.048   7.121  0.2725 -0.3759 -0.0848
  141OSM    H6F15475   3.482   5.153   7.150 -0.6968  0.2912 -1.6140
  141OSM    H6G15476   3.553   4.988   7.121  2.2929  2.4842 -1.8484
  141OSM    C7F15477   3.365   4.990   7.227  0.0323 -0.3803  0.5664
  141OSM    H7F15478   3.359   4.881   7.205  0.2596 -0.6165  1.6252
  141OSM    H7G15479   3.266   5.040   7.218 -0.0550 -0.8754 -1.8088
  141OSM    C8F15480   3.407   5.023   7.369  0.1245  0.1539 -0.1877
  141OSM    H8F15481   3.394   5.133   7.380  0.9342  0.2610 -0.2501
  141OSM    H8G15482   3.512   4.995   7.394 -0.1028 -0.2295  0.3791
  141OSM    C9F15483   3.307   4.954   7.473 -0.4486 -0.0713  0.2484
  141OSM    H9F15484   3.200   4.965   7.453 -0.5505  0.9641  1.2321
  141OSM   C10F15485   3.343   4.881   7.583 -0.0584 -0.8027 -0.5132
  141OSM   H10F15486   3.269   4.835   7.649  1.6908  0.4629  2.5260
  141OSM   C11F15487   3.489   4.856   7.625 -0.2108  0.3227 -0.6537
  141OSM   H11F15488   3.563   4.908   7.561  0.2468  1.2321  0.5667
  141OSM   H11G15489   3.508   4.747   7.618 -1.0319  0.2332 -1.7115
  141OSM   C12F15490   3.540   4.893   7.759  0.5539 -0.7878 -0.8736
  141OSM   H12F15491   3.646   4.867   7.781  0.1618 -0.3491  1.9495
  141OSM   H12G15492   3.481   4.838   7.835  2.8461 -2.1515  0.0172
  141OSM   C13F15493   3.523   5.045   7.803 -0.0606  0.1869  0.4002
  141OSM   H13F15494   3.426   5.086   7.766  1.2904  2.0901 -1.2513
  141OSM   H13G15495   3.602   5.103   7.751 -0.9771  0.2710 -0.9405
  141OSM   C14F15496   3.537   5.067   7.951 -0.6182 -0.2841  0.0084
  141OSM   H14F15497   3.640   5.039   7.983  0.4738  2.9343 -0.3069
  141OSM   H14G15498   3.460   5.006   8.002  0.0595 -1.4998 -0.3899
  141OSM   C15F15499   3.522   5.209   8.003  0.6938 -0.2710  0.7990
  141OSM   H15F15500   3.420   5.241   7.973  0.6518 -0.9460  0.2179
  141OSM   H15G15501   3.595   5.280   7.959 -1.9222  1.4851 -0.9710
  141OSM   C16F15502   3.536   5.226   8.157 -0.7553  0.0416  0.0133
  141OSM   H16F15503   3.637   5.188   8.185 -1.3624 -1.1686  0.6454
  141OSM   H16G15504   3.458   5.157   8.196 -0.5488 -0.8830 -1.1517
  141OSM   C17F15505   3.518   5.369   8.198 -0.7371  0.5278 -0.4866
  141OSM   H17F15506   3.411   5.397   8.189 -0.4255  1.0459 -4.7883
  141OSM   H17G15507   3.575   5.433   8.127 -1.3235  1.9473  0.2861
  141OSM   C18F15508   3.574   5.390   8.338  0.1076  0.0895 -0.2832
  141OSM   H18F15509   3.660   5.321   8.353  0.6015  0.6522 -0.4538
  141OSM   H18G15510   3.492   5.385   8.413 -0.3913  2.3080 -0.5968
  141OSM   H18H15511   3.606   5.496   8.345 -0.8718  0.4194 -0.6239
  142OSM      N15512   3.513   6.654   6.050 -0.2646  0.2186  0.3902
  142OSM    C1515513   3.425   6.573   5.963  0.2206 -0.3484  0.2398
  142OSM   H15A15514   3.450   6.584   5.858  2.1290  2.7068  0.8993
  142OSM   H15B15515   3.320   6.595   5.978 -0.0202 -0.9187 -0.5278
  142OSM   H15C15516   3.433   6.470   5.994  1.6365 -0.1761  0.5031
  142OSM    C1415517   3.647   6.597   6.075  0.3445 -0.5588  0.1227
  142OSM   H14A15518   3.695   6.654   6.152  2.1760  0.8996 -1.9959
  142OSM   H14B15519   3.715   6.606   5.992  1.1511 -0.0652  0.8258
  142OSM   H14C15520   3.641   6.491   6.097 -0.9959 -1.0363 -2.1152
  142OSM    C1315521   3.523   6.784   5.986 -0.1942 -0.3476 -0.1843
  142OSM   H13A15522   3.577   6.860   6.041  0.4459 -0.0661 -1.1639
  142OSM   H13B15523   3.429   6.828   5.956 -0.2400 -1.2620 -1.4818
  142OSM   H13C15524   3.576   6.767   5.894 -0.2486 -0.3287 -0.2198
  142OSM    C1215525   3.451   6.671   6.187 -0.4184 -0.6426 -0.1782
  142OSM   H12A15526   3.437   6.577   6.239 -1.0353 -0.3453  0.2043
  142OSM   H12B15527   3.354   6.715   6.170 -1.4802 -2.7242  0.1225
  142OSM    C1115528   3.529   6.755   6.293 -0.6492 -0.2209  0.3805
  142OSM   H11A15529   3.462   6.773   6.380 -1.0736  2.8739 -0.4756
  142OSM   H11B15530   3.557   6.853   6.249  0.8960 -1.2465 -1.0474
  142OSM      P15531   3.637   6.575   6.456  0.4766 -0.1916  0.1959
  142OSM    O1315532   3.558   6.465   6.396 -0.2020 -0.4451  0.0810
  142OSM    O1415533   3.774   6.540   6.501 -0.1422  0.1336  0.3586
  142OSM    O1115534   3.551   6.635   6.570  0.2701  0.0193  0.2317
  142OSM    O1215535   3.648   6.685   6.343 -0.2073  0.1916 -0.2309
  142OSM    C1S15536   3.615   6.726   6.666  0.0435  0.2612 -0.3854
  142OSM    H1S15537   3.626   6.832   6.633 -0.3752  0.9877  1.6349
  142OSM    H1T15538   3.714   6.690   6.701  0.2206  0.3862 -0.7491
  142OSM     NF15539   3.591   6.822   6.886 -0.2560  0.9139 -0.1245
  142OSM    HNF15540   3.659   6.799   6.955 -0.3836  0.2100 -0.2227
  142OSM    C2S15541   3.542   6.720   6.797  0.2957  0.1797  0.0083
  142OSM    H2S15542   3.434   6.734   6.776  0.4491  1.1857 -0.1764
  142OSM    C3S15543   3.544   6.578   6.850  0.4544  0.2274  0.3859
  142OSM    H3S15544   3.648   6.539   6.848  0.0204 -0.9062 -0.6699
  142OSM     O315545   3.476   6.481   6.767  0.4384 -0.5661 -0.3867
  142OSM    HO315546   3.462   6.523   6.682 -1.3561  0.5139  0.3826
  142OSM    C4S15547   3.490   6.571   6.995 -0.2008  0.2091  0.2142
  142OSM    H4S15548   3.566   6.581   7.074  0.0218 -1.5718  0.2728
  142OSM    C5S15549   3.367   6.529   7.031 -0.8286  0.1694 -0.1147
  142OSM    H5S15550   3.293   6.491   6.959  0.2460  0.4293 -1.3925
  142OSM    C6S15551   3.324   6.508   7.176  0.0342 -0.3471 -0.6910
  142OSM    H6S15552   3.347   6.409   7.221 -1.0412  0.5191  2.0265
  142OSM    H6T15553   3.216   6.529   7.187  0.3129  3.4161 -3.1622
  142OSM    C7S15554   3.396   6.608   7.271 -0.1789  0.1177 -0.3357
  142OSM    H7S15555   3.394   6.714   7.240  2.3777  0.1074 -0.7469
  142OSM    H7T15556   3.501   6.571   7.267 -1.3117 -3.6462  0.9637
  142OSM    C8S15557   3.351   6.605   7.416 -0.2143 -0.2419 -0.0163
  142OSM    H8S15558   3.327   6.503   7.453 -0.6647 -0.2403 -0.2992
  142OSM    H8T15559   3.258   6.664   7.422 -1.6555 -2.3657 -0.3691
  142OSM    C9S15560   3.465   6.657   7.509  0.1908  0.3613  0.4307
  142OSM    H9S15561   3.513   6.752   7.475 -0.4850 -0.0857 -1.8705
  142OSM    H9T15562   3.552   6.589   7.500  1.1264  1.5935 -0.2112
  142OSM   C10S15563   3.411   6.660   7.654  0.5167  0.8743 -0.4125
  142OSM   H10S15564   3.396   6.559   7.697  1.6439  0.8191 -0.1201
  142OSM   H10T15565   3.318   6.721   7.658  0.3275  0.6167 -0.7799
  142OSM   C11S15566   3.506   6.718   7.758  0.4802 -0.0372  0.2304
  142OSM   H11S15567   3.530   6.818   7.716 -2.8402  0.5339 -0.5983
  142OSM   H11T15568   3.603   6.664   7.768  1.3725  1.3817 -0.4834
  142OSM   C12S15569   3.443   6.740   7.892  1.0469  0.0895 -0.3945
  142OSM   H12S15570   3.369   6.657   7.898  1.7113 -0.4722  0.1911
  142OSM   H12T15571   3.377   6.830   7.899  0.1957 -0.6070  0.8777
  142OSM   C13S15572   3.540   6.754   8.012  0.0334 -0.4491  0.2856
  142OSM   H13S15573   3.588   6.853   7.995 -1.3540  0.5692  1.9510
  142OSM   H13T15574   3.626   6.684   8.011  1.6789  1.4953  0.2780
  142OSM   C14S15575   3.469   6.744   8.140  0.5592  0.6665 -0.2498
  142OSM   H14S15576   3.423   6.643   8.143  0.6715  0.6409  1.4045
  142OSM   H14T15577   3.387   6.819   8.143  0.9005  1.0113  1.7176
  142OSM   C15S15578   3.558   6.781   8.253 -0.1617 -0.1496  0.2434
  142OSM   H15S15579   3.595   6.884   8.236 -0.7752 -0.1213 -0.9827
  142OSM   H15T15580   3.653   6.723   8.255  0.4663  0.7912 -1.0980
  142OSM   C16S15581   3.492   6.764   8.387 -0.1002  0.4366 -0.5394
  142OSM   H16S15582   3.453   6.660   8.388 -1.5289  0.9498 -0.6072
  142OSM   H16T15583   3.406   6.834   8.392  0.3859  1.2786 -2.9824
  142OSM   C17S15584   3.587   6.783   8.511 -0.4365 -0.5798  0.0189
  142OSM   H17S15585   3.617   6.889   8.504 -3.2317  0.4491  1.6841
  142OSM   H17T15586   3.680   6.727   8.491 -1.0533 -1.3411 -0.8021
  142OSM   C18S15587   3.525   6.761   8.645  0.1086  1.0539 -0.5873
  142OSM   H18S15588   3.435   6.817   8.677 -1.8217 -1.9620 -0.3422
  142OSM   H18T15589   3.602   6.781   8.723 -1.1337  1.2260  0.6304
  142OSM   H18U15590   3.481   6.660   8.641 -1.3206  1.5209  1.5941
  142OSM    C1F15591   3.559   6.947   6.873 -0.4041  0.7238  1.0051
  142OSM     OF15592   3.495   6.983   6.775  0.1229  0.5821 -0.1457
  142OSM    C2F15593   3.603   7.034   6.982 -0.3342  0.3109 -0.0618
  142OSM    H2F15594   3.712   7.047   7.000 -0.7112  0.5965  2.3928
  142OSM    H2G15595   3.579   6.978   7.075  2.7991 -1.1975 -0.0393
  142OSM    C3F15596   3.527   7.167   6.986  0.3916  0.7149 -0.3488
  142OSM    H3F15597   3.421   7.167   6.953 -0.1332  1.5667  1.1947
  142OSM    H3G15598   3.578   7.244   6.926  0.9347 -1.1739 -2.4359
  142OSM    C4F15599   3.519   7.224   7.129  0.2423  0.3172 -0.7679
  142OSM    H4F15600   3.490   7.331   7.131 -3.4105 -0.5292 -1.9033
  142OSM    H4G15601   3.625   7.214   7.164  0.6569  2.8874 -1.0860
  142OSM    C5F15602   3.423   7.151   7.228  0.2691 -0.4550 -0.3630
  142OSM    H5F15603   3.404   7.048   7.192  0.1458 -0.8513  0.7900
  142OSM    H5G15604   3.334   7.217   7.226  1.4802  1.2512 -1.7853
  142OSM    C6F15605   3.487   7.139   7.371  0.6480  0.2413  0.6102
  142OSM    H6F15606   3.561   7.217   7.399 -1.5509  2.0627  1.5916
  142OSM    H6G15607   3.526   7.035   7.377 -2.8143 -1.2718 -0.5719
  142OSM    C7F15608   3.381   7.142   7.483 -0.4946  0.0013  0.2483
  142OSM    H7F15609   3.299   7.079   7.443  0.6321 -1.5550  0.3109
  142OSM    H7G15610   3.337   7.244   7.491 -1.7144 -0.5948  1.3935
  142OSM    C8F15611   3.422   7.079   7.621  0.3274  0.0693  0.1534
  142OSM    H8F15612   3.487   6.990   7.607  1.0093  0.8163 -1.7874
  142OSM    H8G15613   3.323   7.046   7.659 -0.3853 -0.4806 -2.0014
  142OSM    C9F15614   3.498   7.180   7.697 -0.0053  0.1650 -0.0895
  142OSM    H9F15615   3.576   7.225   7.634 -0.2997  0.5962 -0.1507
  142OSM   C10F15616   3.471   7.237   7.814  0.8513  0.0687  0.2330
  142OSM   H10F15617   3.546   7.301   7.863  0.2421  0.2943  0.8842
  142OSM   C11F15618   3.350   7.208   7.901 -0.2737  0.2778 -0.3328
  142OSM   H11F15619   3.274   7.149   7.846  0.7586 -0.5758 -0.8690
  142OSM   H11G15620   3.305   7.306   7.929  0.7231  0.6772 -0.0596
  142OSM   C12F15621   3.391   7.147   8.026  0.5197  0.3406 -0.2384
  142OSM   H12F15622   3.464   7.063   8.023  2.0362  1.3869  2.8792
  142OSM   H12G15623   3.304   7.093   8.067  1.9506 -0.5136  1.8690
  142OSM   C13F15624   3.444   7.250   8.132  0.1585 -0.4118  0.4918
  142OSM   H13F15625   3.363   7.325   8.141  2.0935  1.5953  2.4131
  142OSM   H13G15626   3.536   7.292   8.086 -0.0387 -0.3463  0.1575
  142OSM   C14F15627   3.477   7.205   8.273  0.3557 -0.1935 -0.1306
  142OSM   H14F15628   3.512   7.297   8.324  1.9472 -0.9031  0.0962
  142OSM   H14G15629   3.566   7.139   8.262  1.9609  1.5756  1.6462
  142OSM   C15F15630   3.357   7.146   8.362 -0.2691 -0.1390 -1.0238
  142OSM   H15F15631   3.322   7.043   8.338  1.3080 -0.9791  0.1322
  142OSM   H15G15632   3.272   7.216   8.350  1.7127  2.1216 -2.7688
  142OSM   C16F15633   3.404   7.147   8.508  0.4359 -0.0328  0.0629
  142OSM   H16F15634   3.427   7.253   8.529  1.0609  0.4852 -2.8483
  142OSM   H16G15635   3.496   7.088   8.528  0.8181 -0.0771 -1.6458
  142OSM   C17F15636   3.306   7.104   8.613  0.1183  0.2078 -0.4384
  142OSM   H17F15637   3.367   7.128   8.703  3.4021 -0.2786 -2.3621
  142OSM   H17G15638   3.282   6.996   8.611  0.3835  0.0602  1.8724
  142OSM   C18F15639   3.184   7.194   8.626 -0.0411  0.2010 -0.5320
  142OSM   H18F15640   3.206   7.301   8.642  0.0572 -0.0519  1.1541
  142OSM   H18G15641   3.127   7.169   8.718  0.5741 -0.3066 -0.2799
  142OSM   H18H15642   3.115   7.186   8.539 -0.2577  0.1689 -0.3579
  143OSM      N15643   5.779   1.841   6.104  0.2287  0.1995 -0.2947
  143OSM    C1515644   5.816   1.984   6.104 -0.2747  0.1837  0.3986
  143OSM   H15A15645   5.851   2.013   6.006  0.8002  0.0656  0.7421
  143OSM   H15B15646   5.903   1.994   6.167  0.6915  1.4890 -1.0805
  143OSM   H15C15647   5.735   2.052   6.126 -1.6986 -1.6393  1.0254
  143OSM    C1415648   5.687   1.824   6.224 -0.6825 -1.0462 -0.1180
  143OSM   H14A15649   5.636   1.919   6.227  2.3047  0.6828  0.3055
  143OSM   H14B15650   5.751   1.807   6.309 -0.2505 -1.0526 -0.4410
  143OSM   H14C15651   5.630   1.734   6.208  1.4173 -2.2975 -1.0043
  143OSM    C1315652   5.704   1.814   5.978  0.1841 -0.1004  0.6365
  143OSM   H13A15653   5.781   1.819   5.902  2.5648 -0.1164  2.9019
  143OSM   H13B15654   5.629   1.886   5.949  0.2663 -0.0454  0.5587
  143OSM   H13C15655   5.668   1.712   5.977 -0.7353  0.2115 -0.2022
  143OSM    C1215656   5.898   1.753   6.114  0.3020 -0.6345  0.0296
  143OSM   H12A15657   5.964   1.780   6.032 -1.5309  1.7892 -0.7770
  143OSM   H12B15658   5.860   1.653   6.098 -0.9222 -0.0857 -0.6103
  143OSM    C1115659   5.986   1.766   6.244  0.6604 -0.4041  0.5041
  143OSM   H11A15660   6.051   1.678   6.225 -1.6478 -1.8177 -1.4529
  143OSM   H11B15661   5.930   1.750   6.338 -0.5562  0.2308 -0.0846
  143OSM      P15662   6.187   1.900   6.140  0.0508  0.1707 -0.1664
  143OSM    O1315663   6.177   1.790   6.042  0.0502  0.1729 -0.1895
  143OSM    O1415664   6.200   2.027   6.072 -0.5519  0.1893  0.0326
  143OSM    O1115665   6.311   1.881   6.236  0.2182 -0.1866  0.7394
  143OSM    O1215666   6.066   1.886   6.237 -0.6961 -0.2171 -0.8190
  143OSM    C1S15667   6.321   1.928   6.363  0.0124 -0.1697 -0.3785
  143OSM    H1S15668   6.277   2.029   6.379  0.9918 -0.2047  3.6365
  143OSM    H1T15669   6.430   1.946   6.379  0.2650 -2.0258  0.1867
  143OSM     NF15670   6.289   1.900   6.607  0.1823  0.5425  0.0948
  143OSM    HNF15671   6.341   1.848   6.674 -0.3627 -0.1812 -0.0372
  143OSM    C2S15672   6.279   1.838   6.481  0.1912  0.7825  0.0456
  143OSM    H2S15673   6.169   1.834   6.464 -0.1110  0.1689  1.8726
  143OSM    C3S15674   6.349   1.699   6.472  0.0155 -0.5263  0.2733
  143OSM    H3S15675   6.458   1.715   6.487 -0.0919 -1.0840  1.8371
  143OSM     O315676   6.339   1.635   6.343 -0.1770  0.1303  0.6082
  143OSM    HO315677   6.327   1.717   6.295 -0.8506 -1.2278 -1.7266
  143OSM    C4S15678   6.289   1.609   6.585  0.2766 -0.5171 -0.1048
  143OSM    H4S15679   6.340   1.618   6.682 -0.2758  1.4132  0.0433
  143OSM    C5S15680   6.174   1.539   6.582  0.1652  0.0610 -0.0203
  143OSM    H5S15681   6.112   1.532   6.492 -1.1734 -0.7281  0.9230
  143OSM    C6S15682   6.108   1.465   6.697 -0.3702  0.4274  0.2034
  143OSM    H6S15683   6.121   1.355   6.684 -1.8147  0.0268  1.7101
  143OSM    H6T15684   5.998   1.482   6.690 -0.3368  0.3638 -0.5584
  143OSM    C7S15685   6.173   1.520   6.827  0.0108  0.0940  0.7094
  143OSM    H7S15686   6.158   1.630   6.819 -2.5823 -0.1660  1.3376
  143OSM    H7T15687   6.281   1.502   6.845 -0.2580  0.1212  2.5833
  143OSM    C8S15688   6.105   1.457   6.950  0.1956 -0.7181 -0.4711
  143OSM    H8S15689   6.107   1.346   6.937  1.6073 -0.6559 -0.9168
  143OSM    H8T15690   6.002   1.497   6.951 -0.4055 -2.2099 -0.7876
  143OSM    C9S15691   6.181   1.499   7.083 -0.2505 -0.4432  0.0966
  143OSM    H9S15692   6.209   1.606   7.096  0.9140 -0.8294  0.9081
  143OSM    H9T15693   6.282   1.453   7.082  0.0251  0.1611 -0.4372
  143OSM   C10S15694   6.108   1.453   7.210 -0.0447 -0.0636 -0.3067
  143OSM   H10S15695   6.123   1.346   7.237 -1.2408 -0.1195  0.1951
  143OSM   H10T15696   6.000   1.467   7.190  0.2908  2.0050 -0.9348
  143OSM   C11S15697   6.135   1.533   7.333  0.0289  0.2359 -0.0648
  143OSM   H11S15698   6.086   1.632   7.320  2.5705  1.3313 -2.2058
  143OSM   H11T15699   6.241   1.564   7.334 -0.5446  2.3250  0.3906
  143OSM   C12S15700   6.105   1.463   7.462 -0.0289 -0.0682 -0.1717
  143OSM   H12S15701   6.165   1.370   7.449 -0.2231 -0.6447  2.4634
  143OSM   H12T15702   6.002   1.423   7.469 -1.1392  2.7994  2.1643
  143OSM   C13S15703   6.145   1.536   7.589  0.2243  0.1379  0.1916
  143OSM   H13S15704   6.069   1.617   7.597 -0.2128 -0.1042 -1.1977
  143OSM   H13T15705   6.245   1.585   7.592  0.1519  0.2211  1.7609
  143OSM   C14S15706   6.134   1.445   7.714 -0.2995  0.6406  0.2106
  143OSM   H14S15707   6.204   1.359   7.705  0.4021  1.0625  1.4199
  143OSM   H14T15708   6.039   1.390   7.728  0.6852 -0.9844  0.7772
  143OSM   C15S15709   6.149   1.514   7.844  0.2800  0.2237 -0.4678
  143OSM   H15S15710   6.074   1.595   7.856  1.1663  0.9638  0.2138
  143OSM   H15T15711   6.242   1.573   7.828  0.4588 -0.1720 -0.9305
  143OSM   C16S15712   6.150   1.423   7.966 -0.0292 -0.1445  0.0495
  143OSM   H16S15713   6.221   1.340   7.949 -0.6036 -0.3966 -1.1654
  143OSM   H16T15714   6.049   1.382   7.982  0.5084 -1.3989  0.3479
  143OSM   C17S15715   6.184   1.484   8.105  0.3590 -0.7973  0.1533
  143OSM   H17S15716   6.121   1.571   8.132  0.6955  0.1557 -1.8939
  143OSM   H17T15717   6.285   1.529   8.095 -0.5938  1.3416 -0.4746
  143OSM   C18S15718   6.201   1.385   8.224  0.0586 -0.6707  0.4295
  143OSM   H18S15719   6.231   1.452   8.308  0.9656 -1.3346  0.6553
  143OSM   H18T15720   6.280   1.309   8.206 -0.4319 -1.3931  1.2325
  143OSM   H18U15721   6.100   1.344   8.245 -0.5608  1.6021  2.3744
  143OSM    C1F15722   6.236   2.015   6.647  0.9040 -0.2467 -0.4530
  143OSM     OF15723   6.156   2.079   6.579  0.1369 -0.1823 -0.6255
  143OSM    C2F15724   6.271   2.048   6.790 -0.6771 -0.0739 -0.1406
  143OSM    H2F15725   6.380   2.026   6.795 -0.6350 -0.9730 -3.0190
  143OSM    H2G15726   6.220   1.977   6.858  0.2969  1.6578  2.5407
  143OSM    C3F15727   6.232   2.185   6.843 -0.5121 -0.1450 -0.1955
  143OSM    H3F15728   6.122   2.201   6.841 -0.4384  0.3089 -1.2021
  143OSM    H3G15729   6.285   2.254   6.774 -2.2834  0.5140 -0.9671
  143OSM    C4F15730   6.286   2.199   6.982 -0.0414  0.4508 -0.4412
  143OSM    H4F15731   6.293   2.306   7.010  1.7740  0.5353 -1.1172
  143OSM    H4G15732   6.384   2.148   6.986 -0.1584 -0.0190 -2.3733
  143OSM    C5F15733   6.185   2.123   7.078  0.2862  0.2701  0.6521
  143OSM    H5F15734   6.167   2.020   7.041  1.1964  0.2210  0.3470
  143OSM    H5G15735   6.085   2.171   7.087 -0.0823  0.1267 -1.9645
  143OSM    C6F15736   6.251   2.099   7.206  0.2601  0.0894 -0.6652
  143OSM    H6F15737   6.275   2.201   7.243 -1.9946  0.9994 -1.5179
  143OSM    H6G15738   6.345   2.040   7.197  0.5434  0.1990  1.1856
  143OSM    C7F15739   6.158   2.020   7.307 -0.0927  0.6042 -0.0516
  143OSM    H7F15740   6.100   1.936   7.263 -2.6997  3.3950 -2.3371
  143OSM    H7G15741   6.083   2.097   7.334 -1.1266  0.0406 -1.2215
  143OSM    C8F15742   6.225   1.989   7.436  0.2182 -1.3092  0.1813
  143OSM    H8F15743   6.247   2.085   7.487 -0.1689 -1.8156  1.3366
  143OSM    H8G15744   6.324   1.943   7.417  1.8093  1.5564  0.8304
  143OSM    C9F15745   6.154   1.913   7.556  0.9229 -0.5127  0.2576
  143OSM    H9F15746   6.045   1.901   7.556  1.1972 -4.8022 -1.8215
  143OSM   C10F15747   6.215   1.875   7.675 -0.2760 -0.5737 -0.2113
  143OSM   H10F15748   6.155   1.829   7.754 -1.3856  1.4106  0.1685
  143OSM   C11F15749   6.361   1.895   7.709  0.1790 -0.4640  0.1198
  143OSM   H11F15750   6.423   1.928   7.623  0.1471 -2.9034 -0.9197
  143OSM   H11G15751   6.386   1.787   7.711 -1.3651 -0.8310  0.7588
  143OSM   C12F15752   6.409   1.968   7.837 -0.7328 -0.3664  0.0990
  143OSM   H12F15753   6.322   1.968   7.908 -2.2152 -2.8183 -1.5838
  143OSM   H12G15754   6.416   2.075   7.808 -2.7812  0.2496  1.6231
  143OSM   C13F15755   6.524   1.895   7.898  1.0015 -0.4072  0.0208
  143OSM   H13F15756   6.609   1.886   7.828 -0.3663 -2.5637 -1.4852
  143OSM   H13G15757   6.493   1.797   7.941 -0.1538  0.0311  0.2402
  143OSM   C14F15758   6.574   1.971   8.025  0.1246  0.1804  1.4195
  143OSM   H14F15759   6.494   1.982   8.101 -1.3245  1.1622 -0.1820
  143OSM   H14G15760   6.573   2.077   7.992 -0.5233 -0.5058 -1.0021
  143OSM   C15F15761   6.701   1.923   8.084  0.4058 -0.2891  1.0387
  143OSM   H15F15762   6.787   1.931   8.014  2.2556 -1.4135  3.0674
  143OSM   H15G15763   6.695   1.816   8.114 -0.3312 -0.4484  0.3658
  143OSM   C16F15764   6.729   1.997   8.220 -0.5636  0.2267  0.1235
  143OSM   H16F15765   6.647   1.985   8.295 -1.4017  2.0749 -0.4353
  143OSM   H16G15766   6.735   2.107   8.205 -3.2313  0.1818 -2.0144
  143OSM   C17F15767   6.861   1.950   8.280 -0.7745  0.2795 -0.2088
  143OSM   H17F15768   6.944   1.961   8.206 -0.2443  1.3246  0.5085
  143OSM   H17G15769   6.844   1.842   8.296 -0.6316  0.3405  0.3929
  143OSM   C18F15770   6.895   2.027   8.414  0.2489  0.2064 -0.4213
  143OSM   H18F15771   6.985   1.985   8.464 -1.0073 -2.1853 -0.0174
  143OSM   H18G15772   6.805   2.031   8.479  1.3467 -0.2383  1.1920
  143OSM   H18H15773   6.921   2.132   8.390  1.7634  0.5530  2.2401
  144OSM      N15774   5.093   1.587   5.960  0.4663  0.0535  0.0393
  144OSM    C1515775   5.185   1.686   5.893  0.3331 -0.1243  0.3651
  144OSM   H15A15776   5.223   1.634   5.806 -1.1345 -1.4837  0.4967
  144OSM   H15B15777   5.268   1.705   5.959  3.0210 -0.9109 -2.5798
  144OSM   H15C15778   5.136   1.779   5.869  0.3832  0.2267  1.5671
  144OSM    C1415779   4.968   1.570   5.867 -0.0279  0.0690 -0.1435
  144OSM   H14A15780   4.920   1.665   5.846  0.1360  0.2529  0.2997
  144OSM   H14B15781   4.894   1.505   5.912 -2.6720  3.2116  0.4200
  144OSM   H14C15782   5.000   1.538   5.769  0.0748  0.5282 -0.2637
  144OSM    C1315783   5.158   1.456   5.967 -0.3880  0.3930 -0.3178
  144OSM   H13A15784   5.216   1.429   5.880  2.1398 -0.2805  1.4803
  144OSM   H13B15785   5.080   1.381   5.975  1.0838 -1.4008 -1.9210
  144OSM   H13C15786   5.224   1.438   6.051 -0.2562 -1.7754 -0.8229
  144OSM    C1215787   5.054   1.634   6.096  0.0901  1.3804  0.6345
  144OSM   H12A15788   4.998   1.726   6.086 -1.4030  0.3016 -2.0225
  144OSM   H12B15789   5.142   1.656   6.154  1.1430 -2.3018  0.7136
  144OSM    C1115790   4.970   1.545   6.190  0.5171  0.5119  0.3540
  144OSM   H11A15791   4.945   1.612   6.275  0.4234  2.2082 -0.9477
  144OSM   H11B15792   5.031   1.456   6.217 -1.6446 -0.7389  1.3923
  144OSM      P15793   4.711   1.567   6.139  0.3851 -0.0446 -0.4361
  144OSM    O1315794   4.713   1.680   6.053 -0.3031 -0.4694 -0.0863
  144OSM    O1415795   4.613   1.464   6.116 -0.4027  0.2472 -0.2441
  144OSM    O1115796   4.691   1.619   6.286 -0.0063  0.6820 -0.3185
  144OSM    O1215797   4.850   1.493   6.128 -0.2937  0.2323 -0.2999
  144OSM    C1S15798   4.692   1.518   6.392  0.0983 -0.3036 -0.1132
  144OSM    H1S15799   4.745   1.421   6.375  0.0054 -0.2462 -0.7362
  144OSM    H1T15800   4.586   1.493   6.414  0.1835  0.1412  0.8887
  144OSM     NF15801   4.795   1.486   6.618 -0.8076 -0.8632  0.3852
  144OSM    HNF15802   4.734   1.466   6.695 -0.5210  0.2913  0.9444
  144OSM    C2S15803   4.749   1.587   6.523  0.3527 -0.3050 -0.2520
  144OSM    H2S15804   4.834   1.652   6.496 -1.4200  2.4340  0.3291
  144OSM    C3S15805   4.646   1.680   6.578  0.0041  0.3532 -0.8633
  144OSM    H3S15806   4.562   1.615   6.612  1.4260 -0.9447  0.3361
  144OSM     O315807   4.588   1.776   6.489  0.6338  0.6176 -0.0142
  144OSM    HO315808   4.639   1.756   6.410 -0.5941 -0.4847 -0.5717
  144OSM    C4S15809   4.694   1.735   6.710 -0.0860 -0.7289 -0.0055
  144OSM    H4S15810   4.665   1.675   6.798  0.2758 -0.3396  0.3852
  144OSM    C5S15811   4.757   1.851   6.745 -0.5013 -0.3046 -0.3463
  144OSM    H5S15812   4.791   1.918   6.664  0.6916 -1.4609 -0.8476
  144OSM    C6S15813   4.796   1.889   6.886  0.3305  0.2708  0.7327
  144OSM    H6S15814   4.737   1.981   6.906 -2.2295 -0.6259 -1.9394
  144OSM    H6T15815   4.904   1.916   6.882  0.7325 -1.3959 -0.5163
  144OSM    C7S15816   4.766   1.786   6.998  0.1230 -0.4864 -0.9909
  144OSM    H7S15817   4.819   1.690   6.977 -1.6725 -2.3227  2.1667
  144OSM    H7T15818   4.660   1.755   7.009 -0.7717  2.4714 -0.4985
  144OSM    C8S15819   4.817   1.838   7.132 -0.6544  0.2937 -0.2919
  144OSM    H8S15820   4.772   1.933   7.169 -0.8584  0.3818 -0.7626
  144OSM    H8T15821   4.926   1.859   7.126 -0.5215  0.7553  2.4040
  144OSM    C9S15822   4.811   1.722   7.239 -0.1997  0.3194  0.2493
  144OSM    H9S15823   4.862   1.626   7.220 -1.0443  0.0352 -0.6270
  144OSM    H9T15824   4.703   1.699   7.236 -0.3811  0.2673  3.6791
  144OSM   C10S15825   4.850   1.771   7.378  0.9366  0.3494  0.3029
  144OSM   H10S15826   4.803   1.867   7.409  0.1258 -0.3873  1.4569
  144OSM   H10T15827   4.959   1.789   7.375  1.0607 -0.4902 -1.2617
  144OSM   C11S15828   4.815   1.670   7.494  0.3955 -0.4278  0.2227
  144OSM   H11S15829   4.851   1.573   7.455 -0.8785  0.1381 -2.6806
  144OSM   H11T15830   4.704   1.672   7.495  0.3695 -1.6089  0.4549
  144OSM   C12S15831   4.869   1.713   7.628 -0.3191  0.8061  0.1913
  144OSM   H12S15832   4.850   1.822   7.640 -0.9136  0.5622  1.7542
  144OSM   H12T15833   4.979   1.699   7.637 -0.6671 -1.1367  2.0835
  144OSM   C13S15834   4.810   1.634   7.754 -0.1677 -0.2197  0.0892
  144OSM   H13S15835   4.876   1.648   7.842 -0.8786  2.4856  0.2911
  144OSM   H13T15836   4.819   1.526   7.729  1.0568 -0.6655  2.1610
  144OSM   C14S15837   4.667   1.684   7.779  0.4167  0.3962 -0.3598
  144OSM   H14S15838   4.621   1.676   7.678 -0.5168 -1.5575  0.1700
  144OSM   H14T15839   4.680   1.792   7.800 -0.2044 -0.0883  3.0114
  144OSM   C15S15840   4.593   1.617   7.899  0.5051 -0.4801 -0.0992
  144OSM   H15S15841   4.624   1.511   7.887 -0.0865 -0.7309  0.5325
  144OSM   H15T15842   4.483   1.630   7.885  0.3439 -0.0802  1.3817
  144OSM   C16S15843   4.629   1.676   8.041  0.0267 -0.6049 -0.2106
  144OSM   H16S15844   4.579   1.775   8.036  1.7903  0.4615  1.5748
  144OSM   H16T15845   4.734   1.712   8.054 -0.4755  1.4562 -1.3649
  144OSM   C17S15846   4.589   1.593   8.156  0.2324 -0.3730 -1.1794
  144OSM   H17S15847   4.654   1.506   8.181  0.4792 -0.0705 -0.7633
  144OSM   H17T15848   4.485   1.555   8.140 -0.5438  0.7706  0.7064
  144OSM   C18S15849   4.576   1.671   8.295  0.4520 -0.5167 -0.1563
  144OSM   H18S15850   4.505   1.616   8.361  2.2557 -0.5270  1.8993
  144OSM   H18T15851   4.544   1.775   8.275  1.0464 -0.1870  0.5752
  144OSM   H18U15852   4.679   1.669   8.338  0.9965  0.9083 -1.3071
  144OSM    C1F15853   4.909   1.421   6.593  0.1890  0.6178 -0.6081
  144OSM     OF15854   4.974   1.450   6.497 -0.2919  0.2260 -0.8493
  144OSM    C2F15855   4.955   1.313   6.696 -0.4225 -0.5403  0.4927
  144OSM    H2F15856   4.975   1.219   6.639 -1.6557  0.7511 -2.2890
  144OSM    H2G15857   4.865   1.296   6.759 -0.4868  0.3670  0.6553
  144OSM    C3F15858   5.075   1.360   6.782 -0.1822  0.1016 -0.7085
  144OSM    H3F15859   5.169   1.363   6.724  0.0777  1.4668 -0.2626
  144OSM    H3G15860   5.096   1.276   6.852  1.4315 -0.8113 -2.2177
  144OSM    C4F15861   5.044   1.479   6.868  0.8357 -0.3427 -0.5145
  144OSM    H4F15862   4.939   1.468   6.902  0.7779  0.0990 -0.5481
  144OSM    H4G15863   5.024   1.567   6.804 -3.7237  1.1679  2.5474
  144OSM    C5F15864   5.153   1.523   6.969 -0.2946 -0.0909 -0.0098
  144OSM    H5F15865   5.141   1.632   6.984  0.1523  0.1814 -1.4700
  144OSM    H5G15866   5.253   1.500   6.927  0.0207  1.0294  0.0984
  144OSM    C6F15867   5.136   1.443   7.096 -0.2770  0.5101  0.0345
  144OSM    H6F15868   5.126   1.340   7.055 -0.6788  0.3617  0.5089
  144OSM    H6G15869   5.034   1.466   7.132 -0.2527  2.4836 -0.9524
  144OSM    C7F15870   5.248   1.471   7.196 -0.1920  0.0337  0.2778
  144OSM    H7F15871   5.235   1.571   7.242  3.5763  1.6678 -1.7790
  144OSM    H7G15872   5.346   1.476   7.144 -0.4065 -2.1251 -0.4445
  144OSM    C8F15873   5.281   1.363   7.302  0.4312  0.1897 -0.0141
  144OSM    H8F15874   5.382   1.379   7.345 -0.0916  0.4679  1.1470
  144OSM    H8G15875   5.295   1.264   7.254 -2.1452 -0.1156 -0.2819
  144OSM    C9F15876   5.166   1.358   7.409 -0.4505  0.5142  0.0941
  144OSM    H9F15877   5.072   1.305   7.387 -0.4149  0.0855  0.9338
  144OSM   C10F15878   5.176   1.381   7.543  0.3022  0.2107 -0.0697
  144OSM   H10F15879   5.084   1.382   7.603  1.1540 -1.3425  1.3484
  144OSM   C11F15880   5.302   1.426   7.611  0.3059 -0.2117  0.4548
  144OSM   H11F15881   5.381   1.459   7.540 -0.9163 -0.6535 -1.1855
  144OSM   H11G15882   5.338   1.340   7.671  0.5346 -1.7571 -1.7515
  144OSM   C12F15883   5.274   1.550   7.701  0.0004  0.2844 -0.5829
  144OSM   H12F15884   5.208   1.624   7.650  1.9647  1.2900 -1.7993
  144OSM   H12G15885   5.364   1.609   7.726  0.3371 -0.6639  0.4970
  144OSM   C13F15886   5.195   1.522   7.834  0.1164  0.1432  0.3346
  144OSM   H13F15887   5.100   1.477   7.799 -0.2403  1.7760 -0.8779
  144OSM   H13G15888   5.171   1.621   7.878 -0.2888  0.5309 -0.7312
  144OSM   C14F15889   5.272   1.432   7.938  0.8880 -0.3070  0.5915
  144OSM   H14F15890   5.377   1.468   7.943  0.6294  0.8468 -1.3398
  144OSM   H14G15891   5.271   1.324   7.912 -0.4517 -0.6077  1.7778
  144OSM   C15F15892   5.205   1.450   8.079  0.4216  0.3826 -0.0298
  144OSM   H15F15893   5.221   1.558   8.100  0.0974  0.6086 -0.9321
  144OSM   H15G15894   5.255   1.381   8.151  0.9981  0.3297 -0.4759
  144OSM   C16F15895   5.061   1.403   8.082  0.0718  0.0331 -0.0427
  144OSM   H16F15896   5.060   1.296   8.051  0.6575 -0.1214  0.4412
  144OSM   H16G15897   5.007   1.463   8.006  1.2041 -2.3220 -2.9243
  144OSM   C17F15898   4.979   1.425   8.219 -0.2257 -0.0716  0.1578
  144OSM   H17F15899   4.871   1.402   8.203 -0.6818  1.6347  0.6395
  144OSM   H17G15900   4.974   1.531   8.251 -1.8993 -0.4560  1.3471
  144OSM   C18F15901   5.036   1.346   8.339  0.5609  0.1354 -1.3096
  144OSM   H18F15902   5.141   1.367   8.368  0.5068 -0.5247 -0.6011
  144OSM   H18G15903   5.023   1.236   8.326  1.2075 -0.1064 -0.1064
  144OSM   H18H15904   4.984   1.385   8.429  1.5033  1.4871 -1.3171
  145SAPE     N15905   1.182   3.481  10.607 -0.2614 -0.4869 -0.2305
  145SAPE   HN115906   1.285   3.482  10.620 -0.3781 -0.7340  0.7726
  145SAPE   HN215907   1.132   3.554  10.662 -0.1621 -0.9174  0.4437
  145SAPE   HN315908   1.152   3.392  10.651 -1.3009  0.4476  1.0270
  145SAPE   C1215909   1.147   3.469  10.462 -0.8483  0.1936 -0.2560
  145SAPE  H12A15910   1.222   3.519  10.397 -0.5446  0.2658  0.1475
  145SAPE  H12B15911   1.047   3.514  10.448 -1.8321 -1.2352  1.6869
  145SAPE   C1115912   1.140   3.316  10.429 -0.4259  0.0495  0.0838
  145SAPE  H11A15913   1.234   3.269  10.465  0.0180  2.7017  2.7431
  145SAPE  H11B15914   1.146   3.312  10.318 -0.4464 -0.0154  0.0848
  145SAPE     P15915   1.019   3.164  10.606 -0.2736 -0.4577  0.0585
  145SAPE   O1315916   1.047   3.020  10.580 -0.0987 -0.5355  0.3438
  145SAPE   O1415917   1.094   3.233  10.717  0.1164  0.2653  0.7639
  145SAPE   O1215918   1.013   3.254  10.468 -0.2894  1.0553 -0.0361
  145SAPE   O1115919   0.866   3.179  10.644 -0.0730  0.0324  0.5979
  145SAPE    C115920   0.762   3.093  10.594  0.6761  0.1501  0.2702
  145SAPE    HA15921   0.785   3.022  10.512  1.9129  0.3721  0.4026
  145SAPE    HB15922   0.718   3.027  10.672 -0.4894 -0.0845 -0.5633
  145SAPE    C215923   0.644   3.180  10.536 -0.1721  0.5264 -0.6037
  145SAPE    HS15924   0.586   3.114  10.467 -0.1354  0.6146 -0.7189
  145SAPE   O2115925   0.692   3.300  10.474 -0.1722 -0.5685 -0.4022
  145SAPE   C2115926   0.724   3.280  10.342 -0.3704 -0.7333 -0.0923
  145SAPE   O2215927   0.703   3.177  10.286  0.0458  0.4237 -0.5089
  145SAPE   C2215928   0.798   3.397  10.287  0.1462  0.3147 -0.2974
  145SAPE   H2R15929   0.718   3.467  10.256  0.2783  0.5949 -0.0184
  145SAPE   H2S15930   0.847   3.448  10.373 -2.6722  1.7504  0.5650
  145SAPE    C315931   0.545   3.221  10.651  0.0072  0.0962 -0.2569
  145SAPE    HX15932   0.607   3.275  10.725 -1.6448  1.3418  0.3029
  145SAPE    HY15933   0.501   3.136  10.707 -0.8829  1.3272  0.9851
  145SAPE   O3115934   0.447   3.316  10.603  0.3792  0.0713 -0.4335
  145SAPE   C3115935   0.364   3.261  10.515  0.0784 -0.6015  0.4272
  145SAPE   O3215936   0.338   3.143  10.498  0.1279  0.2333  0.3015
  145SAPE   C3215937   0.311   3.371  10.422  0.0887 -0.1952 -0.0057
  145SAPE   H2X15938   0.346   3.474  10.448  0.9620 -0.7461  1.0911
  145SAPE   H2Y15939   0.201   3.369  10.437  0.0558 -1.2733 -0.3513
  145SAPE   C2315940   0.894   3.356  10.168  0.1767  0.1998 -0.2598
  145SAPE   H3R15941   0.823   3.313  10.094 -0.5683 -0.5649  0.8779
  145SAPE   H3S15942   0.950   3.267  10.205 -2.6617 -0.6195  2.4385
  145SAPE   C2415943   0.984   3.465  10.105  0.2354 -0.3842  0.2431
  145SAPE   H4R15944   1.036   3.436  10.011 -0.1622  0.8261 -0.3794
  145SAPE   H4S15945   1.067   3.497  10.172 -0.0226  0.3197  0.2396
  145SAPE   C2515946   0.894   3.589  10.079  0.2032  0.2045 -0.2263
  145SAPE   H5R15947   0.894   3.656  10.166  0.4856 -0.9406  0.6785
  145SAPE   C2615948   0.825   3.615   9.967  0.2128 -0.8791  0.5983
  145SAPE   H6R15949   0.765   3.706   9.949  2.1980 -0.1766 -4.2332
  145SAPE   C2715950   0.819   3.530   9.840  0.0006 -0.1284  0.2219
  145SAPE   H7R15951   0.740   3.565   9.769  0.9944  1.6870 -0.0485
  145SAPE   H7S15952   0.790   3.428   9.873  1.2280 -1.0032 -1.2496
  145SAPE   C2815953   0.946   3.499   9.767 -0.2194  0.3023  0.6640
  145SAPE   H8R15954   1.036   3.517   9.828  0.8851 -0.2128 -0.7520
  145SAPE   C2915955   0.967   3.486   9.638  0.0055 -0.1242  0.1478
  145SAPE   H9R15956   1.073   3.485   9.608  0.3303 -1.8200  1.1673
  145SAPE  C21015957   0.863   3.478   9.531 -0.2444 -0.1841  0.0313
  145SAPE  H10R15958   0.756   3.486   9.561 -0.5244 -1.8906 -0.4004
  145SAPE  H10S15959   0.885   3.390   9.467  1.1009  0.3803 -0.3135
  145SAPE  C21115960   0.878   3.596   9.450 -0.6094 -0.6688 -0.0415
  145SAPE  H11R15961   0.886   3.689   9.507  0.3215 -0.5583 -0.3493
  145SAPE  C21215962   0.894   3.598   9.318 -0.4599 -0.3652 -0.0857
  145SAPE  H12R15963   0.898   3.698   9.272 -2.6673 -0.7301 -1.1864
  145SAPE  C21315964   0.888   3.485   9.219 -0.7836  0.2000 -0.1325
  145SAPE  H13R15965   0.912   3.389   9.269  1.4129  0.8097  0.1245
  145SAPE  H13S15966   0.968   3.502   9.143  1.3664  1.3322  2.2046
  145SAPE  C21415967   0.750   3.474   9.156  0.2314 -0.6465  0.0456
  145SAPE  H14R15968   0.669   3.470   9.230  0.2903 -0.7053  0.1074
  145SAPE  C21515969   0.724   3.483   9.020 -0.0102  0.6780  0.1235
  145SAPE  H15R15970   0.619   3.493   8.987  0.4903  2.5811 -1.0984
  145SAPE  C21615971   0.821   3.512   8.910 -0.1732 -0.5739 -0.3619
  145SAPE  H16R15972   0.804   3.430   8.837 -3.2152  0.4554 -0.9620
  145SAPE  H16S15973   0.928   3.529   8.935 -0.5968  2.5118 -0.1858
  145SAPE  C21715974   0.783   3.639   8.836  0.4617 -0.3354  0.4109
  145SAPE  H17R15975   0.680   3.638   8.794  0.9093  1.0017 -0.8275
  145SAPE  H17S15976   0.850   3.650   8.748 -3.2890  2.4483 -2.4174
  145SAPE  C21815977   0.819   3.775   8.899 -0.2174  0.4577 -0.2511
  145SAPE  H18R15978   0.907   3.763   8.967 -0.2867  2.6481  0.3036
  145SAPE  H18S15979   0.742   3.793   8.977 -1.8395 -1.0390 -1.4556
  145SAPE  C21915980   0.823   3.904   8.810 -0.2406 -0.4913 -0.7606
  145SAPE  H19R15981   0.899   3.876   8.734  0.7095  0.3922 -0.1676
  145SAPE  H19S15982   0.861   3.992   8.867 -0.1155  0.2503 -1.9662
  145SAPE  C22015983   0.707   3.948   8.725 -0.9438  0.3077 -0.2267
  145SAPE  H20R15984   0.617   3.984   8.778  0.8565  2.3990  1.6631
  145SAPE  H20S15985   0.669   3.866   8.661 -2.5232  0.8692 -0.0555
  145SAPE  H20T15986   0.754   4.027   8.661  4.6691 -1.5982  0.9394
  145SAPE   C3315987   0.341   3.356  10.267  0.1615 -0.1791  0.0482
  145SAPE   H3X15988   0.284   3.273  10.220  1.7013 -0.5534 -1.2138
  145SAPE   H3Y15989   0.444   3.314  10.271  0.3939  0.4548  2.2130
  145SAPE   C3415990   0.341   3.482  10.183  0.1102 -0.5929  0.0533
  145SAPE   H4X15991   0.431   3.537  10.218 -1.1287  1.3527  0.3384
  145SAPE   H4Y15992   0.250   3.538  10.215 -0.7353 -2.2808  0.7643
  145SAPE   C3515993   0.347   3.468  10.035  0.2551 -0.3167  0.7908
  145SAPE   H5X15994   0.314   3.563   9.988  0.2742 -0.3157  0.7794
  145SAPE   H5Y15995   0.260   3.402  10.014 -0.4694  0.6353  0.6964
  145SAPE   C3615996   0.478   3.399   9.977 -0.4482 -0.7025 -1.0146
  145SAPE   H6X15997   0.521   3.330  10.053  1.7380  1.2891 -0.2775
  145SAPE   H6Y15998   0.548   3.486   9.973 -0.4778 -0.6762 -0.9578
  145SAPE   C3715999   0.434   3.331   9.843 -0.2152  0.3496  0.1992
  145SAPE   H7X16000   0.359   3.389   9.784  1.5508  0.6851 -1.8265
  145SAPE   H7Y16001   0.385   3.233   9.862  1.1534 -0.6456 -1.1788
  145SAPE   C3816002   0.558   3.317   9.757  0.5660 -0.5126  0.7727
  145SAPE   H8X16003   0.637   3.260   9.810  0.2918 -0.5517  1.1456
  145SAPE   H8Y16004   0.599   3.418   9.735  3.0319 -1.2839  1.5012
  145SAPE   C3916005   0.545   3.240   9.627  0.5729 -0.5828 -0.0099
  145SAPE   H9X16006   0.499   3.140   9.641  0.0273 -0.5609 -1.5303
  145SAPE   H9Y16007   0.652   3.226   9.599  0.9805 -0.9412  1.5848
  145SAPE  C31016008   0.468   3.307   9.516  0.0904 -0.6028  0.5821
  145SAPE  H10X16009   0.516   3.405   9.499  1.4428 -1.0180  1.7533
  145SAPE  H10Y16010   0.360   3.318   9.538 -0.5468  0.4513 -2.5700
  145SAPE  C31116011   0.506   3.235   9.385 -0.1321  0.2870 -0.2046
  145SAPE  H11X16012   0.476   3.128   9.396 -1.7736  0.6863 -0.4429
  145SAPE  H11Y16013   0.617   3.237   9.379  0.0835 -0.8459  2.1706
  145SAPE  C31216014   0.435   3.307   9.268 -0.1240  0.0441 -0.6690
  145SAPE  H12X16015   0.509   3.324   9.187  0.7636 -3.6873 -0.8185
  145SAPE  H12Y16016   0.398   3.405   9.306 -2.8699 -1.9944  2.5956
  145SAPE  C31316017   0.308   3.233   9.220  0.6935 -0.1553 -0.6375
  145SAPE  H13X16018   0.248   3.222   9.313  0.1741  0.5540 -0.8778
  145SAPE  H13Y16019   0.344   3.137   9.178  3.1399 -0.3812  1.7581
  145SAPE  C31416020   0.230   3.306   9.113 -0.5576 -0.3601  0.5428
  145SAPE  H14X16021   0.177   3.402   9.134 -1.9648 -0.6215 -1.4695
  145SAPE  H14Y16022   0.156   3.231   9.078  0.4070 -2.1331  2.1178
  145SAPE  C31516023   0.326   3.345   9.000  0.5736  0.3175 -0.2073
  145SAPE  H15X16024   0.391   3.257   8.980 -0.0886  0.0475 -1.2661
  145SAPE  H15Y16025   0.392   3.432   9.021  0.1828  1.4690 -3.1780
  145SAPE  C31616026   0.251   3.383   8.877 -0.9594 -0.6273  0.3620
  145SAPE  H16X16027   0.191   3.473   8.902  1.3092  0.9009  0.6322
  145SAPE  H16Y16028   0.179   3.302   8.851 -3.6233  1.7878 -0.2337
  145SAPE  C31716029   0.350   3.409   8.761 -0.0629 -0.8403 -0.5535
  145SAPE  H17X16030   0.441   3.457   8.803  0.6857 -1.7808 -1.0399
  145SAPE  H17Y16031   0.303   3.484   8.694  2.3801 -1.5913 -3.3334
  145SAPE  C31816032   0.411   3.296   8.690  0.1142  0.4910 -0.0922
  145SAPE  H18X16033   0.349   3.204   8.693 -1.6320  1.5922 -1.1303
  145SAPE  H18Y16034   0.516   3.273   8.719  0.4851 -0.5978 -2.0532
  145SAPE  H18Z16035   0.416   3.319   8.581  0.4167 -1.5116 -0.5552
  146SAPE     N16036   0.457   5.580  10.862  0.1708  0.4412 -0.8432
  146SAPE   HN116037   0.510   5.648  10.804 -0.6611  1.8879  0.0527
  146SAPE   HN216038   0.409   5.511  10.800 -0.7905 -0.4912  0.8704
  146SAPE   HN316039   0.386   5.641  10.905  0.5411 -0.6662  1.4952
  146SAPE   C1216040   0.544   5.522  10.963  0.9621  0.6906  0.2127
  146SAPE  H12A16041   0.486   5.473  11.044  3.4511 -0.5659  1.3429
  146SAPE  H12B16042   0.603   5.606  11.006  1.4911  0.5509 -0.2361
  146SAPE   C1116043   0.652   5.433  10.900  0.5619 -1.2702 -0.3767
  146SAPE  H11A16044   0.606   5.356  10.834  1.1761 -1.5956 -0.4253
  146SAPE  H11B16045   0.708   5.383  10.982 -2.2159 -1.3579  1.6293
  146SAPE     P16046   0.881   5.469  10.766  0.6722  0.4266  0.1036
  146SAPE   O1316047   0.975   5.578  10.758  0.1672  0.3809 -0.6894
  146SAPE   O1416048   0.916   5.363  10.862 -0.0590  0.0275 -0.5506
  146SAPE   O1216049   0.735   5.517  10.823 -0.4964 -0.0086 -0.1760
  146SAPE   O1116050   0.859   5.395  10.624 -0.6778 -0.2479 -0.3582
  146SAPE    C116051   0.732   5.383  10.563  0.2245  0.3352  0.6983
  146SAPE    HA16052   0.715   5.276  10.540 -0.4196  0.8682 -1.5208
  146SAPE    HB16053   0.652   5.434  10.621  0.5899  0.6989  0.8854
  146SAPE    C216054   0.730   5.452  10.418  0.1139  0.2495  0.2039
  146SAPE    HS16055   0.628   5.440  10.376  0.0053 -1.0109  0.7949
  146SAPE   O2116056   0.829   5.393  10.327  0.1332  0.2166  0.0205
  146SAPE   C2116057   0.806   5.264  10.295 -0.2154  1.1596 -0.9934
  146SAPE   O2216058   0.702   5.201  10.325 -0.2093 -0.2979  0.2289
  146SAPE   C2216059   0.916   5.214  10.201  0.0486 -0.3674 -0.0040
  146SAPE   H2R16060   1.009   5.215  10.263 -0.9016 -1.1111  1.4968
  146SAPE   H2S16061   0.896   5.108  10.173 -3.3160  0.4727 -1.1860
  146SAPE    C316062   0.770   5.597  10.441  0.4751  0.2527 -0.0285
  146SAPE    HX16063   0.881   5.603  10.430  0.3975  2.0089 -0.1935
  146SAPE    HY16064   0.746   5.638  10.541  0.7709 -2.1551  1.0962
  146SAPE   O3116065   0.722   5.683  10.332 -0.1369 -0.6513 -0.4582
  146SAPE   C3116066   0.595   5.730  10.338  0.3907 -0.6418 -0.1172
  146SAPE   O3216067   0.518   5.713  10.430  0.1555 -0.6639 -0.7437
  146SAPE   C3216068   0.569   5.825  10.220  0.2137  0.2204 -0.2681
  146SAPE   H2X16069   0.637   5.910  10.241  1.4068 -0.7035 -0.2395
  146SAPE   H2Y16070   0.459   5.840  10.223 -0.0697 -1.4937  3.0673
  146SAPE   C2316071   0.912   5.280  10.066  0.6483  0.4185  0.1022
  146SAPE   H3R16072   0.893   5.389  10.079 -2.0498  0.3066 -1.8911
  146SAPE   H3S16073   0.820   5.245  10.015  0.1216  0.7051  0.8360
  146SAPE   C2416074   1.036   5.239   9.978 -0.0320 -0.3404 -0.5688
  146SAPE   H4R16075   1.126   5.287  10.022 -0.7557  0.6977 -0.1928
  146SAPE   H4S16076   1.021   5.292   9.882 -0.0891 -0.5819 -0.6935
  146SAPE   C2516077   1.067   5.096   9.941  0.0064 -0.6623  0.3600
  146SAPE   H5R16078   0.978   5.032   9.951 -1.5808  1.5111  0.9492
  146SAPE   C2616079   1.189   5.049   9.902  0.6420  0.6873 -0.2607
  146SAPE   H6R16080   1.189   4.939   9.898 -1.7196  0.6255 -0.3036
  146SAPE   C2716081   1.320   5.126   9.883 -0.2946  0.4424 -0.0695
  146SAPE   H7R16082   1.386   5.128   9.973  1.4560 -2.6299 -1.1403
  146SAPE   H7S16083   1.294   5.229   9.849  0.9517  0.7726 -0.0621
  146SAPE   C2816084   1.378   5.048   9.770 -0.1272 -0.5393 -0.0893
  146SAPE   H8R16085   1.465   4.991   9.805 -1.0769 -0.6854  2.2377
  146SAPE   C2916086   1.368   5.069   9.637  0.3204 -0.5701 -0.3295
  146SAPE   H9R16087   1.420   5.009   9.560  0.8819  2.2599 -2.3246
  146SAPE  C21016088   1.274   5.172   9.569 -0.5904 -0.1585  0.1025
  146SAPE  H10R16089   1.317   5.275   9.566  2.0594 -1.1668  0.3931
  146SAPE  H10S16090   1.177   5.185   9.621 -0.7201  1.7120 -0.5269
  146SAPE  C21116091   1.253   5.130   9.422 -0.2377  0.1096 -0.4302
  146SAPE  H11R16092   1.200   5.035   9.410 -0.1167  0.1238 -1.1735
  146SAPE  C21216093   1.281   5.197   9.307  0.3515 -0.4242 -0.1914
  146SAPE  H12R16094   1.262   5.147   9.211  1.4750  0.6810 -1.0070
  146SAPE  C21316095   1.332   5.332   9.286  0.2138  0.0560  0.4044
  146SAPE  H13R16096   1.376   5.378   9.377 -0.3997  1.6494 -0.0670
  146SAPE  H13S16097   1.246   5.391   9.247  1.3415 -0.2679 -2.8740
  146SAPE  C21416098   1.447   5.338   9.191 -0.5898  0.3803 -0.3412
  146SAPE  H14R16099   1.523   5.267   9.227 -1.2068 -0.0643  0.0902
  146SAPE  C21516100   1.462   5.408   9.084  0.1881 -0.0558  0.4491
  146SAPE  H15R16101   1.550   5.405   9.018 -1.2273 -1.1743 -1.4965
  146SAPE  C21616102   1.362   5.501   9.014 -0.0823 -0.3477 -0.2129
  146SAPE  H16R16103   1.396   5.606   9.014  1.1102 -0.7235  0.2223
  146SAPE  H16S16104   1.259   5.505   9.056 -0.3108 -3.8623 -0.1451
  146SAPE  C21716105   1.342   5.447   8.873 -0.1266  0.3632  0.1112
  146SAPE  H17R16106   1.273   5.362   8.887 -1.0577  1.1837  0.6140
  146SAPE  H17S16107   1.433   5.411   8.820  0.6309  1.8298  0.3360
  146SAPE  C21816108   1.287   5.544   8.765  0.4203 -0.4762  0.8792
  146SAPE  H18R16109   1.226   5.624   8.811  1.8525  0.1447  1.7595
  146SAPE  H18S16110   1.220   5.481   8.702  1.6743 -1.2437  0.2665
  146SAPE  C21916111   1.393   5.602   8.667 -0.1916  0.4970  1.1289
  146SAPE  H19R16112   1.473   5.527   8.648  2.0506  3.1595 -0.6345
  146SAPE  H19S16113   1.453   5.688   8.703  1.1750  0.3724 -0.7484
  146SAPE  C22016114   1.323   5.625   8.519  0.0216 -0.0873  0.2109
  146SAPE  H20R16115   1.400   5.638   8.440 -1.2217  0.2946 -0.9844
  146SAPE  H20S16116   1.265   5.718   8.538  3.8329  2.0461  2.7426
  146SAPE  H20T16117   1.254   5.547   8.480 -0.1275  0.3539 -0.4347
  146SAPE   C3316118   0.620   5.756  10.089  0.4540 -0.6824 -0.3021
  146SAPE   H3X16119   0.573   5.656  10.090 -0.8394 -0.0965  0.8614
  146SAPE   H3Y16120   0.728   5.732  10.093  0.1545 -2.0977 -0.0988
  146SAPE   C3416121   0.605   5.840   9.958  0.0595  0.1656 -0.3748
  146SAPE   H4X16122   0.684   5.918   9.962 -0.3918  0.5670  1.2478
  146SAPE   H4Y16123   0.507   5.892   9.964 -0.3469 -0.7255  0.8801
  146SAPE   C3516124   0.609   5.756   9.829  0.2371 -0.0159 -0.1838
  146SAPE   H5X16125   0.545   5.666   9.832  0.4714 -0.1770  1.6858
  146SAPE   H5Y16126   0.713   5.716   9.825  0.6559  1.1115 -1.1604
  146SAPE   C3616127   0.586   5.844   9.713 -0.2095 -0.0052  0.0545
  146SAPE   H6X16128   0.655   5.926   9.686 -0.2076 -0.8338 -2.7986
  146SAPE   H6Y16129   0.487   5.891   9.734 -0.6324 -0.5207 -0.7171
  146SAPE   C3716130   0.585   5.771   9.576 -0.0617 -0.1023  0.9052
  146SAPE   H7X16131   0.507   5.692   9.579  0.3092 -0.4739  0.9509
  146SAPE   H7Y16132   0.681   5.719   9.555 -1.0635 -1.3138 -0.9981
  146SAPE   C3816133   0.553   5.860   9.459 -0.1136  0.1426 -0.2261
  146SAPE   H8X16134   0.493   5.940   9.507  2.5696  2.4976 -0.5070
  146SAPE   H8Y16135   0.510   5.809   9.370 -1.5496  0.3980  0.2998
  146SAPE   C3916136   0.680   5.921   9.407 -0.7637 -0.4750 -0.2724
  146SAPE   H9X16137   0.746   5.837   9.375  0.3451  0.8675 -1.6293
  146SAPE   H9Y16138   0.728   5.973   9.493 -1.1710  0.6445 -0.7029
  146SAPE  C31016139   0.661   6.024   9.291  0.4178 -0.2663 -0.1349
  146SAPE  H10X16140   0.738   6.099   9.316  0.9408 -0.4129 -1.2488
  146SAPE  H10Y16141   0.564   6.078   9.303 -0.1341 -0.8296 -1.7847
  146SAPE  C31116142   0.667   5.971   9.145 -0.1356  0.0082 -0.3162
  146SAPE  H11X16143   0.736   5.884   9.143 -0.8779 -0.6782  1.6663
  146SAPE  H11Y16144   0.715   6.049   9.082 -0.5506 -1.1630 -2.1649
  146SAPE  C31216145   0.531   5.924   9.085  0.5434  0.2406  0.1695
  146SAPE  H12X16146   0.460   5.996   9.132 -0.7013 -2.1615  2.2087
  146SAPE  H12Y16147   0.500   5.824   9.122 -0.3183  0.5411  0.2814
  146SAPE  C31316148   0.528   5.944   8.930  0.3943 -0.0288  0.1860
  146SAPE  H13X16149   0.586   5.864   8.878 -0.1605 -0.4807  0.2598
  146SAPE  H13Y16150   0.562   6.049   8.914 -0.5599  0.3168  0.3741
  146SAPE  C31416151   0.384   5.919   8.882  0.2546  0.0942  0.2277
  146SAPE  H14X16152   0.319   5.997   8.928  0.0383  0.2346 -0.3121
  146SAPE  H14Y16153   0.339   5.830   8.931  0.2817 -0.0211  0.0429
  146SAPE  C31516154   0.376   5.908   8.732  0.4264 -0.1641  0.1720
  146SAPE  H15X16155   0.380   5.802   8.699  1.9603  0.6654 -2.6837
  146SAPE  H15Y16156   0.465   5.954   8.684  1.6965 -0.3862  2.1838
  146SAPE  C31616157   0.240   5.960   8.676 -0.2156  0.0709 -0.3969
  146SAPE  H16X16158   0.232   6.068   8.700  0.3135  0.2573 -1.0021
  146SAPE  H16Y16159   0.175   5.893   8.735  1.3317 -1.5856 -0.4558
  146SAPE  C31716160   0.233   5.948   8.521  0.1512  0.1685  0.1081
  146SAPE  H17X16161   0.237   5.840   8.498 -0.8614 -0.0087  0.6842
  146SAPE  H17Y16162   0.310   6.013   8.474  1.4552  0.5055  2.5808
  146SAPE  C31816163   0.101   6.002   8.469  0.7123  0.3176  0.0594
  146SAPE  H18X16164   0.024   5.981   8.547  0.8007 -0.0995  0.0347
  146SAPE  H18Y16165   0.075   5.943   8.379  1.8041  0.1232 -0.1343
  146SAPE  H18Z16166   0.120   6.108   8.441  0.5751 -0.0155 -1.3737
  147SAPE     N16167   2.748   1.670  11.254 -0.0037 -0.3727 -0.1293
  147SAPE   HN116168   2.767   1.596  11.324 -2.3998 -0.7801  0.1602
  147SAPE   HN216169   2.738   1.752  11.317 -1.4436 -0.7936  0.2108
  147SAPE   HN316170   2.652   1.652  11.219 -0.5844  1.4243  0.4142
  147SAPE   C1216171   2.841   1.701  11.133  0.2226  0.1349  0.7876
  147SAPE  H12A16172   2.837   1.604  11.079 -0.0064  1.1078 -1.0340
  147SAPE  H12B16173   2.948   1.705  11.164  1.1015 -1.5392 -1.6746
  147SAPE   C1116174   2.788   1.822  11.051 -0.8637 -0.3639 -0.2501
  147SAPE  H11A16175   2.855   1.843  10.965 -1.8012 -2.0326 -1.4343
  147SAPE  H11B16176   2.777   1.916  11.110 -1.1103 -1.0039  0.7494
  147SAPE     P16177   2.525   1.822  11.060 -0.1089 -0.2091  0.7894
  147SAPE   O1316178   2.491   1.706  11.146 -0.0220  0.5234  0.4032
  147SAPE   O1416179   2.532   1.961  11.114 -0.3174  0.4812  0.2576
  147SAPE   O1216180   2.663   1.784  10.992 -0.1282 -0.5966  0.6571
  147SAPE   O1116181   2.437   1.813  10.927  0.1123 -0.6531  0.2111
  147SAPE    C116182   2.410   1.707  10.845 -0.3958  0.0130 -0.9299
  147SAPE    HA16183   2.444   1.610  10.889 -3.3753 -1.9582 -2.6049
  147SAPE    HB16184   2.300   1.691  10.842 -0.0082 -3.6603 -0.7915
  147SAPE    C216185   2.471   1.714  10.710 -0.2270 -0.0374  0.3495
  147SAPE    HS16186   2.442   1.628  10.646 -0.4908  0.8191 -0.6947
  147SAPE   O2116187   2.616   1.718  10.718  0.0318  0.0923  0.5386
  147SAPE   C2116188   2.681   1.604  10.747 -0.3283  0.8005 -0.2313
  147SAPE   O2216189   2.629   1.495  10.763  0.2905  0.2925  0.4169
  147SAPE   C2216190   2.835   1.631  10.744  0.5475  0.7154 -0.1972
  147SAPE   H2R16191   2.846   1.737  10.775 -0.5436  0.1227  2.5761
  147SAPE   H2S16192   2.890   1.573  10.821 -0.5523  1.7159  1.4135
  147SAPE    C316193   2.425   1.841  10.626 -0.0097  0.0796  0.0109
  147SAPE    HX16194   2.491   1.924  10.658  0.0815  1.4083 -3.2239
  147SAPE    HY16195   2.320   1.862  10.656  0.2791 -1.6629  2.6157
  147SAPE   O3116196   2.445   1.822  10.482 -0.0131 -0.9409  0.6616
  147SAPE   C3116197   2.515   1.907  10.408  0.2174 -0.7907 -0.2534
  147SAPE   O3216198   2.559   2.015  10.445 -0.3079 -0.2101 -0.4282
  147SAPE   C3216199   2.526   1.834  10.275 -0.2651 -0.1538  1.3662
  147SAPE   H2X16200   2.426   1.850  10.229 -0.8983 -1.9461  2.0208
  147SAPE   H2Y16201   2.531   1.724  10.295 -0.4406 -0.0721  1.8774
  147SAPE   C2316202   2.890   1.591  10.605  0.5597  0.3788  0.2698
  147SAPE   H3R16203   2.882   1.481  10.588  1.4992  0.1877  0.9475
  147SAPE   H3S16204   2.999   1.606  10.617  0.2550  1.1911  2.5870
  147SAPE   C2416205   2.830   1.668  10.485  0.3418 -0.3529 -0.4720
  147SAPE   H4R16206   2.864   1.774  10.491  0.7853 -0.5712  2.4371
  147SAPE   H4S16207   2.719   1.671  10.496  0.5582  0.9008  2.7407
  147SAPE   C2516208   2.875   1.602  10.363  0.0429 -0.1356 -0.2029
  147SAPE   H5R16209   2.831   1.503  10.344  0.5481 -0.4829  0.3949
  147SAPE   C2616210   2.967   1.653  10.283  0.3955 -0.4150 -0.1475
  147SAPE   H6R16211   2.982   1.592  10.193 -1.1129  0.5543 -1.1029
  147SAPE   C2716212   3.041   1.785  10.287 -0.4559 -0.1600  0.3188
  147SAPE   H7R16213   3.051   1.826  10.390 -3.5858 -1.3986  1.2675
  147SAPE   H7S16214   2.993   1.869  10.233  1.3413 -0.1335 -1.3211
  147SAPE   C2816215   3.180   1.769  10.240  0.3759  0.8203  0.3674
  147SAPE   H8R16216   3.251   1.731  10.316 -0.8761  0.7460  1.5494
  147SAPE   C2916217   3.223   1.802  10.115 -0.0064  0.3104  0.0567
  147SAPE   H9R16218   3.330   1.779  10.107  0.1469  1.0931 -0.1613
  147SAPE  C21016219   3.147   1.848   9.989 -0.4194  0.4648 -0.2246
  147SAPE  H10R16220   3.182   1.948   9.955 -1.1517  0.1481 -2.0015
  147SAPE  H10S16221   3.047   1.868  10.034  0.6056 -0.2488  2.5996
  147SAPE  C21116222   3.126   1.757   9.879  0.1991  0.2262  0.3167
  147SAPE  H11R16223   3.114   1.653   9.911  0.4226  0.5751  1.5882
  147SAPE  C21216224   3.132   1.783   9.743 -1.0186 -0.1759  0.0599
  147SAPE  H12R16225   3.109   1.704   9.670 -1.2435  0.3184 -0.4004
  147SAPE  C21316226   3.149   1.914   9.674 -0.0343 -0.5007 -0.1134
  147SAPE  H13R16227   3.154   1.987   9.757 -2.1662 -1.6784  1.1404
  147SAPE  H13S16228   3.061   1.935   9.610 -1.7474  0.0389  2.2789
  147SAPE  C21416229   3.276   1.896   9.596 -0.2147 -0.3181  0.7084
  147SAPE  H14R16230   3.371   1.872   9.646  1.3804  3.5351 -0.1299
  147SAPE  C21516231   3.293   1.913   9.455  0.3368  0.7813  1.1215
  147SAPE  H15R16232   3.388   1.877   9.412 -0.7229  0.2066 -0.8936
  147SAPE  C21616233   3.193   1.952   9.346 -0.1846 -0.2695  0.2198
  147SAPE  H16R16234   3.092   1.956   9.394 -0.5097 -0.3966 -0.4435
  147SAPE  H16S16235   3.181   1.869   9.273 -0.8448 -0.8327  0.9465
  147SAPE  C21716236   3.218   2.085   9.269 -0.6172 -0.6742 -0.5016
  147SAPE  H17R16237   3.326   2.088   9.245 -0.1870  0.1924  1.3837
  147SAPE  H17S16238   3.202   2.169   9.340  0.4825 -0.5351 -0.4060
  147SAPE  C21816239   3.134   2.101   9.151  0.7880 -1.0831 -0.4438
  147SAPE  H18R16240   3.026   2.097   9.176  0.9399 -1.4047  0.1870
  147SAPE  H18S16241   3.164   2.022   9.080 -0.1087  0.3322 -2.4945
  147SAPE  C21916242   3.151   2.237   9.066  0.2123  0.0734 -0.4330
  147SAPE  H19R16243   3.258   2.258   9.047  0.1860  0.8578  0.2258
  147SAPE  H19S16244   3.096   2.321   9.113 -1.2596 -0.5751 -0.9347
  147SAPE  C22016245   3.094   2.221   8.922  0.0305  0.2180  0.7502
  147SAPE  H20R16246   3.002   2.160   8.914  0.5783 -0.6265  0.7151
  147SAPE  H20S16247   3.176   2.175   8.864  1.0224  1.9043  0.7336
  147SAPE  H20T16248   3.083   2.323   8.878 -1.9509  0.8413  2.5510
  147SAPE   C3316249   2.642   1.875  10.172 -0.0259 -0.2685 -0.0150
  147SAPE   H3X16250   2.743   1.848  10.209 -0.0902 -2.9419 -1.5230
  147SAPE   H3Y16251   2.628   1.985  10.170 -1.3649 -0.3485  1.9573
  147SAPE   C3416252   2.629   1.790  10.048  0.2304 -0.1938 -0.0344
  147SAPE   H4X16253   2.524   1.779  10.014  0.3609 -1.0415 -0.1767
  147SAPE   H4Y16254   2.654   1.683  10.066  0.2705 -0.6318 -2.3236
  147SAPE   C3516255   2.732   1.837   9.936 -0.5271  0.0130  0.1857
  147SAPE   H5X16256   2.836   1.820   9.970 -0.9970  1.1087  2.3615
  147SAPE   H5Y16257   2.717   1.945   9.917 -1.2897 -0.1963 -0.4462
  147SAPE   C3616258   2.694   1.761   9.812 -0.3125  0.1798  0.9543
  147SAPE   H6X16259   2.584   1.756   9.801 -0.4354 -0.4936  2.3031
  147SAPE   H6Y16260   2.741   1.661   9.820 -2.0922 -0.9248 -1.2288
  147SAPE   C3716261   2.752   1.818   9.673  0.6090 -0.2076 -0.3016
  147SAPE   H7X16262   2.861   1.836   9.681  0.7403 -0.2564 -1.6569
  147SAPE   H7Y16263   2.705   1.915   9.645 -1.7849 -1.1595  0.2104
  147SAPE   C3816264   2.732   1.731   9.555  0.0103 -0.4139 -0.7832
  147SAPE   H8X16265   2.624   1.709   9.539  0.4610 -2.3028 -1.5099
  147SAPE   H8Y16266   2.779   1.633   9.573  0.7011  0.0920  0.2566
  147SAPE   C3916267   2.807   1.783   9.439 -0.5283 -0.7934 -0.4862
  147SAPE   H9X16268   2.909   1.822   9.462  0.4323 -2.8376 -1.0281
  147SAPE   H9Y16269   2.756   1.866   9.385  1.3358  1.8339  1.4759
  147SAPE  C31016270   2.822   1.682   9.331 -0.2018 -0.5386  1.1663
  147SAPE  H10X16271   2.730   1.637   9.287 -0.4078  0.3877  0.6321
  147SAPE  H10Y16272   2.873   1.590   9.367 -3.2483 -1.6647  2.9934
  147SAPE  C31116273   2.913   1.724   9.210  0.4239 -0.0557 -0.1035
  147SAPE  H11X16274   3.010   1.763   9.250  0.8277  1.5417 -2.4336
  147SAPE  H11Y16275   2.869   1.812   9.158 -0.9712 -0.6290  0.0736
  147SAPE  C31216276   2.946   1.605   9.111 -0.5860 -0.6612  0.6249
  147SAPE  H12X16277   2.845   1.581   9.072  0.4768 -1.3420 -1.9133
  147SAPE  H12Y16278   2.987   1.515   9.162 -1.8279 -0.9091  1.2120
  147SAPE  C31316279   3.047   1.659   9.003  0.7951 -0.1267  0.7961
  147SAPE  H13X16280   3.145   1.665   9.054  1.6235 -3.1748 -0.2573
  147SAPE  H13Y16281   3.006   1.761   8.981 -1.3417 -0.9365  0.8000
  147SAPE  C31416282   3.070   1.573   8.876  0.0775  0.6902  0.0001
  147SAPE  H14X16283   3.084   1.466   8.903 -0.1849  0.1599 -1.8213
  147SAPE  H14Y16284   3.166   1.592   8.824  0.1963  0.9270  0.3046
  147SAPE  C31516285   2.962   1.604   8.772  0.1692  0.5250  0.5661
  147SAPE  H15X16286   2.969   1.711   8.740 -3.4352  1.3771  2.0925
  147SAPE  H15Y16287   2.860   1.603   8.815 -0.2402  3.1589 -0.1153
  147SAPE  C31616288   2.965   1.520   8.639 -0.3930  0.1574 -0.2579
  147SAPE  H16X16289   2.959   1.415   8.676 -1.6961  0.4686  0.4502
  147SAPE  H16Y16290   3.063   1.516   8.587 -0.6533 -1.7373 -0.6968
  147SAPE  C31716291   2.862   1.563   8.533 -0.3643 -0.2470 -0.3730
  147SAPE  H17X16292   2.889   1.661   8.488 -0.8357 -0.0095 -0.1504
  147SAPE  H17Y16293   2.759   1.579   8.572 -0.2803  1.1862 -0.6789
  147SAPE  C31816294   2.837   1.456   8.426  0.3273 -0.7452 -0.1799
  147SAPE  H18X16295   2.777   1.504   8.345  0.5429 -1.2216 -0.6282
  147SAPE  H18Y16296   2.794   1.363   8.467 -0.5502  0.8061  2.6914
  147SAPE  H18Z16297   2.941   1.428   8.400  0.9207  1.2766 -0.2051
  148SAPE     N16298   2.242   3.185  10.786 -0.2699 -0.6664  0.2626
  148SAPE   HN116299   2.200   3.093  10.760 -3.3049  1.5581 -4.0674
  148SAPE   HN216300   2.346   3.180  10.790 -0.1564 -0.6104 -1.6361
  148SAPE   HN316301   2.216   3.219  10.880 -0.8993 -0.5570  0.0537
  148SAPE   C1216302   2.206   3.286  10.679 -0.2859 -0.3712  0.8725
  148SAPE  H12A16303   2.209   3.386  10.728 -0.8462  0.3102 -0.4284
  148SAPE  H12B16304   2.106   3.266  10.635  1.5086 -1.2190 -3.2835
  148SAPE   C1116305   2.310   3.273  10.563  0.3829 -0.3955 -0.4717
  148SAPE  H11A16306   2.272   3.336  10.481  0.4669  1.7418  1.0441
  148SAPE  H11B16307   2.318   3.171  10.519 -0.4438 -1.0929  0.9156
  148SAPE     P16308   2.566   3.335  10.515 -0.1921  0.0453 -0.3639
  148SAPE   O1316309   2.615   3.468  10.551  0.3722  0.2874 -0.1319
  148SAPE   O1416310   2.654   3.214  10.531 -0.2314 -1.0973  0.0202
  148SAPE   O1216311   2.438   3.319  10.608  0.0463 -0.1209  0.1524
  148SAPE   O1116312   2.516   3.330  10.366 -0.3912  0.0502  0.2340
  148SAPE    C116313   2.523   3.214  10.276 -0.5984  0.6929 -0.0206
  148SAPE    HA16314   2.626   3.173  10.266 -0.8097  0.3780 -0.9359
  148SAPE    HB16315   2.461   3.130  10.313  0.6614 -0.6851 -0.9422
  148SAPE    C216316   2.461   3.254  10.135  0.7007  0.6168 -0.3716
  148SAPE    HS16317   2.353   3.228  10.133  1.2748 -2.1551  0.3473
  148SAPE   O2116318   2.530   3.185  10.029 -0.0846  0.2826  0.1740
  148SAPE   C2116319   2.533   3.045  10.033  0.0706 -0.5063 -0.2472
  148SAPE   O2216320   2.459   2.992  10.108 -0.0124  0.2356 -0.4521
  148SAPE   C2216321   2.639   2.980   9.936 -0.6688 -0.3557 -0.2267
  148SAPE   H2R16322   2.733   3.038   9.946 -1.1893  0.2918  1.2299
  148SAPE   H2S16323   2.664   2.878   9.973 -0.2481  0.0264  0.5774
  148SAPE    C316324   2.482   3.407  10.105  0.0982  0.4155  0.6150
  148SAPE    HX16325   2.590   3.430  10.091  0.2175  0.2710  1.2670
  148SAPE    HY16326   2.444   3.465  10.192 -1.4399 -1.0031  0.9412
  148SAPE   O3116327   2.409   3.446   9.982 -0.3525 -0.4515  0.0049
  148SAPE   C3116328   2.281   3.457   9.990 -0.2204  0.0987 -1.1970
  148SAPE   O3216329   2.220   3.461  10.096  0.0005 -0.4122 -0.2075
  148SAPE   C3216330   2.215   3.487   9.855 -0.8512 -0.1773  0.5566
  148SAPE   H2X16331   2.288   3.555   9.807  0.7013 -0.5634  2.2629
  148SAPE   H2Y16332   2.123   3.540   9.888 -2.1695 -1.3310 -1.1052
  148SAPE   C2316333   2.579   2.981   9.794 -0.2683 -0.1923 -0.3806
  148SAPE   H3R16334   2.476   2.940   9.796 -0.1999 -0.3683 -0.3850
  148SAPE   H3S16335   2.631   2.899   9.739 -3.4036 -2.0328 -0.8786
  148SAPE   C2416336   2.595   3.113   9.722 -0.7976 -0.7279  0.3914
  148SAPE   H4R16337   2.704   3.126   9.703 -1.3535  1.1475 -2.2197
  148SAPE   H4S16338   2.566   3.191   9.795 -1.1917 -1.1255  0.6648
  148SAPE   C2516339   2.511   3.122   9.598 -0.3054  0.1116  0.2611
  148SAPE   H5R16340   2.403   3.137   9.616 -0.3278 -0.9046  1.0647
  148SAPE   C2616341   2.558   3.112   9.469  0.2515 -0.2874 -0.0133
  148SAPE   H6R16342   2.485   3.108   9.386  1.4134 -1.5554 -1.0228
  148SAPE   C2716343   2.704   3.081   9.419  0.6293 -0.1212 -0.0159
  148SAPE   H7R16344   2.784   3.097   9.495 -0.7375 -0.1015  1.4806
  148SAPE   H7S16345   2.735   3.147   9.336  2.5302  0.6029  1.2135
  148SAPE   C2816346   2.710   2.936   9.371 -0.6705  0.4350  0.1656
  148SAPE   H8R16347   2.741   2.859   9.443 -0.0573 -2.3808 -2.8266
  148SAPE   C2916348   2.669   2.894   9.251 -0.3331  0.4951 -0.4366
  148SAPE   H9R16349   2.686   2.788   9.230 -1.2700  0.2716 -0.0992
  148SAPE  C21016350   2.613   2.970   9.132 -0.8762 -0.0684 -0.0158
  148SAPE  H10R16351   2.574   3.070   9.163 -0.7825 -0.2118  0.5799
  148SAPE  H10S16352   2.530   2.908   9.092 -0.3451 -0.3415 -0.7257
  148SAPE  C21116353   2.722   2.984   9.033 -0.3860 -0.1860 -0.2964
  148SAPE  H11R16354   2.801   3.060   9.035  0.9720 -1.4629 -1.9433
  148SAPE  C21216355   2.737   2.898   8.925 -0.3510  0.0889 -0.0227
  148SAPE  H12R16356   2.829   2.923   8.871 -0.3647 -0.7340 -0.4315
  148SAPE  C21316357   2.646   2.783   8.875 -0.3977  0.0909 -0.1713
  148SAPE  H13R16358   2.597   2.823   8.784 -2.6482 -0.4969  0.7166
  148SAPE  H13S16359   2.573   2.759   8.956 -0.2816  1.6496  0.4311
  148SAPE  C21416360   2.714   2.656   8.835  0.3969  0.3211 -0.5365
  148SAPE  H14R16361   2.789   2.615   8.904  0.5646 -2.9382 -2.4194
  148SAPE  C21516362   2.693   2.587   8.726  0.1799 -0.3265  0.4116
  148SAPE  H15R16363   2.760   2.501   8.712  1.7239  0.5880  1.8322
  148SAPE  C21616364   2.597   2.615   8.613  0.0912 -0.1392  0.8058
  148SAPE  H16R16365   2.650   2.688   8.548  1.8339 -1.3228  0.8433
  148SAPE  H16S16366   2.521   2.684   8.657  0.8095  2.3245 -1.5094
  148SAPE  C21716367   2.543   2.492   8.531 -0.2254  0.0206  0.0178
  148SAPE  H17R16368   2.499   2.427   8.609 -2.6137  0.2311 -1.0805
  148SAPE  H17S16369   2.627   2.436   8.485  0.8936  1.7436 -0.1752
  148SAPE  C21816370   2.446   2.529   8.421 -0.2280 -0.1465  0.4525
  148SAPE  H18R16371   2.387   2.609   8.471 -1.5591 -0.7557 -0.1008
  148SAPE  H18S16372   2.391   2.434   8.407 -1.2851  0.1078  2.4959
  148SAPE  C21916373   2.509   2.586   8.291  0.2202  0.4156 -1.0870
  148SAPE  H19R16374   2.580   2.667   8.317 -0.7271  0.6711  0.8834
  148SAPE  H19S16375   2.425   2.632   8.233 -0.3078  1.2816  0.3136
  148SAPE  C22016376   2.578   2.480   8.206  0.1183 -0.6601 -0.2011
  148SAPE  H20R16377   2.601   2.509   8.102 -1.5511 -2.5619 -1.1809
  148SAPE  H20S16378   2.519   2.387   8.190  0.5477 -0.6635 -1.8407
  148SAPE  H20T16379   2.668   2.454   8.265 -0.2937 -0.4289  0.5476
  148SAPE   C3316380   2.179   3.359   9.768 -0.4838 -0.7395 -0.3420
  148SAPE   H3X16381   2.107   3.299   9.826 -1.3710  0.6259  0.0210
  148SAPE   H3Y16382   2.270   3.297   9.751  0.3221  0.6872 -1.5115
  148SAPE   C3416383   2.114   3.405   9.636  0.7694  0.2668  0.2887
  148SAPE   H4X16384   2.035   3.475   9.669  1.0980  0.2454  1.1471
  148SAPE   H4Y16385   2.052   3.332   9.579  0.9212  1.1463 -1.0307
  148SAPE   C3516386   2.199   3.485   9.536 -0.2304  0.3546 -1.5368
  148SAPE   H5X16387   2.250   3.567   9.591 -1.8394 -1.3871  3.0535
  148SAPE   H5Y16388   2.127   3.529   9.464 -0.1606 -0.6830 -2.2579
  148SAPE   C3616389   2.279   3.396   9.439 -0.1724  0.3793 -0.3053
  148SAPE   H6X16390   2.217   3.305   9.422  0.6245 -0.1258 -0.5390
  148SAPE   H6Y16391   2.371   3.353   9.483  0.5977  1.6321 -0.6399
  148SAPE   C3716392   2.301   3.454   9.298 -0.1596 -0.7602  0.3807
  148SAPE   H7X16393   2.356   3.549   9.317  0.3779 -1.1325  0.6893
  148SAPE   H7Y16394   2.203   3.478   9.250 -0.8725 -1.2561  1.5540
  148SAPE   C3816395   2.367   3.371   9.189  0.3690 -0.4463 -0.7997
  148SAPE   H8X16396   2.307   3.280   9.168  2.8906 -3.2918  3.0140
  148SAPE   H8Y16397   2.455   3.342   9.250 -0.5068 -1.3232  0.0987
  148SAPE   C3916398   2.405   3.445   9.064  0.5325  0.1343  0.0544
  148SAPE   H9X16399   2.443   3.547   9.084 -1.6614  0.8075  1.1103
  148SAPE   H9Y16400   2.320   3.460   8.994  1.0270  2.6936 -0.1053
  148SAPE  C31016401   2.512   3.375   8.981  0.5772 -0.5771  0.3921
  148SAPE  H10X16402   2.483   3.269   8.967 -1.1713  0.1426 -2.2176
  148SAPE  H10Y16403   2.604   3.385   9.042 -0.0432 -1.4280  1.4946
  148SAPE  C31116404   2.539   3.432   8.843 -0.4124  0.6914 -0.1394
  148SAPE  H11X16405   2.624   3.388   8.786 -0.3365  0.7352 -0.0599
  148SAPE  H11Y16406   2.563   3.540   8.853  1.6549  0.5170 -2.2203
  148SAPE  C31216407   2.415   3.418   8.744 -0.2967  0.0962 -0.2765
  148SAPE  H12X16408   2.451   3.471   8.653 -0.6132  0.5280 -0.1553
  148SAPE  H12Y16409   2.339   3.490   8.782  2.8881  2.7470  1.6450
  148SAPE  C31316410   2.369   3.276   8.717 -0.2330  0.5275  0.8029
  148SAPE  H13X16411   2.329   3.222   8.805 -0.1510 -1.0527 -0.1042
  148SAPE  H13Y16412   2.457   3.214   8.690 -0.0821  1.3421 -0.6946
  148SAPE  C31416413   2.256   3.271   8.605 -1.2017  0.1340  0.0861
  148SAPE  H14X16414   2.309   3.270   8.508 -1.1757  0.2646  0.0988
  148SAPE  H14Y16415   2.213   3.372   8.623  2.7153  1.9491  0.5164
  148SAPE  C31516416   2.160   3.154   8.629  0.4343  0.8407  0.4562
  148SAPE  H15X16417   2.131   3.142   8.736  2.0573  1.7926  1.0468
  148SAPE  H15Y16418   2.230   3.068   8.617  0.2148  0.9692 -2.1964
  148SAPE  C31616419   2.043   3.149   8.528 -0.2768  0.4349  0.1545
  148SAPE  H16X16420   2.095   3.135   8.431 -0.2477 -3.4229  0.5959
  148SAPE  H16Y16421   1.984   3.243   8.519 -0.4383  0.2348 -1.0267
  148SAPE  C31716422   1.932   3.051   8.559  0.4749 -0.1108  0.7574
  148SAPE  H17X16423   1.893   3.072   8.661  0.1159 -0.9797  0.8087
  148SAPE  H17Y16424   1.975   2.949   8.559 -0.6979 -0.6472  2.5787
  148SAPE  C31816425   1.815   3.054   8.460 -0.1374  0.2764 -0.3729
  148SAPE  H18X16426   1.736   2.979   8.483  0.0139  0.3209  0.3090
  148SAPE  H18Y16427   1.858   3.033   8.360 -1.4049  0.2258 -0.9295
  148SAPE  H18Z16428   1.772   3.155   8.445  0.2433  0.0299 -3.9533
  149SAPE     N16429   5.767   6.672  10.868  0.3670  0.4616  0.0671
  149SAPE   HN116430   5.825   6.744  10.820  0.9511 -0.3499 -0.4839
  149SAPE   HN216431   5.703   6.626  10.800 -0.5245 -2.3993  2.6226
  149SAPE   HN316432   5.715   6.710  10.949 -2.1688 -0.8748 -0.8321
  149SAPE   C1216433   5.853   6.552  10.911  0.0893 -0.2489 -0.8641
  149SAPE  H12A16434   5.775   6.473  10.911 -0.3036  0.1288 -1.7743
  149SAPE  H12B16435   5.893   6.571  11.013 -0.0456 -0.6659 -0.7298
  149SAPE   C1116436   5.961   6.526  10.803 -0.0470  0.6131  0.0404
  149SAPE  H11A16437   5.912   6.519  10.703  1.9494  1.6916 -1.0708
  149SAPE  H11B16438   6.013   6.432  10.831 -0.9065  0.0923 -0.0549
  149SAPE     P16439   6.190   6.651  10.876  0.1403 -0.0417 -0.1474
  149SAPE   O1316440   6.249   6.787  10.851  0.0764  0.4384 -0.2875
  149SAPE   O1416441   6.164   6.634  11.020  0.3838 -0.0431 -0.0400
  149SAPE   O1216442   6.055   6.631  10.797  0.7717  0.0142 -0.1525
  149SAPE   O1116443   6.279   6.535  10.833 -0.4395 -0.0977 -0.1149
  149SAPE    C116444   6.326   6.509  10.695 -0.0046  0.6819  0.3462
  149SAPE    HA16445   6.310   6.584  10.615 -2.3188 -1.4984 -1.3617
  149SAPE    HB16446   6.437   6.505  10.701  0.0901  1.0254 -0.9340
  149SAPE    C216447   6.270   6.368  10.648 -1.0473 -0.0641 -0.6854
  149SAPE    HS16448   6.334   6.315  10.574  1.0646  1.0959  0.2180
  149SAPE   O2116449   6.140   6.386  10.584 -0.0582  0.2520 -0.3294
  149SAPE   C2116450   6.135   6.457  10.463  0.0793 -0.3340 -0.3204
  149SAPE   O2216451   6.236   6.482  10.397 -0.4614 -0.7229 -1.2327
  149SAPE   C2216452   5.989   6.482  10.424 -0.2843  0.4193 -0.5696
  149SAPE   H2R16453   5.947   6.382  10.399 -0.5583 -0.1152  1.8545
  149SAPE   H2S16454   5.938   6.533  10.508  0.5949  0.8959 -0.3037
  149SAPE    C316455   6.266   6.260  10.761  0.2840 -1.0275 -0.0414
  149SAPE    HX16456   6.198   6.308  10.835 -0.0463  1.5951 -1.9314
  149SAPE    HY16457   6.366   6.245  10.807  0.1158 -0.6601  0.4574
  149SAPE   O3116458   6.217   6.138  10.707  0.7599 -0.0695 -0.5421
  149SAPE   C3116459   6.130   6.073  10.782 -0.3323  0.1941 -0.8837
  149SAPE   O3216460   6.121   6.089  10.904  0.9282 -0.1216 -0.0015
  149SAPE   C3216461   6.051   5.969  10.704  0.5321 -0.0082 -0.7784
  149SAPE   H2X16462   5.994   5.907  10.775  1.2883  1.3580  1.1014
  149SAPE   H2Y16463   6.115   5.894  10.651 -0.6687 -1.4285 -0.2873
  149SAPE   C2316464   5.965   6.568  10.294 -0.3824 -0.1977 -0.4051
  149SAPE   H3R16465   6.050   6.639  10.305 -0.0138 -0.7169  0.2775
  149SAPE   H3S16466   5.872   6.626  10.312  0.7017  1.3417  0.4339
  149SAPE   C2416467   5.962   6.482  10.166  0.3696 -0.3132 -0.3243
  149SAPE   H4R16468   5.879   6.409  10.183  1.0534 -0.5988  2.1930
  149SAPE   H4S16469   6.056   6.424  10.166  1.5038  1.2127  3.1964
  149SAPE   C2516470   5.935   6.565  10.040 -0.5071 -0.0144 -0.8665
  149SAPE   H5R16471   5.855   6.641  10.038 -0.4554  0.0550 -3.3360
  149SAPE   C2616472   6.006   6.549   9.928 -0.5364 -0.1987 -0.0616
  149SAPE   H6R16473   5.974   6.617   9.848 -1.7413  0.1065  0.6480
  149SAPE   C2716474   6.119   6.457   9.905 -0.2905  0.2690  0.3835
  149SAPE   H7R16475   6.184   6.456   9.995 -0.0636  1.7679  0.2728
  149SAPE   H7S16476   6.182   6.510   9.831 -2.0433  1.0259 -0.6300
  149SAPE   C2816477   6.077   6.319   9.865  0.8060 -0.3040 -0.5998
  149SAPE   H8R16478   6.031   6.256   9.943 -2.5602  0.9657 -1.4023
  149SAPE   C2916479   6.075   6.263   9.741  0.2030 -0.1258 -0.5730
  149SAPE   H9R16480   6.045   6.157   9.742 -1.0435  0.1638  1.9362
  149SAPE  C21016481   6.116   6.314   9.609 -0.1821 -0.2492  0.5698
  149SAPE  H10R16482   6.117   6.237   9.529 -1.6215  1.5276 -1.2701
  149SAPE  H10S16483   6.220   6.353   9.607  0.7281 -2.5177 -0.2636
  149SAPE  C21116484   6.014   6.413   9.566  0.2116 -0.3853 -0.7888
  149SAPE  H11R16485   5.982   6.479   9.647  0.6866  1.1146 -1.7844
  149SAPE  C21216486   5.958   6.434   9.445  0.7362 -0.2375 -0.2252
  149SAPE  H12R16487   5.885   6.516   9.435 -0.0670 -0.9199 -0.0722
  149SAPE  C21316488   5.972   6.352   9.314  0.3193 -0.5209 -0.3533
  149SAPE  H13R16489   5.875   6.343   9.261 -0.1878  2.9337 -0.2775
  149SAPE  H13S16490   6.002   6.248   9.336  1.2731 -0.0795  0.5006
  149SAPE  C21416491   6.075   6.412   9.213  0.0726  0.0546  0.2934
  149SAPE  H14R16492   6.180   6.418   9.246 -0.4450  2.3507  1.7743
  149SAPE  C21516493   6.050   6.465   9.090 -0.7616  0.0162 -0.2057
  149SAPE  H15R16494   6.126   6.510   9.025 -1.7768 -1.1944 -2.3396
  149SAPE  C21616495   5.907   6.476   9.039  0.3092  0.0461  0.0057
  149SAPE  H16R16496   5.896   6.577   8.995  0.6818  0.3102  0.5027
  149SAPE  H16S16497   5.830   6.462   9.118  0.4677  0.6542  0.2729
  149SAPE  C21716498   5.890   6.358   8.949 -0.1529  0.0808  0.3908
  149SAPE  H17R16499   5.897   6.266   9.011 -0.2857  0.4622  0.9869
  149SAPE  H17S16500   5.958   6.352   8.862 -0.5883  3.4271 -0.3325
  149SAPE  C21816501   5.745   6.359   8.893  0.2536  0.5689 -0.4955
  149SAPE  H18R16502   5.732   6.462   8.852 -0.8140  0.5768 -0.1636
  149SAPE  H18S16503   5.674   6.350   8.977  0.8561  3.5653  0.4722
  149SAPE  C21916504   5.726   6.258   8.781  0.4180  1.0604  0.7822
  149SAPE  H19R16505   5.755   6.160   8.825 -2.7608  1.2620  3.7226
  149SAPE  H19S16506   5.793   6.274   8.694 -1.2776  0.6074 -0.6610
  149SAPE  C22016507   5.579   6.244   8.732 -0.6606  0.2804 -0.2139
  149SAPE  H20R16508   5.509   6.191   8.801 -0.6125 -0.9677 -1.0959
  149SAPE  H20S16509   5.578   6.175   8.645  0.1042 -0.7519  0.5617
  149SAPE  H20T16510   5.531   6.341   8.709  2.0356  1.7713  0.0750
  149SAPE   C3316511   5.951   6.028  10.592 -0.6739 -0.3181  0.2245
  149SAPE   H3X16512   5.904   6.124  10.623  0.9802  0.3655  0.6818
  149SAPE   H3Y16513   5.865   5.957  10.595 -0.1315 -1.0075  3.2368
  149SAPE   C3416514   6.009   6.023  10.451  0.0829 -0.3843 -0.2657
  149SAPE   H4X16515   6.049   5.924  10.422 -0.5393 -0.0742 -2.3060
  149SAPE   H4Y16516   6.093   6.096  10.443 -1.4746  1.7493  1.4851
  149SAPE   C3516517   5.903   6.057  10.347  0.7581  0.6348 -0.2658
  149SAPE   H5X16518   5.903   6.168  10.335 -0.0691  1.1694  3.5413
  149SAPE   H5Y16519   5.804   6.017  10.377  1.0549 -1.2382 -1.5750
  149SAPE   C3616520   5.936   5.989  10.213 -0.0616 -0.0149 -0.1953
  149SAPE   H6X16521   5.925   5.879  10.223  0.6803 -0.0045  0.8388
  149SAPE   H6Y16522   6.042   6.010  10.190 -0.0019 -1.1010 -1.0265
  149SAPE   C3716523   5.846   6.033  10.092 -0.4182 -0.1932  0.4261
  149SAPE   H7X16524   5.878   6.137  10.070  2.0531 -1.0256 -0.2957
  149SAPE   H7Y16525   5.738   6.033  10.119 -0.5501 -0.0173 -0.1022
  149SAPE   C3816526   5.862   5.952   9.965  0.6833  0.6655  0.5788
  149SAPE   H8X16527   5.837   5.845   9.980  0.6882  0.8970  2.5141
  149SAPE   H8Y16528   5.970   5.959   9.943  0.1980  1.5613 -1.7433
  149SAPE   C3916529   5.784   6.007   9.846 -0.1071 -0.3784  0.3995
  149SAPE   H9X16530   5.818   6.111   9.829 -1.3813  0.1021  0.6862
  149SAPE   H9Y16531   5.680   6.024   9.882 -0.1537 -1.0044  0.5886
  149SAPE  C31016532   5.790   5.920   9.716 -0.0240  1.1956  0.0216
  149SAPE  H10X16533   5.723   5.832   9.729  1.0399  0.3176 -0.2912
  149SAPE  H10Y16534   5.892   5.876   9.718  0.8771  3.2085  0.7531
  149SAPE  C31116535   5.761   5.995   9.589 -0.3560 -0.1096 -0.0686
  149SAPE  H11X16536   5.829   6.082   9.583 -0.0597 -0.4147 -1.7358
  149SAPE  H11Y16537   5.653   6.022   9.594 -0.2701  0.5435 -1.3950
  149SAPE  C31216538   5.772   5.910   9.464 -0.3515  0.4200  0.1380
  149SAPE  H12X16539   5.683   5.844   9.458  0.0853 -0.2752  1.1419
  149SAPE  H12Y16540   5.859   5.843   9.448 -0.6935 -0.6496  2.4370
  149SAPE  C31316541   5.765   5.999   9.338  0.4309 -0.0882  0.2073
  149SAPE  H13X16542   5.859   6.057   9.329 -0.9213  2.1537 -0.1083
  149SAPE  H13Y16543   5.675   6.062   9.350  0.5481  0.2321 -0.5406
  149SAPE  C31416544   5.757   5.901   9.213 -0.1525  0.1638  0.0476
  149SAPE  H14X16545   5.659   5.850   9.223 -0.5587  0.6114 -1.4168
  149SAPE  H14Y16546   5.836   5.827   9.234  0.8966  0.6657 -1.8876
  149SAPE  C31516547   5.768   5.982   9.076 -0.0093  0.4315 -0.1870
  149SAPE  H15X16548   5.853   6.053   9.083  0.1944  0.2056 -0.3614
  149SAPE  H15Y16549   5.676   6.045   9.067 -0.9579 -0.8681  0.0977
  149SAPE  C31616550   5.797   5.894   8.957  0.1842 -0.3099  0.0066
  149SAPE  H16X16551   5.743   5.925   8.866 -1.2388 -0.9293  0.6108
  149SAPE  H16Y16552   5.752   5.795   8.983 -2.4853  0.6610 -0.6006
  149SAPE  C31716553   5.948   5.865   8.936  0.3969  0.0498 -0.0246
  149SAPE  H17X16554   5.953   5.767   8.883 -2.6546  1.6091 -3.6761
  149SAPE  H17Y16555   5.991   5.852   9.038  1.6896  0.6907 -0.4731
  149SAPE  C31816556   6.008   5.976   8.845  0.3072 -0.0964 -0.4278
  149SAPE  H18X16557   6.017   6.081   8.881  0.8090 -0.0896 -0.5630
  149SAPE  H18Y16558   5.953   5.988   8.749  0.7137  0.1097 -0.6380
  149SAPE  H18Z16559   6.108   5.936   8.815  0.0681 -1.1102  0.0839
  150SAPE     N16560   0.919   5.098  10.845  0.0054  0.7936 -0.5669
  150SAPE   HN116561   0.921   5.053  10.938  1.0116 -0.4756 -1.1901
  150SAPE   HN216562   1.018   5.098  10.815  1.1076 -1.8354  2.5194
  150SAPE   HN316563   0.902   5.200  10.857 -0.4723  0.6083  0.4977
  150SAPE   C1216564   0.828   5.025  10.751  0.1389  0.0171  0.2150
  150SAPE  H12A16565   0.889   4.994  10.664 -1.1987  1.8157 -1.4494
  150SAPE  H12B16566   0.757   5.099  10.708  1.3395  0.2619 -1.4483
  150SAPE   C1116567   0.760   4.901  10.814  0.3800  0.1880  0.3034
  150SAPE  H11A16568   0.705   4.843  10.737 -0.7993  3.6444 -1.6583
  150SAPE  H11B16569   0.694   4.934  10.897  0.4324 -0.1376  0.4782
  150SAPE     P16570   0.850   4.659  10.867  0.0101 -0.2653  0.1363
  150SAPE   O1316571   0.976   4.598  10.919  0.1598  0.4659  0.0960
  150SAPE   O1416572   0.726   4.608  10.920 -0.3195 -0.2168  0.3845
  150SAPE   O1216573   0.859   4.819  10.877 -0.0442  0.3661 -0.0780
  150SAPE   O1116574   0.839   4.644  10.717  0.1686  0.0527 -0.2839
  150SAPE    C116575   0.889   4.529  10.648 -0.4837 -0.1513  0.6917
  150SAPE    HA16576   0.920   4.451  10.720  2.3340 -0.1179 -0.3568
  150SAPE    HB16577   0.815   4.486  10.577 -2.0449 -0.0817  2.2290
  150SAPE    C216578   1.013   4.564  10.572 -0.7575 -0.6409  0.5248
  150SAPE    HS16579   1.086   4.598  10.648 -1.1382  0.5404  0.3714
  150SAPE   O2116580   0.989   4.673  10.483 -0.0094 -0.2086 -0.0836
  150SAPE   C2116581   1.098   4.733  10.446 -0.3008  0.0742 -0.7336
  150SAPE   O2216582   1.212   4.712  10.486 -0.0509  0.3221  0.2993
  150SAPE   C2216583   1.058   4.829  10.327  0.6867  0.2395 -1.2060
  150SAPE   H2R16584   0.947   4.833  10.336  0.7167 -0.9571 -0.0001
  150SAPE   H2S16585   1.105   4.924  10.362  0.3112  0.3356 -0.9501
  150SAPE    C316586   1.077   4.448  10.493 -0.0091  0.4882  0.2963
  150SAPE    HX16587   1.104   4.370  10.568  1.0091 -1.3220 -1.8342
  150SAPE    HY16588   1.176   4.467  10.447  0.4531 -1.7456  0.2510
  150SAPE   O3116589   0.981   4.383  10.405  0.5460  0.8778  0.5553
  150SAPE   C3116590   1.013   4.266  10.363  0.3196  0.3474 -0.0529
  150SAPE   O3216591   1.113   4.197  10.382 -0.2356 -0.1107  0.5919
  150SAPE   C3216592   0.924   4.209  10.261  0.0498 -0.2258 -0.3434
  150SAPE   H2X16593   0.850   4.285  10.228 -0.9345 -0.7870  0.5224
  150SAPE   H2Y16594   0.873   4.122  10.307 -0.3141 -1.0263 -2.1727
  150SAPE   C2316595   1.107   4.783  10.186 -0.5032 -0.0759 -0.3230
  150SAPE   H3R16596   1.212   4.818  10.169 -1.0847  1.1996 -1.5248
  150SAPE   H3S16597   1.056   4.843  10.108 -2.4111  0.5301  1.3161
  150SAPE   C2416598   1.086   4.633  10.144 -0.2351  0.4182 -1.0684
  150SAPE   H4R16599   1.146   4.563  10.206 -2.2492 -0.8448 -0.4428
  150SAPE   H4S16600   1.142   4.610  10.051 -0.3520 -0.2198 -0.9849
  150SAPE   C2516601   0.942   4.583  10.149  0.3969  0.1798 -0.4584
  150SAPE   H5R16602   0.894   4.578  10.248 -0.9181  0.5701 -1.0497
  150SAPE   C2616603   0.867   4.546  10.045  0.3914  0.7698  0.3869
  150SAPE   H6R16604   0.765   4.504  10.052 -0.8330  3.5106  0.3927
  150SAPE   C2716605   0.912   4.540   9.900  0.1149 -0.5854  0.0533
  150SAPE   H7R16606   0.944   4.641   9.869  2.0935 -1.1862 -0.0180
  150SAPE   H7S16607   0.819   4.503   9.851 -2.0819  2.2824  1.7154
  150SAPE   C2816608   1.019   4.442   9.845 -0.0275  0.4336  0.6520
  150SAPE   H8R16609   1.081   4.390   9.920 -0.7866 -1.2945  0.1304
  150SAPE   C2916610   1.046   4.409   9.719  0.5870  0.2811  0.4252
  150SAPE   H9R16611   1.134   4.346   9.702  0.0005 -0.4196 -0.0385
  150SAPE  C21016612   0.969   4.457   9.594 -0.2722 -0.2308 -0.1620
  150SAPE  H10R16613   0.865   4.492   9.611  0.6212  3.0188 -0.6830
  150SAPE  H10S16614   0.962   4.364   9.534  0.5196 -0.4156  0.0183
  150SAPE  C21116615   1.057   4.554   9.525 -0.2424  0.0965  0.2761
  150SAPE  H11R16616   1.165   4.531   9.523 -0.4906 -1.0567 -0.4685
  150SAPE  C21216617   1.022   4.671   9.463  0.3368 -0.1366  0.2100
  150SAPE  H12R16618   1.106   4.730   9.422  0.3627 -0.4234 -0.1583
  150SAPE  C21316619   0.882   4.728   9.461  0.7911  0.5504  0.4694
  150SAPE  H13R16620   0.821   4.681   9.541  2.3452  1.2700  2.1480
  150SAPE  H13S16621   0.830   4.700   9.367 -1.1479 -2.6773  2.2943
  150SAPE  C21416622   0.875   4.879   9.471  0.2222 -0.5125  0.5894
  150SAPE  H14R16623   0.936   4.931   9.396 -0.9661 -1.7449 -1.3210
  150SAPE  C21516624   0.795   4.959   9.552 -0.3461  0.1841 -0.0681
  150SAPE  H15R16625   0.801   5.066   9.529  2.0329 -0.3961 -2.8382
  150SAPE  C21616626   0.703   4.898   9.654  0.0629 -0.4103  0.2677
  150SAPE  H16R16627   0.647   4.807   9.623  1.0915 -1.2864  0.9243
  150SAPE  H16S16628   0.624   4.970   9.685  0.2978 -0.3661  0.7865
  150SAPE  C21716629   0.777   4.849   9.785  0.6505 -0.0592  0.0932
  150SAPE  H17R16630   0.860   4.917   9.812  2.1309 -1.7607 -0.0170
  150SAPE  H17S16631   0.819   4.748   9.769 -1.2132 -1.2828  2.2803
  150SAPE  C21816632   0.685   4.831   9.903  1.0395  0.3996 -0.1337
  150SAPE  H18R16633   0.716   4.747   9.970  0.0217 -0.0590 -0.2208
  150SAPE  H18S16634   0.586   4.813   9.856  1.4719 -0.2426 -0.8175
  150SAPE  C21916635   0.654   4.958   9.978 -0.0276  0.2534 -0.2324
  150SAPE  H19R16636   0.634   5.049   9.917 -1.3550  0.2794  0.2238
  150SAPE  H19S16637   0.752   4.977  10.027 -0.5095  1.2740  0.3596
  150SAPE  C22016638   0.541   4.957  10.074  0.0466 -0.0617  0.4454
  150SAPE  H20R16639   0.524   5.058  10.119 -0.9614  0.4275 -0.9568
  150SAPE  H20S16640   0.550   4.883  10.156 -2.6348  1.2807  2.1047
  150SAPE  H20T16641   0.445   4.935  10.022  0.2932  1.1436 -0.5844
  150SAPE   C3316642   1.000   4.151  10.145 -0.6680 -0.6200 -0.1575
  150SAPE   H3X16643   1.094   4.097  10.168 -0.2789  0.8056  1.8247
  150SAPE   H3Y16644   1.031   4.232  10.076  0.6940 -1.0121 -0.0226
  150SAPE   C3416645   0.912   4.067  10.042  0.6504  0.9439  0.1932
  150SAPE   H4X16646   0.817   4.122  10.025  0.8524  0.7854 -1.7469
  150SAPE   H4Y16647   0.887   3.971  10.091 -0.5826  0.2547 -1.6727
  150SAPE   C3516648   0.972   4.052   9.905 -0.4058 -0.0966  0.1385
  150SAPE   H5X16649   1.044   3.967   9.898 -2.1222 -1.6710  0.7802
  150SAPE   H5Y16650   1.016   4.148   9.872 -0.8542 -0.0218 -0.2609
  150SAPE   C3616651   0.863   4.013   9.800  0.4839  0.6054 -0.1652
  150SAPE   H6X16652   0.789   4.094   9.784 -3.3642 -2.7272 -0.8144
  150SAPE   H6Y16653   0.800   3.933   9.844 -0.3520  1.9680  1.2314
  150SAPE   C3716654   0.924   3.960   9.673  0.1499  0.1635  0.3255
  150SAPE   H7X16655   0.842   3.918   9.610 -0.0423  0.9133  0.0743
  150SAPE   H7Y16656   0.993   3.877   9.701 -0.8599 -0.3714  1.3453
  150SAPE   C3816657   0.994   4.070   9.593  0.1340  0.0400  0.3093
  150SAPE   H8X16658   1.087   4.092   9.649 -0.3062  0.9200  0.7129
  150SAPE   H8Y16659   0.929   4.160   9.601  0.0758 -0.0350  0.7255
  150SAPE   C3916660   1.038   4.025   9.450 -0.2607 -0.0450  0.6129
  150SAPE   H9X16661   0.957   3.959   9.413 -2.3430  2.1455  1.0309
  150SAPE   H9Y16662   1.138   3.978   9.461 -0.3552 -0.4156 -0.0157
  150SAPE  C31016663   1.025   4.143   9.341  0.1647  0.3615  0.0888
  150SAPE  H10X16664   1.110   4.205   9.376  0.7704 -0.5396  0.2415
  150SAPE  H10Y16665   0.925   4.191   9.337  0.7202  1.4824 -1.8627
  150SAPE  C31116666   1.059   4.105   9.193 -0.3878  0.1000 -0.2672
  150SAPE  H11X16667   0.965   4.087   9.136  0.7938  1.5428 -2.8814
  150SAPE  H11Y16668   1.131   4.021   9.198 -0.0973  0.4102  1.7825
  150SAPE  C31216669   1.130   4.221   9.122 -0.3380 -0.1908  0.6989
  150SAPE  H12X16670   1.141   4.185   9.017 -1.9159 -1.3841  0.9066
  150SAPE  H12Y16671   1.231   4.256   9.153 -0.3878  0.9632 -0.3298
  150SAPE  C31316672   1.045   4.350   9.116  0.4062 -0.2182 -0.1471
  150SAPE  H13X16673   1.040   4.396   9.217 -1.3648  0.0592 -0.3166
  150SAPE  H13Y16674   0.942   4.340   9.074  0.0048 -0.0867  0.7805
  150SAPE  C31416675   1.112   4.447   9.018 -0.1611 -0.4054 -0.2131
  150SAPE  H14X16676   1.133   4.392   8.924 -0.1239  1.0680 -1.0994
  150SAPE  H14Y16677   1.204   4.474   9.073 -1.8604  4.9599  0.6116
  150SAPE  C31516678   1.038   4.574   8.991 -0.7611  0.0674 -0.5037
  150SAPE  H15X16679   0.950   4.548   8.928  0.4747 -1.4142 -1.7036
  150SAPE  H15Y16680   1.103   4.646   8.938 -1.1705 -0.1789 -1.3559
  150SAPE  C31616681   1.010   4.645   9.130 -0.6755 -0.1230 -0.1892
  150SAPE  H16X16682   1.108   4.637   9.182 -0.5032 -0.2659 -0.5338
  150SAPE  H16Y16683   0.935   4.591   9.191 -0.5742  0.1541  0.1856
  150SAPE  C31716684   0.980   4.794   9.111  0.5080 -0.1880  0.1125
  150SAPE  H17X16685   1.061   4.851   9.061  0.3751  1.9510  2.1644
  150SAPE  H17Y16686   0.974   4.835   9.214 -0.3978 -0.1533  0.0619
  150SAPE  C31816687   0.845   4.825   9.038  0.0468  0.0358 -0.7414
  150SAPE  H18X16688   0.829   4.763   8.947 -2.0866 -1.6159  0.6424
  150SAPE  H18Y16689   0.836   4.933   9.016  2.0935 -0.0408 -2.2817
  150SAPE  H18Z16690   0.757   4.800   9.101 -2.4565  3.5235 -2.5348
  151SAPE     N16691   4.099   2.065  10.587 -0.2661 -0.2473  0.5323
  151SAPE   HN116692   4.015   2.017  10.626 -0.6296 -0.0838 -0.0368
  151SAPE   HN216693   4.188   2.011  10.587 -0.1472 -0.0636 -0.0940
  151SAPE   HN316694   4.118   2.136  10.660  2.7645  0.1877 -0.5583
  151SAPE   C1216695   4.063   2.114  10.451  0.5482  0.1042 -0.5126
  151SAPE  H12A16696   4.136   2.192  10.420 -0.0886  1.1031  0.4103
  151SAPE  H12B16697   3.967   2.168  10.464  0.8119  1.3806 -3.0871
  151SAPE   C1116698   4.049   2.006  10.345 -0.2805 -0.1933  0.1807
  151SAPE  H11A16699   4.020   2.054  10.248  0.0649 -2.1520 -0.9465
  151SAPE  H11B16700   3.965   1.940  10.374 -0.7494  0.8630  1.3109
  151SAPE     P16701   4.280   1.955  10.245 -0.1923  0.3534 -0.1787
  151SAPE   O1316702   4.366   2.040  10.329  0.1720 -0.6858  0.0495
  151SAPE   O1416703   4.337   1.833  10.189  0.1867 -0.4275  0.1134
  151SAPE   O1216704   4.156   1.920  10.330 -0.7353 -0.6874 -0.0494
  151SAPE   O1116705   4.230   2.038  10.120  0.0185 -0.1799  0.0296
  151SAPE    C116706   4.186   1.982   9.996 -0.9900  1.1169  0.1470
  151SAPE    HA16707   4.267   1.922   9.948 -1.6522  0.3110  0.0307
  151SAPE    HB16708   4.108   1.905  10.010 -1.3199  1.6776  1.5567
  151SAPE    C216709   4.135   2.083   9.902  0.6160  0.0075 -0.2540
  151SAPE    HS16710   4.217   2.150   9.868  1.1093 -1.8012 -2.9171
  151SAPE   O2116711   4.025   2.142   9.969  0.3736 -0.0022 -0.2642
  151SAPE   C2116712   4.045   2.261  10.031 -0.6519  0.0746  0.3890
  151SAPE   O2216713   4.137   2.336  10.008 -0.3861 -0.0567  0.2701
  151SAPE   C2216714   3.922   2.298  10.111  0.7498  0.5081  0.7365
  151SAPE   H2R16715   3.836   2.255  10.055  0.7137  1.9303 -0.3657
  151SAPE   H2S16716   3.938   2.251  10.211  0.8175 -2.0556 -0.3903
  151SAPE    C316717   4.088   2.020   9.764 -0.5402 -0.6018  0.1078
  151SAPE    HX16718   4.030   2.090   9.699 -0.1414 -0.1026  0.2831
  151SAPE    HY16719   4.013   1.944   9.794 -1.7610 -0.2653 -1.8502
  151SAPE   O3116720   4.191   1.966   9.686 -0.0312 -1.0892 -0.1429
  151SAPE   C3116721   4.244   2.057   9.592  0.5258  0.0467 -0.4957
  151SAPE   O3216722   4.220   2.175   9.594  0.0710  0.2991 -0.4116
  151SAPE   C3216723   4.327   1.980   9.496 -0.0727  0.3228 -0.1482
  151SAPE   H2X16724   4.310   1.871   9.490  1.1119  0.1520 -0.6909
  151SAPE   H2Y16725   4.434   1.985   9.525 -0.3767  4.0769  0.8765
  151SAPE   C2316726   3.890   2.445  10.131  0.5987 -0.8532 -0.1947
  151SAPE   H3R16727   3.985   2.484  10.174  0.7178 -0.7093 -0.5765
  151SAPE   H3S16728   3.807   2.460  10.203 -1.4073  1.8827 -2.7622
  151SAPE   C2416729   3.852   2.523   9.997  0.0547 -0.5501 -0.1106
  151SAPE   H4R16730   3.946   2.534   9.938  0.1308 -0.4111  0.0365
  151SAPE   H4S16731   3.812   2.623  10.025 -1.2756 -1.2010  0.4214
  151SAPE   C2516732   3.750   2.462   9.908  0.1984 -0.2247 -0.6277
  151SAPE   H5R16733   3.651   2.469   9.956  0.5650  1.7174 -0.0684
  151SAPE   C2616734   3.760   2.406   9.785 -0.7007 -0.2838 -0.3906
  151SAPE   H6R16735   3.679   2.361   9.726 -1.3376 -0.7912  0.8291
  151SAPE   C2716736   3.890   2.405   9.715  0.0482 -0.0161 -0.2147
  151SAPE   H7R16737   3.882   2.323   9.641 -1.1334  0.2541 -0.3964
  151SAPE   H7S16738   3.975   2.376   9.781 -0.9779 -3.0262 -0.0687
  151SAPE   C2816739   3.928   2.536   9.643 -0.0424 -0.6817 -0.2694
  151SAPE   H8R16740   3.914   2.633   9.693 -0.7605 -1.2462  0.6538
  151SAPE   C2916741   3.996   2.546   9.527 -0.2250  0.3343  0.9128
  151SAPE   H9R16742   4.018   2.647   9.489  1.4648 -0.7516 -1.2138
  151SAPE  C21016743   4.051   2.431   9.440  0.2060  0.1361  0.3647
  151SAPE  H10R16744   3.972   2.411   9.365  0.4496  0.5503 -0.0095
  151SAPE  H10S16745   4.058   2.343   9.508 -1.3365  0.6136  1.2049
  151SAPE  C21116746   4.177   2.470   9.374 -0.4216  0.6949 -0.3663
  151SAPE  H11R16747   4.249   2.499   9.452 -1.3967  3.5320 -0.4040
  151SAPE  C21216748   4.210   2.466   9.242 -0.6458 -0.2808 -0.3792
  151SAPE  H12R16749   4.313   2.485   9.207 -0.5973  1.3116  0.5266
  151SAPE  C21316750   4.131   2.447   9.122 -0.0182 -0.4377  0.8015
  151SAPE  H13R16751   4.180   2.497   9.036  2.4661  0.5752  2.7072
  151SAPE  H13S16752   4.034   2.498   9.142  0.9885  1.2694  1.4497
  151SAPE  C21416753   4.125   2.300   9.098  0.8368  0.2624  0.6095
  151SAPE  H14R16754   4.136   2.233   9.184 -0.2981 -1.0171 -0.2009
  151SAPE  C21516755   4.117   2.247   8.971  0.2524 -0.5310  0.5220
  151SAPE  H15R16756   4.081   2.143   8.962 -1.6762  0.2927 -2.1379
  151SAPE  C21616757   4.100   2.320   8.839 -0.0264 -0.5623  0.1402
  151SAPE  H16R16758   4.196   2.334   8.785  0.4250 -1.1532  0.7649
  151SAPE  H16S16759   4.063   2.424   8.848  1.8397  0.4254 -2.4682
  151SAPE  C21716760   4.004   2.247   8.748  0.5241  0.1455  0.3953
  151SAPE  H17R16761   3.904   2.238   8.795  0.3176 -4.2147 -0.4217
  151SAPE  H17S16762   4.041   2.143   8.732  0.3646  0.5153 -3.1648
  151SAPE  C21816763   3.995   2.316   8.610  0.0642 -0.4637 -0.1775
  151SAPE  H18R16764   4.054   2.255   8.539  0.6793  0.4993 -0.5205
  151SAPE  H18S16765   4.027   2.422   8.594  1.3354 -1.2379 -3.8089
  151SAPE  C21916766   3.846   2.317   8.566 -0.9100 -1.1769  0.8789
  151SAPE  H19R16767   3.804   2.389   8.641 -1.6836 -0.4304 -0.2449
  151SAPE  H19S16768   3.797   2.219   8.585 -1.4340 -1.0796  0.0757
  151SAPE  C22016769   3.817   2.378   8.430  0.9065  0.0953 -0.1512
  151SAPE  H20R16770   3.847   2.485   8.431 -1.6873  0.9329  2.3565
  151SAPE  H20S16771   3.706   2.372   8.420  0.6543 -0.7804  2.3930
  151SAPE  H20T16772   3.860   2.320   8.346 -1.7965 -2.3671  0.0114
  151SAPE   C3316773   4.321   2.033   9.356 -0.0781  0.1162  0.2497
  151SAPE   H3X16774   4.341   2.142   9.354 -1.5377  0.4137  0.2595
  151SAPE   H3Y16775   4.218   2.029   9.313  0.1524  0.5435 -0.3623
  151SAPE   C3416776   4.412   1.950   9.271  1.2686 -0.6711 -0.8418
  151SAPE   H4X16777   4.395   1.840   9.278  1.9912 -0.6859  1.8694
  151SAPE   H4Y16778   4.512   1.966   9.317  0.2743 -0.3798  1.3616
  151SAPE   C3516779   4.419   1.982   9.123  0.1431  0.5772 -0.5236
  151SAPE   H5X16780   4.508   1.936   9.074  0.1133 -1.4836  1.2196
  151SAPE   H5Y16781   4.421   2.093   9.123  0.6967  0.5749 -0.7328
  151SAPE   C3616782   4.291   1.937   9.050  0.0542 -0.7325  0.1179
  151SAPE   H6X16783   4.288   2.014   8.970 -0.6953 -1.6615 -0.7929
  151SAPE   H6Y16784   4.204   1.955   9.118  0.7782 -2.9897  1.7801
  151SAPE   C3716785   4.298   1.804   8.988  0.7751 -0.3737  0.0291
  151SAPE   H7X16786   4.338   1.728   9.059 -0.4644 -1.7189 -0.6698
  151SAPE   H7Y16787   4.379   1.812   8.913  1.9746  2.5592  1.4638
  151SAPE   C3816788   4.167   1.742   8.917 -0.1439 -0.3292 -0.2421
  151SAPE   H8X16789   4.093   1.713   8.995  0.3860  2.1498  1.2867
  151SAPE   H8Y16790   4.200   1.657   8.853  0.3587 -0.3556  0.0462
  151SAPE   C3916791   4.103   1.845   8.819 -0.3563 -0.0217 -0.8480
  151SAPE   H9X16792   4.171   1.932   8.814 -0.3484  0.0894  0.7962
  151SAPE   H9Y16793   4.017   1.892   8.869 -0.4592 -1.1333  0.0637
  151SAPE  C31016794   4.066   1.782   8.684  1.5342 -0.5119  0.7815
  151SAPE  H10X16795   4.022   1.687   8.722  2.2311  0.1162  3.3417
  151SAPE  H10Y16796   4.149   1.762   8.612 -1.7281 -2.7777 -2.7534
  151SAPE  C31116797   3.955   1.873   8.616 -0.1762 -0.3359  0.0260
  151SAPE  H11X16798   3.986   1.980   8.607  1.0281 -0.7089 -0.3986
  151SAPE  H11Y16799   3.874   1.889   8.690  1.9601  1.7303  2.1100
  151SAPE  C31216800   3.895   1.832   8.479 -0.1969 -0.6265 -0.3137
  151SAPE  H12X16801   3.978   1.801   8.412  0.1471  1.4397 -0.9282
  151SAPE  H12Y16802   3.836   1.913   8.430 -2.7358 -1.3753  1.2863
  151SAPE  C31316803   3.802   1.712   8.495 -0.5955  0.0155 -0.6221
  151SAPE  H13X16804   3.723   1.731   8.571  0.2650  1.7985 -0.1288
  151SAPE  H13Y16805   3.870   1.628   8.520  0.7332  1.1907 -0.1927
  151SAPE  C31416806   3.734   1.679   8.365 -0.0670  0.5937 -0.2204
  151SAPE  H14X16807   3.811   1.677   8.285 -0.4673 -1.1675 -0.5954
  151SAPE  H14Y16808   3.672   1.766   8.335 -0.1372  0.4711 -0.4324
  151SAPE  C31516809   3.654   1.553   8.375  0.4803  0.1709 -0.4804
  151SAPE  H15X16810   3.727   1.478   8.414 -0.4768 -2.0890 -2.7584
  151SAPE  H15Y16811   3.625   1.502   8.281 -0.3797 -2.9025  1.2941
  151SAPE  C31616812   3.528   1.555   8.466 -0.3897  0.2139  0.5433
  151SAPE  H16X16813   3.450   1.623   8.425 -1.1306 -1.0036 -0.1298
  151SAPE  H16Y16814   3.541   1.593   8.570 -2.7415  1.4007  0.4829
  151SAPE  C31716815   3.460   1.414   8.481 -0.1067  0.0771  0.5332
  151SAPE  H17X16816   3.524   1.350   8.546  0.3813 -1.0996 -1.0727
  151SAPE  H17Y16817   3.462   1.370   8.380  0.1114  1.7660 -0.2330
  151SAPE  C31816818   3.325   1.423   8.539  0.6676  0.0578  0.2417
  151SAPE  H18X16819   3.285   1.326   8.575  1.1001  0.3617  1.6003
  151SAPE  H18Y16820   3.257   1.480   8.471  2.8728  2.1060 -0.3886
  151SAPE  H18Z16821   3.334   1.499   8.620  1.0142  0.7108 -0.3941
  152SAPE     N16822   6.653   0.725  10.762 -0.3631 -0.2182 -0.1394
  152SAPE   HN116823   6.658   0.639  10.819  0.3986 -1.0259 -1.3747
  152SAPE   HN216824   6.568   0.733  10.702  0.0053  0.7289 -0.5671
  152SAPE   HN316825   6.738   0.737  10.703 -0.5218  0.6327 -0.2122
  152SAPE   C1216826   6.653   0.847  10.851  0.4104  0.3254 -0.1341
  152SAPE  H12A16827   6.749   0.864  10.903  0.6298  2.0483 -1.0344
  152SAPE  H12B16828   6.582   0.824  10.933 -0.1303 -0.3277 -0.7604
  152SAPE   C1116829   6.616   0.978  10.774  0.4547 -0.6245  0.3016
  152SAPE  H11A16830   6.713   1.015  10.735  0.9084 -0.5351  1.4620
  152SAPE  H11B16831   6.590   1.043  10.860 -1.2357 -1.5129  0.5239
  152SAPE     P16832   6.444   1.085  10.614  0.2904  0.5999 -0.0101
  152SAPE   O1316833   6.303   1.061  10.651 -0.5791  0.7295  0.3987
  152SAPE   O1416834   6.506   1.208  10.657 -0.9255 -0.3785 -0.3878
  152SAPE   O1216835   6.517   0.953  10.674  0.0196 -0.0182  0.1686
  152SAPE   O1116836   6.462   1.067  10.462 -0.0775  0.3704  0.1488
  152SAPE    C116837   6.487   0.945  10.397  0.1734  0.1770  0.0411
  152SAPE    HA16838   6.482   0.860  10.469  1.4450 -0.8449 -1.0025
  152SAPE    HB16839   6.428   0.922  10.306  0.9243 -0.2076 -0.3607
  152SAPE    C216840   6.639   0.950  10.348  0.2087 -0.8110 -0.1168
  152SAPE    HS16841   6.708   0.991  10.424 -0.2156  0.2931 -0.3183
  152SAPE   O2116842   6.644   1.039  10.234  0.3338 -0.3418  0.3571
  152SAPE   C2116843   6.759   1.092  10.197 -0.5236  0.5211 -0.1961
  152SAPE   O2216844   6.868   1.074  10.251  0.4417 -0.9546 -0.1943
  152SAPE   C2216845   6.747   1.184  10.075  0.2527  0.5776 -0.2173
  152SAPE   H2R16846   6.641   1.207  10.049  0.4685 -1.0175 -2.9092
  152SAPE   H2S16847   6.795   1.282  10.098  0.1984  0.1414  2.0027
  152SAPE    C316848   6.681   0.811  10.303 -0.0164  0.3906 -0.3015
  152SAPE    HX16849   6.675   0.736  10.385 -2.0128 -0.3185 -1.0148
  152SAPE    HY16850   6.782   0.823  10.260 -0.6608  1.0538 -1.6904
  152SAPE   O3116851   6.587   0.753  10.205  1.0906 -0.4196 -0.5146
  152SAPE   C3116852   6.640   0.673  10.112  0.0157 -0.6978 -0.1264
  152SAPE   O3216853   6.759   0.652  10.100 -1.1052 -0.1929  0.4693
  152SAPE   C3216854   6.539   0.649  10.003 -0.2645  1.1765  0.6084
  152SAPE   H2X16855   6.602   0.640   9.912 -1.3850 -2.5060  0.0402
  152SAPE   H2Y16856   6.478   0.742   9.993 -0.5444  1.0156  0.8010
  152SAPE   C2316857   6.814   1.142   9.943  0.5146 -0.6617 -0.6023
  152SAPE   H3R16858   6.925   1.148   9.953  0.5710 -1.1328 -0.9350
  152SAPE   H3S16859   6.788   1.222   9.870 -0.6608 -0.2905  0.2013
  152SAPE   C2416860   6.776   1.005   9.890 -1.1120 -0.1513  0.3592
  152SAPE   H4R16861   6.764   0.938   9.977  1.0329 -0.0345  0.7868
  152SAPE   H4S16862   6.863   0.963   9.835 -0.2287 -1.9202  2.9430
  152SAPE   C2516863   6.641   0.998   9.832  0.8892 -0.4358  0.4217
  152SAPE   H5R16864   6.566   1.053   9.891  1.5608  1.1201 -0.1242
  152SAPE   C2616865   6.608   0.932   9.718 -0.2794 -0.3833  0.6735
  152SAPE   H6R16866   6.504   0.915   9.686  0.1145  0.3808 -1.1622
  152SAPE   C2716867   6.704   0.858   9.621 -0.0810 -0.4447  0.1496
  152SAPE   H7R16868   6.784   0.921   9.577 -2.2547  2.9599  0.7400
  152SAPE   H7S16869   6.658   0.825   9.525  0.8120 -1.1186 -0.0670
  152SAPE   C2816870   6.771   0.734   9.678 -0.1762  0.1793 -0.4704
  152SAPE   H8R16871   6.815   0.755   9.776 -1.3483 -0.2850  0.1717
  152SAPE   C2916872   6.783   0.616   9.616  0.0037 -0.0087  0.4372
  152SAPE   H9R16873   6.822   0.530   9.671 -0.4742  0.4941  1.6010
  152SAPE  C21016874   6.744   0.585   9.472  0.1077 -0.2317  0.1919
  152SAPE  H10R16875   6.634   0.593   9.461  0.0110 -0.5444  0.8533
  152SAPE  H10S16876   6.762   0.476   9.461  0.0558 -0.0246 -2.3773
  152SAPE  C21116877   6.831   0.656   9.371 -0.1212 -0.6108 -0.2895
  152SAPE  H11R16878   6.916   0.707   9.419  1.1666 -2.2847 -0.6642
  152SAPE  C21216879   6.809   0.666   9.238 -0.5850 -0.1901  0.3723
  152SAPE  H12R16880   6.883   0.725   9.182 -0.0294  0.9715  2.2153
  152SAPE  C21316881   6.696   0.600   9.169 -0.2423 -0.0493  0.2885
  152SAPE  H13R16882   6.631   0.549   9.242 -1.9871  4.1621  2.0156
  152SAPE  H13S16883   6.734   0.524   9.098 -1.6109  0.5730 -1.1694
  152SAPE  C21416884   6.616   0.694   9.081  1.0492 -0.7248  0.3641
  152SAPE  H14R16885   6.607   0.794   9.124 -2.1199  0.1656 -1.9436
  152SAPE  C21516886   6.583   0.677   8.952 -0.5721 -0.3318 -0.5208
  152SAPE  H15R16887   6.525   0.758   8.905 -0.3381 -1.5967 -3.1755
  152SAPE  C21616888   6.611   0.552   8.865  0.2987 -0.0424  0.0839
  152SAPE  H16R16889   6.530   0.478   8.882 -0.2609  0.1782 -1.3946
  152SAPE  H16S16890   6.700   0.500   8.905 -0.8174 -1.7786  0.4369
  152SAPE  C21716891   6.632   0.567   8.711 -0.3356 -1.1824  0.4240
  152SAPE  H17R16892   6.539   0.617   8.674 -0.5570  0.3423  2.8023
  152SAPE  H17S16893   6.649   0.468   8.664  2.1173  1.0592 -3.9858
  152SAPE  C21816894   6.754   0.659   8.680  0.3272 -0.0994  0.8901
  152SAPE  H18R16895   6.760   0.748   8.747  0.3704  0.5854  0.0025
  152SAPE  H18S16896   6.731   0.699   8.579 -0.9422  3.1695  2.3361
  152SAPE  C21916897   6.889   0.582   8.682  0.5367 -0.3231 -0.1121
  152SAPE  H19R16898   6.870   0.486   8.629 -1.2160  0.3613 -0.7773
  152SAPE  H19S16899   6.908   0.569   8.791 -5.8051 -0.9507  1.3368
  152SAPE  C22016900   7.000   0.648   8.593 -0.0519  0.9036  0.2096
  152SAPE  H20R16901   6.964   0.660   8.488  0.2416 -1.8363 -0.2629
  152SAPE  H20S16902   7.074   0.568   8.575  0.1810  1.1408  0.1139
  152SAPE  H20T16903   7.038   0.745   8.632  2.8954 -0.6539  1.5534
  152SAPE   C3316904   6.455   0.523  10.011  0.5916 -0.2971 -0.1362
  152SAPE   H3X16905   6.366   0.546  10.073  0.7196  0.8375 -0.3502
  152SAPE   H3Y16906   6.511   0.444  10.066 -0.0695 -0.3329  0.4979
  152SAPE   C3416907   6.419   0.463   9.875  0.1633  0.4356  0.7233
  152SAPE   H4X16908   6.327   0.403   9.891  0.3061  0.0057 -0.0107
  152SAPE   H4Y16909   6.492   0.391   9.831  0.8801  2.5648 -1.8574
  152SAPE   C3516910   6.386   0.574   9.771  0.3080  0.2083  0.1370
  152SAPE   H5X16911   6.481   0.622   9.740  1.2376 -1.3245  0.5279
  152SAPE   H5Y16912   6.326   0.657   9.814 -0.5459  1.0550 -2.4932
  152SAPE   C3616913   6.310   0.524   9.645  0.4301  0.2193  0.2825
  152SAPE   H6X16914   6.213   0.482   9.677  1.0555 -0.3079  1.5447
  152SAPE   H6Y16915   6.374   0.440   9.609  2.5582  2.7212 -2.3249
  152SAPE   C3716916   6.302   0.620   9.530  0.2089  0.0506  0.2700
  152SAPE   H7X16917   6.395   0.682   9.530  0.8031 -0.8205  0.1279
  152SAPE   H7Y16918   6.215   0.685   9.554  0.3142 -0.4226  2.0685
  152SAPE   C3816919   6.277   0.554   9.389  0.3292 -0.1551 -0.0444
  152SAPE   H8X16920   6.177   0.506   9.400  0.3772 -0.5224 -1.1205
  152SAPE   H8Y16921   6.349   0.475   9.356  0.8041  0.0309  0.5357
  152SAPE   C3916922   6.264   0.652   9.274  0.1839 -0.2694  0.3766
  152SAPE   H9X16923   6.357   0.713   9.263 -0.5856  0.9136  0.2939
  152SAPE   H9Y16924   6.189   0.730   9.299 -0.1652 -0.0689 -1.2071
  152SAPE  C31016925   6.216   0.595   9.146 -0.0290  0.4088  0.3413
  152SAPE  H10X16926   6.121   0.541   9.162  0.8597 -1.6785 -0.9184
  152SAPE  H10Y16927   6.285   0.512   9.119  0.0824  0.1332  1.4322
  152SAPE  C31116928   6.191   0.697   9.036  0.7854  0.1131  0.0982
  152SAPE  H11X16929   6.277   0.767   9.033  1.3802 -0.6174 -0.0886
  152SAPE  H11Y16930   6.117   0.771   9.073  0.8650  0.5929 -0.6838
  152SAPE  C31216931   6.166   0.648   8.895  0.2542  0.3701  0.4491
  152SAPE  H12X16932   6.066   0.601   8.882  0.7141 -0.2861 -0.9565
  152SAPE  H12Y16933   6.241   0.569   8.872  0.8649  1.2232 -0.5618
  152SAPE  C31316934   6.184   0.765   8.796  0.2482  0.8206  0.2879
  152SAPE  H13X16935   6.202   0.714   8.699 -1.1638  0.6521  0.0969
  152SAPE  H13Y16936   6.258   0.842   8.826 -0.7316  1.6619  0.6256
  152SAPE  C31416937   6.054   0.855   8.793  0.8701 -0.0583  0.2461
  152SAPE  H14X16938   6.026   0.900   8.891  0.7519  1.8608 -0.6295
  152SAPE  H14Y16939   5.965   0.794   8.769  0.6788  0.6234 -0.8339
  152SAPE  C31516940   6.078   0.966   8.698 -0.8857 -0.3530 -0.1456
  152SAPE  H15X16941   6.079   0.932   8.592 -0.1889  0.1975 -0.3236
  152SAPE  H15Y16942   6.179   1.007   8.717 -0.9486 -0.0104 -0.5202
  152SAPE  C31616943   5.992   1.088   8.717  0.2390 -0.4320 -0.1446
  152SAPE  H16X16944   6.026   1.172   8.651  0.6480 -1.7108 -1.6232
  152SAPE  H16Y16945   5.985   1.118   8.823  0.8090 -0.2540 -0.1538
  152SAPE  C31716946   5.846   1.053   8.676 -0.1966 -0.1528 -0.6736
  152SAPE  H17X16947   5.802   0.992   8.758 -1.2790  1.1416 -0.2485
  152SAPE  H17Y16948   5.853   1.004   8.577  0.1425 -1.4277 -0.0384
  152SAPE  C31816949   5.753   1.171   8.671 -0.0043 -0.4317 -0.3290
  152SAPE  H18X16950   5.743   1.219   8.771  0.3202  0.5760 -0.7697
  152SAPE  H18Y16951   5.647   1.144   8.650  0.6975 -3.0938 -0.7084
  152SAPE  H18Z16952   5.780   1.245   8.593  1.1209 -1.8924 -1.3725
  153SAPE     N16953   5.989   0.487  10.939  0.1377  0.0127  0.3675
  153SAPE   HN116954   6.064   0.508  11.008  1.7299 -0.3958 -1.1661
  153SAPE   HN216955   6.014   0.398  10.891 -2.2855 -2.8489  3.8703
  153SAPE   HN316956   6.005   0.562  10.868  1.0168 -0.1016  0.4222
  153SAPE   C1216957   5.845   0.485  10.992  0.0638 -0.0138  0.7285
  153SAPE  H12A16958   5.801   0.586  10.997 -0.7215 -0.3766  1.4526
  153SAPE  H12B16959   5.844   0.445  11.096  1.0843  0.6079  0.9920
  153SAPE   C1116960   5.745   0.406  10.901  0.6345 -0.3584 -0.9086
  153SAPE  H11A16961   5.738   0.467  10.808 -2.0737  1.5052  0.3848
  153SAPE  H11B16962   5.641   0.414  10.940 -0.0566  0.2672 -2.7768
  153SAPE     P16963   5.818   0.231  10.723  0.1795 -0.2623  0.1343
  153SAPE   O1316964   5.870   0.093  10.729  0.0395  0.2896 -0.0367
  153SAPE   O1416965   5.703   0.253  10.633  0.2621  0.0183 -0.4780
  153SAPE   O1216966   5.785   0.276  10.875 -0.0846 -0.2127  0.0903
  153SAPE   O1116967   5.939   0.329  10.686  0.4707  0.4085  0.6519
  153SAPE    C116968   5.915   0.408  10.570  0.5476 -0.0736  0.2438
  153SAPE    HA16969   5.885   0.344  10.483 -1.2847  0.8185  0.1618
  153SAPE    HB16970   5.827   0.474  10.587  0.7109  0.1954  0.0423
  153SAPE    C216971   6.038   0.481  10.523 -0.3355 -0.1830  0.0877
  153SAPE    HS16972   6.052   0.557  10.603  0.4543  0.2594 -0.4633
  153SAPE   O2116973   6.010   0.543  10.399  0.0734  0.6566 -0.6665
  153SAPE   C2116974   6.103   0.631  10.370 -0.5364 -0.1459 -0.4878
  153SAPE   O2216975   6.181   0.676  10.453 -0.6169 -0.0325  0.1387
  153SAPE   C2216976   6.082   0.685  10.230 -0.7613  0.7388  0.2674
  153SAPE   H2R16977   6.070   0.589  10.175  1.1918 -1.2505  3.0510
  153SAPE   H2S16978   5.985   0.739  10.232 -0.3097  1.7235 -1.8918
  153SAPE    C316979   6.165   0.395  10.524 -0.0077 -0.8903 -0.5642
  153SAPE    HX16980   6.185   0.351  10.624  1.3444  3.0444  1.1071
  153SAPE    HY16981   6.252   0.460  10.502 -0.8045  0.9392  1.3006
  153SAPE   O3116982   6.156   0.285  10.432  0.9068  0.2283  0.8159
  153SAPE   C3116983   6.228   0.287  10.315 -0.6752 -0.0497 -0.3396
  153SAPE   O3216984   6.300   0.379  10.281 -0.1729  0.4583 -0.0359
  153SAPE   C3216985   6.203   0.157  10.253 -0.1326  0.5578  0.4889
  153SAPE   H2X16986   6.099   0.167  10.215 -0.0159 -0.4460 -0.1372
  153SAPE   H2Y16987   6.199   0.073  10.325 -0.4190  0.1127 -0.0440
  153SAPE   C2316988   6.197   0.769  10.171 -0.0306  0.3656  0.0320
  153SAPE   H3R16989   6.299   0.725  10.173 -0.1529  0.0182 -0.9844
  153SAPE   H3S16990   6.193   0.865  10.227 -3.1248 -0.7047  1.8721
  153SAPE   C2416991   6.182   0.802  10.020  0.3992 -0.5067  0.3661
  153SAPE   H4R16992   6.168   0.705   9.966 -0.6804  0.0875 -0.4765
  153SAPE   H4S16993   6.271   0.855   9.981  0.8468 -1.3296  0.2437
  153SAPE   C2516994   6.065   0.883   9.987 -0.4351 -0.0786 -0.6106
  153SAPE   H5R16995   5.967   0.836  10.001 -0.3054 -0.2331 -0.2065
  153SAPE   C2616996   6.063   1.009   9.935 -0.1304 -1.2404 -0.7400
  153SAPE   H6R16997   5.962   1.049   9.916  0.5053  0.7801 -0.1194
  153SAPE   C2716998   6.168   1.113   9.908 -0.2925 -0.0609  0.0596
  153SAPE   H7R16999   6.139   1.211   9.863 -0.0540  1.0929  2.2495
  153SAPE   H7S17000   6.225   1.050   9.837  0.2448 -1.1459  1.3943
  153SAPE   C2817001   6.263   1.144  10.024 -0.1218 -0.1214  0.6080
  153SAPE   H8R17002   6.271   1.080  10.114  1.0702  0.7700  1.1621
  153SAPE   C2917003   6.355   1.245  10.033 -0.4227  0.6185  0.1047
  153SAPE   H9R17004   6.427   1.245  10.116  0.3162 -0.2113 -0.5171
  153SAPE  C21017005   6.370   1.334   9.915 -0.6200 -0.0746 -0.2422
  153SAPE  H10R17006   6.274   1.369   9.872  0.9175  4.2833 -0.6725
  153SAPE  H10S17007   6.414   1.269   9.837 -1.7859 -0.7033 -0.3912
  153SAPE  C21117008   6.474   1.443   9.935  0.1750 -0.0575 -0.1165
  153SAPE  H11R17009   6.441   1.513  10.013  0.9073  0.5288 -0.3084
  153SAPE  C21217010   6.583   1.481   9.868 -0.4598 -0.2456 -0.5050
  153SAPE  H12R17011   6.640   1.568   9.903 -0.6302 -0.4071  0.1842
  153SAPE  C21317012   6.632   1.428   9.737  0.2755  0.9775 -0.0406
  153SAPE  H13R17013   6.542   1.436   9.672 -1.1917  1.1909  1.8973
  153SAPE  H13S17014   6.653   1.320   9.745 -0.3830  0.8914  0.7068
  153SAPE  C21417015   6.752   1.504   9.685  0.4526 -1.3099  0.4067
  153SAPE  H14R17016   6.809   1.567   9.755 -0.0565  0.8495 -1.0257
  153SAPE  C21517017   6.783   1.520   9.555  0.6135  0.0175  0.0333
  153SAPE  H15R17018   6.875   1.572   9.524  0.0630  1.2391  0.3903
  153SAPE  C21617019   6.705   1.466   9.437  0.0064  0.0410  0.0189
  153SAPE  H16R17020   6.619   1.535   9.424 -1.1634 -0.8934  2.2368
  153SAPE  H16S17021   6.672   1.361   9.453 -0.8936  0.0656 -1.4109
  153SAPE  C21717022   6.769   1.454   9.296  0.1087 -0.2716 -0.1910
  153SAPE  H17R17023   6.694   1.405   9.231  0.9983  1.6172 -2.8287
  153SAPE  H17S17024   6.855   1.384   9.293  1.5178  1.3499  0.5607
  153SAPE  C21817025   6.812   1.590   9.237 -0.1604 -1.1401 -0.6078
  153SAPE  H18R17026   6.858   1.652   9.317  0.1584  1.1041 -2.4190
  153SAPE  H18S17027   6.721   1.645   9.203 -0.7640 -0.9426  1.2293
  153SAPE  C21917028   6.891   1.586   9.109 -0.6861  0.4984  1.3802
  153SAPE  H19R17029   6.839   1.516   9.041  3.9819  0.4692 -2.6703
  153SAPE  H19S17030   6.990   1.540   9.130 -0.5530  0.7004  1.1889
  153SAPE  C22017031   6.924   1.718   9.034  0.5366 -0.3868 -0.2380
  153SAPE  H20R17032   7.009   1.776   9.076 -0.6189 -0.6731  2.7551
  153SAPE  H20S17033   6.841   1.790   9.049  0.3224 -0.4309 -1.1484
  153SAPE  H20T17034   6.946   1.688   8.929  3.4279  1.4010 -0.2455
  153SAPE   C3317035   6.286   0.131  10.121 -0.5020  0.2366  0.1422
  153SAPE   H3X17036   6.385   0.089  10.150  0.1558 -0.1859 -2.4978
  153SAPE   H3Y17037   6.320   0.230  10.085 -2.9201  0.9609 -0.3257
  153SAPE   C3417038   6.229   0.047  10.009 -0.0176 -0.2524 -0.4385
  153SAPE   H4X17039   6.121   0.022  10.025  0.4284 -2.0734 -0.0574
  153SAPE   H4Y17040   6.283  -0.050  10.012  1.6855  0.6891  1.0097
  153SAPE   C3517041   6.239   0.124   9.872  0.9071 -0.5950 -0.3698
  153SAPE   H5X17042   6.344   0.157   9.855  0.4056  2.1380  1.3042
  153SAPE   H5Y17043   6.170   0.211   9.880 -0.2285 -1.3481 -1.5702
  153SAPE   C3617044   6.215   0.024   9.760  0.2160  0.3258  0.0622
  153SAPE   H6X17045   6.112  -0.018   9.760 -0.2301  1.3305  1.4306
  153SAPE   H6Y17046   6.276  -0.065   9.786 -1.0245 -1.0116 -1.3578
  153SAPE   C3717047   6.261   0.079   9.624 -0.1801 -0.4330 -0.0173
  153SAPE   H7X17048   6.367   0.108   9.641 -0.3208  1.0505 -1.3405
  153SAPE   H7Y17049   6.199   0.169   9.603  0.6308  0.0744 -0.3010
  153SAPE   C3817050   6.248  -0.018   9.512 -1.0898  0.2776  0.6878
  153SAPE   H8X17051   6.151  -0.072   9.510 -0.7441 -0.3977 -1.9126
  153SAPE   H8Y17052   6.318  -0.104   9.520 -4.2386 -2.8701 -2.2693
  153SAPE   C3917053   6.261   0.057   9.378 -0.1919 -0.6689 -0.1812
  153SAPE   H9X17054   6.365   0.092   9.359  0.4286 -2.2622  0.1556
  153SAPE   H9Y17055   6.203   0.152   9.377  0.7413 -0.0908 -0.5287
  153SAPE  C31017056   6.218  -0.008   9.252  0.2451 -0.5465  0.6165
  153SAPE  H10X17057   6.109  -0.026   9.235  0.3628  0.5139 -1.6061
  153SAPE  H10Y17058   6.270  -0.106   9.247 -1.1550 -1.3193  0.4348
  153SAPE  C31117059   6.258   0.073   9.129 -0.2465 -0.5380  0.8809
  153SAPE  H11X17060   6.367   0.091   9.135 -0.2766 -0.7125  2.4398
  153SAPE  H11Y17061   6.210   0.173   9.130 -1.6438 -1.1808  1.6778
  153SAPE  C31217062   6.225   0.002   8.989 -0.1453 -0.1174 -0.0645
  153SAPE  H12X17063   6.216   0.094   8.927  0.4744  0.3601  0.5355
  153SAPE  H12Y17064   6.125  -0.045   8.992 -0.1225 -0.1581  0.0516
  153SAPE  C31317065   6.328  -0.090   8.936  0.2296  1.1876  0.6859
  153SAPE  H13X17066   6.330  -0.187   8.991  2.8272  0.7620 -0.0152
  153SAPE  H13Y17067   6.431  -0.050   8.939  0.8362  0.3784 -3.1734
  153SAPE  C31417068   6.303  -0.120   8.789 -0.4276  0.4951 -0.1557
  153SAPE  H14X17069   6.391  -0.175   8.750 -1.4350 -0.9621 -0.4267
  153SAPE  H14Y17070   6.308  -0.022   8.738  2.9167  0.6135  0.1674
  153SAPE  C31517071   6.175  -0.204   8.763 -0.0115  0.6016 -0.9493
  153SAPE  H15X17072   6.089  -0.167   8.823 -0.0059 -0.0837 -0.5047
  153SAPE  H15Y17073   6.171  -0.310   8.796 -1.1333  0.3252 -1.9026
  153SAPE  C31617074   6.148  -0.218   8.612  0.7377 -0.4361  0.2116
  153SAPE  H16X17075   6.238  -0.261   8.564  1.1675  0.1080  0.5084
  153SAPE  H16Y17076   6.121  -0.114   8.581 -2.0335 -1.1060  0.0456
  153SAPE  C31717077   6.023  -0.295   8.571 -0.8616  0.3019 -0.3162
  153SAPE  H17X17078   6.027  -0.400   8.607 -1.2364  1.1962  2.5995
  153SAPE  H17Y17079   6.034  -0.298   8.461  2.3774  0.4758 -0.0973
  153SAPE  C31817080   5.885  -0.232   8.603  0.1695 -0.2057 -0.4573
  153SAPE  H18X17081   5.863  -0.141   8.544 -0.0632 -0.0462 -0.1266
  153SAPE  H18Y17082   5.871  -0.204   8.710  0.1278 -3.0159  0.3675
  153SAPE  H18Z17083   5.806  -0.308   8.583 -0.4684  0.1794  0.5440
  154SAPE     N17084   6.178   2.704  10.838 -0.0715  0.0906  0.3038
  154SAPE   HN117085   6.139   2.739  10.928  0.3848 -1.7274  1.2546
  154SAPE   HN217086   6.241   2.623  10.856 -1.5872 -1.3327 -0.5126
  154SAPE   HN317087   6.237   2.783  10.804  2.1689 -0.7686  1.9439
  154SAPE   C1217088   6.077   2.661  10.734 -1.0741 -0.1577  0.2608
  154SAPE  H12A17089   6.007   2.591  10.784 -0.9557  0.8716  1.9531
  154SAPE  H12B17090   6.129   2.609  10.651 -1.4809  2.6603 -1.9066
  154SAPE   C1117091   6.009   2.789  10.675 -0.0268 -0.5518  0.1086
  154SAPE  H11A17092   5.959   2.773  10.577 -1.9195  0.8775  0.7883
  154SAPE  H11B17093   6.083   2.868  10.651  1.2940 -1.1899  1.8238
  154SAPE     P17094   5.761   2.827  10.753  0.0865 -0.2184 -0.2185
  154SAPE   O1317095   5.693   2.831  10.883  0.0103  0.2720 -0.4410
  154SAPE   O1417096   5.719   2.925  10.654  0.7519  0.2491 -0.5312
  154SAPE   O1217097   5.917   2.849  10.767 -0.0774 -0.1467  0.3013
  154SAPE   O1117098   5.757   2.687  10.694 -0.0102  0.6950  0.1140
  154SAPE    C117099   5.639   2.607  10.677  0.0903  0.7670 -0.8604
  154SAPE    HA17100   5.648   2.508  10.727 -2.8902  0.1155 -1.4498
  154SAPE    HB17101   5.551   2.654  10.725 -0.1349 -0.2017 -0.2894
  154SAPE    C217102   5.612   2.594  10.528  0.3332  0.3535 -0.6743
  154SAPE    HS17103   5.541   2.512  10.508  1.3874 -1.3716  2.1617
  154SAPE   O2117104   5.729   2.567  10.456 -0.3158 -0.0441 -0.0165
  154SAPE   C2117105   5.786   2.453  10.478  0.3142  0.0988 -0.1147
  154SAPE   O2217106   5.731   2.353  10.527 -0.2236  0.2128  0.2317
  154SAPE   C2217107   5.935   2.461  10.434 -0.3217  0.3510 -0.4222
  154SAPE   H2R17108   5.989   2.502  10.521 -2.6936 -0.2122  1.4363
  154SAPE   H2S17109   5.957   2.352  10.434  2.0434  0.7668  0.7024
  154SAPE    C317110   5.544   2.720  10.469  0.6019 -0.0380  0.3330
  154SAPE    HX17111   5.623   2.797  10.482  0.6199  0.1577 -0.8580
  154SAPE    HY17112   5.456   2.754  10.528 -0.3695 -0.6547 -0.7188
  154SAPE   O3117113   5.497   2.693  10.331  0.5441  0.2287  0.5886
  154SAPE   C3117114   5.569   2.744  10.239  0.2439 -0.1738 -0.2717
  154SAPE   O3217115   5.663   2.822  10.257  0.1951  0.0698 -0.0892
  154SAPE   C3217116   5.526   2.695  10.109 -0.2020  0.6746  0.2024
  154SAPE   H2X17117   5.430   2.746  10.085 -0.7622 -0.7643 -0.7494
  154SAPE   H2Y17118   5.519   2.584  10.107  1.8010  0.4787  1.3413
  154SAPE   C2317119   5.949   2.529  10.303 -0.0052 -0.2385 -0.6595
  154SAPE   H3R17120   5.935   2.636  10.331  3.3357 -0.3553  2.1409
  154SAPE   H3S17121   5.872   2.487  10.235 -1.7047  0.0827  0.9811
  154SAPE   C2417122   6.089   2.518  10.244  0.4450 -0.0042  0.4260
  154SAPE   H4R17123   6.105   2.422  10.190 -1.1448 -0.4995  0.7912
  154SAPE   H4S17124   6.173   2.518  10.316  1.6053 -0.3676 -0.8749
  154SAPE   C2517125   6.115   2.634  10.153  0.2387  0.0509 -0.4725
  154SAPE   H5R17126   6.120   2.735  10.194 -1.0205  1.1359 -2.7987
  154SAPE   C2617127   6.118   2.620  10.017  1.0071  0.0091  0.3579
  154SAPE   H6R17128   6.151   2.710   9.963 -0.3612  0.9027  0.9616
  154SAPE   C2717129   6.104   2.503   9.916  0.5048  0.3902 -0.2610
  154SAPE   H7R17130   6.022   2.518   9.842 -1.3531  0.5439  1.7110
  154SAPE   H7S17131   6.053   2.416   9.965 -2.0920  1.7046 -0.4334
  154SAPE   C2817132   6.238   2.478   9.856 -0.4826 -0.3293  1.0102
  154SAPE   H8R17133   6.311   2.414   9.907  0.7238 -1.7706 -2.2243
  154SAPE   C2917134   6.293   2.505   9.735 -0.1314  0.1413  1.5120
  154SAPE   H9R17135   6.402   2.506   9.718 -0.1486 -1.1663  1.2698
  154SAPE  C21017136   6.200   2.563   9.626  0.8010  0.2022 -0.4336
  154SAPE  H10R17137   6.254   2.638   9.564  0.5412 -0.1399 -1.0860
  154SAPE  H10S17138   6.113   2.619   9.667  1.1133 -0.6128  1.4489
  154SAPE  C21117139   6.138   2.451   9.542 -0.0125  0.2736  0.3065
  154SAPE  H11R17140   6.163   2.350   9.579 -5.2885 -1.3525  0.3036
  154SAPE  C21217141   6.065   2.450   9.430 -0.6579  0.2306  0.4828
  154SAPE  H12R17142   6.050   2.357   9.374  0.2880 -1.2316  2.5579
  154SAPE  C21317143   6.037   2.572   9.344  0.3669 -0.1823 -0.0030
  154SAPE  H13R17144   6.046   2.661   9.409  1.1127 -0.1188 -0.1809
  154SAPE  H13S17145   5.928   2.570   9.319  0.9276  0.9905 -3.0454
  154SAPE  C21417146   6.112   2.577   9.216  0.4309  0.7029 -0.2152
  154SAPE  H14R17147   6.196   2.647   9.206  0.2722  1.0782  0.9717
  154SAPE  C21517148   6.069   2.504   9.106 -0.3224 -0.3269  0.4879
  154SAPE  H15R17149   6.129   2.513   9.014 -0.7865 -0.9768  0.1102
  154SAPE  C21617150   5.945   2.415   9.097  0.0083  0.4418  0.3169
  154SAPE  H16R17151   5.870   2.477   9.043  0.1186  0.4111  0.1277
  154SAPE  H16S17152   5.905   2.395   9.198  0.9939 -1.8740  0.3270
  154SAPE  C21717153   5.976   2.269   9.050 -0.5512 -0.1088  0.1701
  154SAPE  H17R17154   5.924   2.197   9.117 -0.8808 -0.5096 -0.4985
  154SAPE  H17S17155   6.083   2.252   9.073 -0.2475 -0.3854 -1.3464
  154SAPE  C21817156   5.967   2.248   8.897  0.2960  0.6012  0.4353
  154SAPE  H18R17157   6.013   2.332   8.840 -3.5333  1.4183 -1.8050
  154SAPE  H18S17158   5.858   2.268   8.887 -0.1967 -0.6001  2.7341
  154SAPE  C21917159   6.012   2.114   8.832  0.4267  0.0861 -0.2728
  154SAPE  H19R17160   6.119   2.110   8.801  1.0488  3.1872  1.0789
  154SAPE  H19S17161   5.966   2.124   8.731 -1.2640 -1.3097  0.3190
  154SAPE  C22017162   5.960   1.988   8.889  0.2627  0.6401  0.1137
  154SAPE  H20R17163   5.962   1.918   8.803  0.5075  1.7954 -0.8543
  154SAPE  H20S17164   5.859   1.990   8.934 -0.3025 -1.7464 -0.8815
  154SAPE  H20T17165   6.020   1.928   8.961  0.3379  0.0380 -0.4426
  154SAPE   C3317166   5.619   2.730   9.991 -0.4689  0.0891 -0.0537
  154SAPE   H3X17167   5.707   2.662   9.986  0.1283  0.6396  1.9486
  154SAPE   H3Y17168   5.651   2.835  10.003  0.3004 -0.1021 -0.4087
  154SAPE   C3417169   5.545   2.734   9.863  1.0917  0.3307 -0.0701
  154SAPE   H4X17170   5.465   2.810   9.871  1.1178  0.7288 -2.6152
  154SAPE   H4Y17171   5.505   2.632   9.847 -0.6785  0.4506  2.8894
  154SAPE   C3517172   5.643   2.755   9.740  0.1345  0.0767 -1.0706
  154SAPE   H5X17173   5.736   2.700   9.763  0.2123  1.0186  1.0761
  154SAPE   H5Y17174   5.672   2.862   9.735 -1.5928  0.6524  0.2163
  154SAPE   C3617175   5.576   2.712   9.607  1.5589 -0.1814  0.3334
  154SAPE   H6X17176   5.493   2.785   9.594  1.9068 -0.1932 -2.7610
  154SAPE   H6Y17177   5.529   2.611   9.603 -1.3007  1.1033 -1.6519
  154SAPE   C3717178   5.664   2.710   9.476 -0.1328  0.3072  0.2369
  154SAPE   H7X17179   5.743   2.634   9.492 -2.9918 -2.4736  2.7872
  154SAPE   H7Y17180   5.711   2.809   9.462  0.1903  0.2322  0.7482
  154SAPE   C3817181   5.578   2.668   9.350 -0.3483 -0.6215 -0.5395
  154SAPE   H8X17182   5.512   2.757   9.334  0.4377 -0.2880 -2.1242
  154SAPE   H8Y17183   5.512   2.583   9.379  0.9220 -1.2071  0.7362
  154SAPE   C3917184   5.653   2.632   9.223  0.2005 -0.6885 -0.1234
  154SAPE   H9X17185   5.583   2.591   9.148 -0.5450  0.4888 -0.0921
  154SAPE   H9Y17186   5.731   2.554   9.236 -0.4854 -0.9832  2.7451
  154SAPE  C31017187   5.715   2.746   9.145 -0.6472  1.0095 -0.0368
  154SAPE  H10X17188   5.776   2.694   9.068 -1.8282  0.9902 -0.9824
  154SAPE  H10Y17189   5.782   2.794   9.220  0.3979 -4.8929  3.3698
  154SAPE  C31117190   5.619   2.838   9.076 -0.2200 -0.4105 -0.7382
  154SAPE  H11X17191   5.563   2.898   9.151 -0.4073  0.4709 -1.5494
  154SAPE  H11Y17192   5.558   2.770   9.013  0.3064 -2.1831  0.5844
  154SAPE  C31217193   5.674   2.946   8.983 -0.1913 -0.7701 -0.4063
  154SAPE  H12X17194   5.756   3.000   9.035 -1.2436  1.7132 -1.1823
  154SAPE  H12Y17195   5.599   3.025   8.961  0.3924  0.8267  2.7238
  154SAPE  C31317196   5.715   2.893   8.841  0.1697  0.3983  0.0166
  154SAPE  H13X17197   5.679   2.962   8.762  0.6428  0.5634 -0.0601
  154SAPE  H13Y17198   5.667   2.797   8.814  0.3792  1.0262 -2.8718
  154SAPE  C31417199   5.865   2.881   8.824 -0.2671  0.7038 -0.4307
  154SAPE  H14X17200   5.891   2.820   8.912  1.3727  1.8304 -0.0936
  154SAPE  H14Y17201   5.910   2.982   8.837  2.3506 -0.1742 -1.8780
  154SAPE  C31517202   5.914   2.840   8.684 -0.2113  0.2820 -0.1548
  154SAPE  H15X17203   5.876   2.915   8.611 -1.1578  1.8408  1.8420
  154SAPE  H15Y17204   5.872   2.739   8.666  0.6547 -0.1035 -0.0513
  154SAPE  C31617205   6.064   2.830   8.668 -0.6190 -0.1041 -0.3548
  154SAPE  H16X17206   6.113   2.924   8.701  1.1344 -1.1815  0.2568
  154SAPE  H16Y17207   6.106   2.797   8.571  1.5589 -3.5140  1.5396
  154SAPE  C31717208   6.122   2.730   8.769  0.1557  0.2110  0.7506
  154SAPE  H17X17209   6.081   2.739   8.872  0.0021 -0.0848  0.7168
  154SAPE  H17Y17210   6.229   2.757   8.774  0.3166  0.1237 -1.3613
  154SAPE  C31817211   6.112   2.588   8.721 -0.0781 -0.1849  0.1716
  154SAPE  H18X17212   6.007   2.553   8.721 -0.0211 -0.4388  2.0469
  154SAPE  H18Y17213   6.162   2.517   8.790  1.5235  1.8769  1.2225
  154SAPE  H18Z17214   6.153   2.572   8.618  1.1684 -2.2533  0.9280
  155SAPE     N17215   0.368   3.773  11.102  0.4018  0.1680 -0.1911
  155SAPE   HN117216   0.399   3.688  11.051  1.4811 -0.9663  2.1982
  155SAPE   HN217217   0.454   3.823  11.134 -0.1745  1.2938 -0.3749
  155SAPE   HN317218   0.312   3.747  11.186 -0.2567  0.8566 -0.4055
  155SAPE   C1217219   0.304   3.865  10.999  0.4121  0.2009  0.0569
  155SAPE  H12A17220   0.260   3.953  11.050 -2.6206 -1.4907  0.6345
  155SAPE  H12B17221   0.218   3.809  10.954 -0.6160  2.4882 -0.9913
  155SAPE   C1117222   0.396   3.901  10.886 -0.5379  0.7380  0.0969
  155SAPE  H11A17223   0.443   3.995  10.923 -0.3981 -0.0063  1.9412
  155SAPE  H11B17224   0.349   3.922  10.788  1.0580 -1.9323 -1.3567
  155SAPE     P17225   0.480   3.663  10.790 -0.0781  0.3398 -0.0780
  155SAPE   O1317226   0.617   3.601  10.763 -0.1903 -0.3122 -0.5044
  155SAPE   O1417227   0.381   3.588  10.874 -0.6291  0.4595 -0.0964
  155SAPE   O1217228   0.503   3.799  10.864  0.3575  0.2693 -0.3735
  155SAPE   O1117229   0.412   3.709  10.653  0.1463 -0.2146  0.2549
  155SAPE    C117230   0.490   3.705  10.532 -0.2103  0.1359  0.1219
  155SAPE    HA17231   0.549   3.612  10.522 -0.8061 -0.3213  0.7673
  155SAPE    HB17232   0.425   3.714  10.442  0.8007  0.1494 -0.6227
  155SAPE    C217233   0.587   3.830  10.510  0.0304 -0.5393 -0.3346
  155SAPE    HS17234   0.657   3.832  10.597 -1.1993  0.7022  0.6660
  155SAPE   O2117235   0.505   3.944  10.481 -0.3190 -0.4904  0.0781
  155SAPE   C2117236   0.546   4.061  10.527  0.7541  0.7707  0.3793
  155SAPE   O2217237   0.655   4.081  10.582 -0.1087  0.2894  0.0802
  155SAPE   C2217238   0.434   4.164  10.510 -0.0543  0.2314 -0.2515
  155SAPE   H2R17239   0.360   4.137  10.433  0.6426 -2.0313 -0.2231
  155SAPE   H2S17240   0.379   4.161  10.607  0.5184 -0.0220  0.0753
  155SAPE    C317241   0.688   3.815  10.388 -0.4588 -0.5973  0.0241
  155SAPE    HX17242   0.741   3.719  10.410  1.7347  0.6852  0.6038
  155SAPE    HY17243   0.766   3.894  10.393  2.1744 -3.0378  0.5941
  155SAPE   O3117244   0.621   3.790  10.269 -0.1436 -0.3202  0.4849
  155SAPE   C3117245   0.589   3.897  10.196  0.0371  0.4448  1.3342
  155SAPE   O3217246   0.631   4.009  10.219 -0.6926  0.1496  0.2500
  155SAPE   C3217247   0.482   3.854  10.090  1.2172  0.2422 -0.2236
  155SAPE   H2X17248   0.415   3.795  10.156  0.9415 -0.8508 -1.4577
  155SAPE   H2Y17249   0.528   3.792  10.011  1.0521  0.9960 -0.9248
  155SAPE   C2317250   0.486   4.311  10.487  0.4376  0.2288 -0.0558
  155SAPE   H3R17251   0.542   4.347  10.576  0.9760 -1.2903  0.2389
  155SAPE   H3S17252   0.396   4.374  10.468  1.3287  0.9942 -2.1168
  155SAPE   C2417253   0.580   4.317  10.360  1.0206 -0.2084 -0.0407
  155SAPE   H4R17254   0.533   4.254  10.282 -0.8709  0.5309  0.4600
  155SAPE   H4S17255   0.674   4.262  10.382 -0.2117 -2.4542 -0.0860
  155SAPE   C2517256   0.605   4.456  10.316  0.5509  0.0232  0.6316
  155SAPE   H5R17257   0.672   4.518  10.377 -1.1550  2.0738  0.5861
  155SAPE   C2617258   0.557   4.514  10.206  0.2599 -0.3201 -0.0914
  155SAPE   H6R17259   0.593   4.617  10.187  0.4208  0.2680  2.9535
  155SAPE   C2717260   0.470   4.457  10.102  0.1130 -0.0401  0.6056
  155SAPE   H7R17261   0.428   4.544  10.049  1.1790 -0.2007 -0.5616
  155SAPE   H7S17262   0.386   4.394  10.139  1.4443 -2.0511  0.4144
  155SAPE   C2817263   0.550   4.365  10.006  0.1725 -0.8744 -0.7039
  155SAPE   H8R17264   0.625   4.295  10.047  0.7955  0.3908  0.3865
  155SAPE   C2917265   0.529   4.365   9.879 -0.1857 -0.2589 -0.5892
  155SAPE   H9R17266   0.589   4.296   9.818 -1.1697 -1.6014 -0.0627
  155SAPE  C21017267   0.416   4.436   9.807 -0.2039 -0.2813 -0.2866
  155SAPE  H10R17268   0.451   4.540   9.786  1.5872 -0.4556  1.5586
  155SAPE  H10S17269   0.334   4.452   9.880  2.2153  0.3493  2.4905
  155SAPE  C21117270   0.351   4.373   9.688  0.4509  0.7494 -0.1191
  155SAPE  H11R17271   0.254   4.323   9.700  1.6868 -1.2631  2.6479
  155SAPE  C21217272   0.416   4.372   9.570  0.0320  0.6304  0.0470
  155SAPE  H12R17273   0.364   4.319   9.488  0.7133 -1.1907  0.7347
  155SAPE  C21317274   0.556   4.432   9.536  0.7031  0.0356 -0.3478
  155SAPE  H13R17275   0.601   4.473   9.629 -0.4560  1.1292 -0.2476
  155SAPE  H13S17276   0.556   4.516   9.464 -0.6789  0.0399 -0.3705
  155SAPE  C21417277   0.642   4.313   9.502  0.6674  0.2836 -0.1473
  155SAPE  H14R17278   0.714   4.283   9.579 -0.4580  1.0104  1.2394
  155SAPE  C21517279   0.645   4.253   9.382  0.0483  0.7020  0.0499
  155SAPE  H15R17280   0.706   4.162   9.372 -2.2045 -0.7481 -1.4754
  155SAPE  C21617281   0.561   4.287   9.260 -0.4715 -0.1663 -0.1030
  155SAPE  H16R17282   0.530   4.394   9.256 -0.6184 -0.1523  0.9475
  155SAPE  H16S17283   0.469   4.229   9.284  1.0203 -1.9239  1.8272
  155SAPE  C21717284   0.633   4.245   9.131 -0.3451  0.1293 -0.5264
  155SAPE  H17R17285   0.662   4.140   9.110 -1.1303 -0.3349  0.5765
  155SAPE  H17S17286   0.730   4.298   9.131  0.2322 -0.8671  0.7616
  155SAPE  C21817287   0.550   4.296   9.008 -0.2983  0.4531  0.3191
  155SAPE  H18R17288   0.462   4.228   9.006 -0.6750  0.8929  1.1562
  155SAPE  H18S17289   0.617   4.272   8.923 -3.1695 -3.6486 -1.0697
  155SAPE  C21917290   0.500   4.439   8.999 -0.1299  0.8307 -0.5062
  155SAPE  H19R17291   0.444   4.467   9.091  0.0909  1.3127 -0.5163
  155SAPE  H19S17292   0.432   4.441   8.911 -0.1905 -0.3953 -0.5004
  155SAPE  C22017293   0.611   4.550   8.988  1.1481  0.7323  0.1074
  155SAPE  H20R17294   0.696   4.542   9.060  0.0812 -0.3910  1.2896
  155SAPE  H20S17295   0.561   4.650   8.991  1.8358  1.0876 -0.1911
  155SAPE  H20T17296   0.659   4.539   8.889  2.5660 -0.3129  0.8675
  155SAPE   C3317297   0.411   3.970  10.022 -0.2512  0.0767  1.0416
  155SAPE   H3X17298   0.396   4.048  10.099 -1.3670 -0.4864  1.4104
  155SAPE   H3Y17299   0.307   3.939   9.997  0.2866 -2.2234  1.4589
  155SAPE   C3417300   0.490   4.022   9.896  0.0756  0.3240 -0.6367
  155SAPE   H4X17301   0.588   4.042   9.943  0.5081 -1.5588 -0.6547
  155SAPE   H4Y17302   0.429   4.109   9.863  0.8011  0.2552 -2.2818
  155SAPE   C3517303   0.495   3.926   9.778  0.6248  0.6308 -0.6251
  155SAPE   H5X17304   0.558   3.837   9.799 -0.5935 -0.4494 -1.3745
  155SAPE   H5Y17305   0.557   3.970   9.696  0.9792  0.4494 -0.4537
  155SAPE   C3617306   0.363   3.894   9.705 -0.0886 -0.4006 -0.3590
  155SAPE   H6X17307   0.307   3.990   9.702  0.2735 -0.2007 -2.1382
  155SAPE   H6Y17308   0.311   3.816   9.764  0.0485  0.8187  1.4401
  155SAPE   C3717309   0.373   3.857   9.557  0.2042  0.1646  0.7491
  155SAPE   H7X17310   0.394   3.948   9.497  0.8488 -0.6283 -0.2578
  155SAPE   H7Y17311   0.274   3.814   9.533 -0.1461  0.9917  0.7019
  155SAPE   C3817312   0.478   3.741   9.540  0.4436  0.0348 -0.2205
  155SAPE   H8X17313   0.435   3.642   9.565 -2.3097  0.9904 -0.8620
  155SAPE   H8Y17314   0.568   3.751   9.605  0.7737 -2.0869 -0.2808
  155SAPE   C3917315   0.528   3.731   9.398 -0.0374  0.3788 -0.0143
  155SAPE   H9X17316   0.596   3.644   9.395 -0.9193 -0.5193  2.9615
  155SAPE   H9Y17317   0.578   3.822   9.359  1.2148 -0.2098  0.1988
  155SAPE  C31017318   0.416   3.707   9.302  0.4327  0.6589 -0.1163
  155SAPE  H10X17319   0.344   3.792   9.292 -0.7205 -0.3644 -0.6921
  155SAPE  H10Y17320   0.359   3.618   9.337  2.8439 -0.6143  0.7989
  155SAPE  C31117321   0.464   3.693   9.156  0.1095  0.4785 -0.0062
  155SAPE  H11X17322   0.500   3.589   9.145 -0.0404  0.2833  1.2383
  155SAPE  H11Y17323   0.534   3.778   9.141  0.2771  0.1087 -1.4034
  155SAPE  C31217324   0.348   3.727   9.055  0.1333 -0.5950  0.9297
  155SAPE  H12X17325   0.312   3.825   9.091 -0.4134 -0.0890 -0.8771
  155SAPE  H12Y17326   0.267   3.651   9.060  0.7140 -1.3119 -0.0445
  155SAPE  C31317327   0.386   3.756   8.911  0.4673  1.3060  0.4816
  155SAPE  H13X17328   0.394   3.661   8.853 -2.2967  0.3550  1.4901
  155SAPE  H13Y17329   0.486   3.804   8.906  1.1246 -0.0990 -0.5517
  155SAPE  C31417330   0.288   3.835   8.825 -0.1574 -0.1568 -0.0524
  155SAPE  H14X17331   0.179   3.821   8.840 -0.9688  0.0486 -4.3780
  155SAPE  H14Y17332   0.309   3.799   8.722  2.5462 -0.4030  0.5028
  155SAPE  C31517333   0.305   3.984   8.840  0.0518  0.6985 -0.1971
  155SAPE  H15X17334   0.412   3.998   8.812  0.5660  1.4690  1.9616
  155SAPE  H15Y17335   0.300   4.011   8.947 -2.2222 -0.6488  0.1032
  155SAPE  C31617336   0.216   4.065   8.744 -0.2277 -0.2160 -0.6602
  155SAPE  H16X17337   0.118   4.063   8.795  2.2119 -0.8051  4.7711
  155SAPE  H16Y17338   0.205   4.017   8.644 -0.6783  0.3572 -0.8910
  155SAPE  C31717339   0.262   4.212   8.725  0.1912 -0.1227 -0.6285
  155SAPE  H17X17340   0.263   4.275   8.816  1.3406 -0.4927 -0.3671
  155SAPE  H17Y17341   0.182   4.247   8.657 -0.7838 -1.3220 -0.1406
  155SAPE  C31817342   0.391   4.214   8.643 -0.2672 -0.1557 -0.7655
  155SAPE  H18X17343   0.399   4.117   8.590 -0.3351 -1.5292  1.5854
  155SAPE  H18Y17344   0.475   4.232   8.714 -1.4347  0.2259  0.5625
  155SAPE  H18Z17345   0.381   4.301   8.575 -1.6815  2.4223  2.4410
  156SAPE     N17346   5.594   1.255  10.334 -0.1782 -0.3095 -0.2842
  156SAPE   HN117347   5.599   1.284  10.434  2.1643  0.3256 -0.5137
  156SAPE   HN217348   5.662   1.177  10.326 -0.9013 -0.8719 -1.1005
  156SAPE   HN317349   5.627   1.336  10.277  0.8254  0.1776  0.9176
  156SAPE   C1217350   5.451   1.215  10.298 -0.1151 -0.1100 -0.3050
  156SAPE  H12A17351   5.458   1.191  10.190 -0.6965 -0.8341 -0.1936
  156SAPE  H12B17352   5.381   1.301  10.307 -1.4076 -0.7360 -3.1922
  156SAPE   C1117353   5.412   1.080  10.365  0.1766  0.4241 -0.1608
  156SAPE  H11A17354   5.327   1.050  10.300  0.1084  0.5809 -0.1428
  156SAPE  H11B17355   5.375   1.091  10.469  1.8815  1.0306  0.4171
  156SAPE     P17356   5.552   0.880  10.464 -0.0740  0.1432 -0.0643
  156SAPE   O1317357   5.641   0.953  10.550 -0.1548 -0.1458 -0.0676
  156SAPE   O1417358   5.436   0.823  10.532 -0.7442  0.7251  0.2379
  156SAPE   O1217359   5.507   0.977  10.349  0.3167  0.1641  0.1903
  156SAPE   O1117360   5.625   0.757  10.399  0.2494  0.4255  0.3429
  156SAPE    C117361   5.705   0.774  10.282  0.1244  0.2915  0.2795
  156SAPE    HA17362   5.708   0.877  10.241 -0.2261  0.7260  1.3240
  156SAPE    HB17363   5.806   0.735  10.310  0.2534 -0.0258 -0.5863
  156SAPE    C217364   5.653   0.672  10.170 -0.4434  0.0995 -0.9326
  156SAPE    HS17365   5.743   0.652  10.110  1.2552 -0.5599  1.6588
  156SAPE   O2117366   5.541   0.731  10.099  1.1702 -0.3228  0.0238
  156SAPE   C2117367   5.572   0.849  10.028  0.4029  0.8577  0.0970
  156SAPE   O2217368   5.682   0.876   9.991  0.0761 -0.2654  0.0742
  156SAPE   C2217369   5.451   0.935   9.986  0.5015  0.3606 -0.2096
  156SAPE   H2R17370   5.423   0.998  10.073  0.0809 -2.1255  1.5822
  156SAPE   H2S17371   5.484   1.004   9.906 -0.0389  2.5556  1.3823
  156SAPE    C317372   5.601   0.544  10.233 -0.1804 -0.4372  0.1367
  156SAPE    HX17373   5.514   0.568  10.299 -0.1778 -2.4556  0.9462
  156SAPE    HY17374   5.672   0.495  10.302  1.7033 -0.9015 -2.0188
  156SAPE   O3117375   5.559   0.448  10.137 -0.0026 -0.5696 -0.0892
  156SAPE   C3117376   5.430   0.454  10.110 -0.2024 -0.3058 -0.6630
  156SAPE   O3217377   5.351   0.530  10.158  1.0177  0.7236 -0.1425
  156SAPE   C3217378   5.395   0.351  10.007 -0.6262 -0.0322 -0.5139
  156SAPE   H2X17379   5.405   0.253  10.060 -2.3097 -1.7957 -3.2513
  156SAPE   H2Y17380   5.473   0.354   9.928  0.6377  0.0226  0.6955
  156SAPE   C2317381   5.321   0.856   9.960 -0.6934  0.8343  0.1421
  156SAPE   H3R17382   5.229   0.909   9.996 -1.8906 -1.2056  0.2197
  156SAPE   H3S17383   5.328   0.767  10.027  1.0614  0.4991 -0.4401
  156SAPE   C2417384   5.300   0.826   9.807  0.0039  0.2789 -0.1762
  156SAPE   H4R17385   5.287   0.923   9.754  1.2312  0.6425  0.1499
  156SAPE   H4S17386   5.207   0.766   9.805  1.6274 -2.4538  0.7977
  156SAPE   C2517387   5.408   0.735   9.750 -0.8384 -1.2973  0.0314
  156SAPE   H5R17388   5.459   0.662   9.814  1.8993 -0.2814 -0.8460
  156SAPE   C2617389   5.447   0.726   9.619 -0.4519  0.0681  0.1096
  156SAPE   H6R17390   5.504   0.634   9.598 -1.3113 -0.6492  0.8217
  156SAPE   C2717391   5.386   0.801   9.505 -0.3255 -0.1510 -0.3763
  156SAPE   H7R17392   5.443   0.781   9.412  2.2895  1.4898  0.7502
  156SAPE   H7S17393   5.413   0.905   9.531  2.7105 -0.4657 -1.8254
  156SAPE   C2817394   5.235   0.776   9.494  0.3774 -0.0618  0.3390
  156SAPE   H8R17395   5.188   0.758   9.592  1.2174 -1.1828  0.5582
  156SAPE   C2917396   5.157   0.752   9.378 -0.3863 -0.1912 -0.2169
  156SAPE   H9R17397   5.049   0.744   9.393 -0.4622  1.1648  0.0587
  156SAPE  C21017398   5.197   0.760   9.235 -0.5681  0.5643  0.4855
  156SAPE  H10R17399   5.118   0.719   9.168  0.6557  1.5014 -1.6375
  156SAPE  H10S17400   5.289   0.698   9.233 -1.4897 -0.8345  0.0393
  156SAPE  C21117401   5.237   0.894   9.182 -0.6835 -0.0895  0.5621
  156SAPE  H11R17402   5.227   0.981   9.248 -3.3297 -0.7113  1.1134
  156SAPE  C21217403   5.284   0.906   9.055 -0.5591 -0.1873 -0.5060
  156SAPE  H12R17404   5.332   1.000   9.026 -1.1291  0.8165  1.6226
  156SAPE  C21317405   5.306   0.804   8.944  0.1688  0.7124 -0.0584
  156SAPE  H13R17406   5.228   0.724   8.945  1.1971 -0.3593  2.3033
  156SAPE  H13S17407   5.386   0.732   8.973 -2.6452 -2.3682  0.7274
  156SAPE  C21417408   5.328   0.853   8.803  0.1705  0.6481 -0.0179
  156SAPE  H14R17409   5.256   0.926   8.763 -0.0314 -0.6503 -2.1968
  156SAPE  C21517410   5.407   0.797   8.709  0.5517  1.3895 -0.5150
  156SAPE  H15R17411   5.400   0.842   8.609  0.0163  0.6834 -0.8046
  156SAPE  C21617412   5.498   0.665   8.723  0.2036 -0.4557 -0.5788
  156SAPE  H16R17413   5.493   0.614   8.624 -2.2209  0.3639 -0.9452
  156SAPE  H16S17414   5.443   0.602   8.795  0.2529 -1.0008 -1.0098
  156SAPE  C21717415   5.633   0.704   8.764 -0.3383 -0.5411  0.1867
  156SAPE  H17R17416   5.621   0.762   8.858 -0.1862  0.7379 -0.5647
  156SAPE  H17S17417   5.686   0.774   8.696 -1.1708 -1.0965 -1.0859
  156SAPE  C21817418   5.726   0.578   8.790  0.0376 -0.5642  0.1620
  156SAPE  H18R17419   5.667   0.517   8.862 -0.2812  1.3827  1.6206
  156SAPE  H18S17420   5.823   0.616   8.827 -1.0117  2.7091 -0.1529
  156SAPE  C21917421   5.758   0.490   8.669  0.3275  0.3605  1.1441
  156SAPE  H19R17422   5.660   0.452   8.631 -0.7288  3.0961  0.8857
  156SAPE  H19S17423   5.818   0.403   8.700  1.6093 -0.5743 -3.2580
  156SAPE  C22017424   5.817   0.564   8.553  1.0220  0.1435  0.1439
  156SAPE  H20R17425   5.921   0.595   8.573  0.6888  2.3294 -1.2042
  156SAPE  H20S17426   5.764   0.659   8.529 -0.2151 -0.0926  1.7790
  156SAPE  H20T17427   5.814   0.511   8.455 -0.9585  0.3132  0.0628
  156SAPE   C3317428   5.255   0.377   9.954 -0.0347  0.6840  0.6534
  156SAPE   H3X17429   5.246   0.481   9.915 -0.0944  0.0636 -1.0341
  156SAPE   H3Y17430   5.176   0.352  10.028 -0.0292 -0.7186  0.2116
  156SAPE   C3417431   5.245   0.279   9.832 -0.2096  0.4576  0.2005
  156SAPE   H4X17432   5.138   0.257   9.810 -0.1555  0.3540  0.0430
  156SAPE   H4Y17433   5.282   0.178   9.859  2.0463  0.7626 -1.5230
  156SAPE   C3517434   5.328   0.326   9.714  0.0869  0.4812  0.0889
  156SAPE   H5X17435   5.431   0.285   9.722 -0.5765 -1.2136  0.4006
  156SAPE   H5Y17436   5.330   0.437   9.714  2.3208  0.4713 -0.4980
  156SAPE   C3617437   5.258   0.276   9.580  0.2425 -0.7578  0.6600
  156SAPE   H6X17438   5.152   0.304   9.562  0.0040 -0.7569  1.9523
  156SAPE   H6Y17439   5.262   0.165   9.574 -1.0553 -0.7387 -1.1573
  156SAPE   C3717440   5.344   0.319   9.462 -0.6098 -0.1432 -0.0198
  156SAPE   H7X17441   5.446   0.335   9.504 -1.5003  2.2691  1.4580
  156SAPE   H7Y17442   5.316   0.422   9.431  0.6967  0.3798  0.4300
  156SAPE   C3817443   5.349   0.215   9.349  0.4011 -0.2915  0.3758
  156SAPE   H8X17444   5.248   0.204   9.304  1.1122  0.7915 -1.6451
  156SAPE   H8Y17445   5.391   0.121   9.391  0.5684 -0.5720 -0.3958
  156SAPE   C3917446   5.446   0.253   9.232 -0.1526  0.2461 -0.2819
  156SAPE   H9X17447   5.438   0.173   9.155  0.0604  0.3992 -0.4630
  156SAPE   H9Y17448   5.549   0.249   9.274 -0.9299 -0.8582  1.6192
  156SAPE  C31017449   5.415   0.384   9.165 -0.3032 -0.3905  0.1627
  156SAPE  H10X17450   5.497   0.401   9.093 -1.0714  1.4326 -0.3518
  156SAPE  H10Y17451   5.425   0.462   9.244 -1.0738 -0.2529  0.1391
  156SAPE  C31117452   5.282   0.402   9.088  0.4345  0.5673 -0.0989
  156SAPE  H11X17453   5.289   0.502   9.040  1.7983  0.8260  0.5803
  156SAPE  H11Y17454   5.191   0.403   9.152  0.2331  1.1983 -0.3801
  156SAPE  C31217455   5.269   0.290   8.982 -0.1869 -0.0328  0.1583
  156SAPE  H12X17456   5.168   0.311   8.940  0.4645  1.0446 -0.9353
  156SAPE  H12Y17457   5.258   0.191   9.030  0.5249 -1.1398 -1.8233
  156SAPE  C31317458   5.378   0.290   8.866  0.4427  0.1432 -0.3290
  156SAPE  H13X17459   5.477   0.319   8.908  0.2117  0.0909  0.2549
  156SAPE  H13Y17460   5.346   0.366   8.792  0.2696 -0.8428 -1.2974
  156SAPE  C31417461   5.387   0.151   8.794 -0.7220  0.5531 -0.4106
  156SAPE  H14X17462   5.287   0.136   8.748 -0.3665 -0.2000 -0.9658
  156SAPE  H14Y17463   5.399   0.069   8.868 -2.9312  0.5113 -0.0233
  156SAPE  C31517464   5.494   0.157   8.680  0.0972 -0.5095 -0.5592
  156SAPE  H15X17465   5.574   0.225   8.716 -2.5853  1.6154  1.9941
  156SAPE  H15Y17466   5.439   0.198   8.593  0.6849 -0.3746 -0.8651
  156SAPE  C31617467   5.557   0.031   8.633 -0.3118  0.5538 -0.1649
  156SAPE  H16X17468   5.615  -0.010   8.719  0.0071 -0.6121 -0.9028
  156SAPE  H16Y17469   5.620   0.042   8.542  1.3299 -1.2656  0.6692
  156SAPE  C31717470   5.455  -0.086   8.604 -0.2788  0.2613 -0.1643
  156SAPE  H17X17471   5.369  -0.048   8.544 -1.8924  0.9290  2.4371
  156SAPE  H17Y17472   5.412  -0.117   8.701  0.4231  1.5106  0.5641
  156SAPE  C31817473   5.520  -0.215   8.546 -0.5551  0.3031  0.5161
  156SAPE  H18X17474   5.583  -0.198   8.456  0.3044 -1.2546  0.7915
  156SAPE  H18Y17475   5.451  -0.302   8.547 -0.5545  0.2626  3.1182
  156SAPE  H18Z17476   5.602  -0.241   8.616  1.7184  1.2304 -1.6774
  157SAPE     N17477   4.450   1.634  10.328 -0.0150 -0.1033 -0.2283
  157SAPE   HN117478   4.394   1.693  10.263  0.7978  0.7754 -0.1577
  157SAPE   HN217479   4.518   1.707  10.359  1.2911 -0.0976 -2.7731
  157SAPE   HN317480   4.504   1.565  10.273 -0.5938 -1.2800  0.6586
  157SAPE   C1217481   4.373   1.567  10.443 -0.2401 -0.1189  0.0906
  157SAPE  H12A17482   4.435   1.562  10.535 -0.9060  0.0534  0.5520
  157SAPE  H12B17483   4.334   1.466  10.421 -0.3474 -0.5975  2.2961
  157SAPE   C1117484   4.253   1.655  10.483  0.3772  0.1594  0.0061
  157SAPE  H11A17485   4.186   1.670  10.396 -1.0035 -1.7612  0.6703
  157SAPE  H11B17486   4.288   1.751  10.526  2.2370 -0.6555  0.4488
  157SAPE     P17487   4.068   1.657  10.668 -0.0388  0.1461  0.4454
  157SAPE   O1317488   4.024   1.559  10.771  0.4356  0.4726 -0.4560
  157SAPE   O1417489   4.110   1.785  10.725  0.2433  0.1588 -0.4835
  157SAPE   O1217490   4.181   1.589  10.587 -0.5983 -0.1939 -0.7195
  157SAPE   O1117491   3.954   1.691  10.559 -0.6016 -0.3303  0.2883
  157SAPE    C117492   3.849   1.598  10.523 -0.4526 -0.2341  0.2681
  157SAPE    HA17493   3.809   1.547  10.613 -0.7366 -0.9381 -0.2433
  157SAPE    HB17494   3.768   1.654  10.473 -0.6724 -1.6506 -1.0315
  157SAPE    C217495   3.899   1.489  10.424 -0.1462 -0.2696  0.3672
  157SAPE    HS17496   3.974   1.439  10.489  0.0695  1.8425  1.8660
  157SAPE   O2117497   3.956   1.561  10.311  0.0471  0.1220  0.2849
  157SAPE   C2117498   4.049   1.497  10.240 -0.5171  0.1888  0.5090
  157SAPE   O2217499   4.103   1.392  10.273  0.2797  0.0747 -0.4880
  157SAPE   C2217500   4.095   1.582  10.122 -0.2970 -0.2597 -0.1565
  157SAPE   H2R17501   4.092   1.691  10.144 -2.7310 -0.2666 -0.2093
  157SAPE   H2S17502   4.201   1.552  10.109  0.1303 -0.9367  3.6104
  157SAPE    C317503   3.774   1.406  10.372  0.0543  0.3894 -0.2728
  157SAPE    HX17504   3.705   1.481  10.329 -0.3143  0.9501  1.2221
  157SAPE    HY17505   3.729   1.349  10.457 -0.2985  1.2965  0.1617
  157SAPE   O3117506   3.816   1.304  10.275  0.1246  0.1234  0.1037
  157SAPE   C3117507   3.849   1.181  10.325 -0.4791 -0.9673 -0.0397
  157SAPE   O3217508   3.840   1.155  10.443 -0.1036  0.4453  0.3621
  157SAPE   C3217509   3.905   1.086  10.218 -0.2048 -0.6773  0.3839
  157SAPE   H2X17510   3.879   0.984  10.252  0.2482 -0.4752  1.3917
  157SAPE   H2Y17511   4.014   1.091  10.240 -0.4263 -1.6473  1.8536
  157SAPE   C2317512   4.012   1.548   9.990  0.6646 -0.4605 -0.8070
  157SAPE   H3R17513   3.907   1.547  10.025  0.4331 -1.1238 -1.5099
  157SAPE   H3S17514   4.036   1.441   9.975  1.1383 -0.3176 -1.0847
  157SAPE   C2417515   4.034   1.639   9.871 -0.4387  1.1948 -0.4002
  157SAPE   H4R17516   4.022   1.744   9.906 -1.3006  0.4286  1.7890
  157SAPE   H4S17517   3.952   1.619   9.798  0.0022 -3.1369  0.0390
  157SAPE   C2517518   4.176   1.620   9.818  0.2572  0.2537 -0.4890
  157SAPE   H5R17519   4.263   1.628   9.885  0.5992 -3.0688 -0.3486
  157SAPE   C2617520   4.216   1.593   9.696 -0.2568 -0.2407  0.2157
  157SAPE   H6R17521   4.322   1.584   9.669  0.0784  2.9213  0.0616
  157SAPE   C2717522   4.121   1.573   9.578  0.5430 -0.2101  0.1629
  157SAPE   H7R17523   4.117   1.673   9.531  2.1643 -0.7422 -1.2215
  157SAPE   H7S17524   4.016   1.556   9.608  0.4219 -0.3511 -0.3326
  157SAPE   C2817525   4.144   1.454   9.493  0.9892  0.4424  0.5495
  157SAPE   H8R17526   4.121   1.355   9.536  1.2068 -0.3647 -1.1180
  157SAPE   C2917527   4.203   1.452   9.371  0.5284  0.9640 -0.3204
  157SAPE   H9R17528   4.224   1.352   9.330 -1.2779  0.9047 -1.2316
  157SAPE  C21017529   4.249   1.571   9.292  0.0831  0.6133 -0.3681
  157SAPE  H10R17530   4.221   1.665   9.345 -1.3998 -1.0922  2.0560
  157SAPE  H10S17531   4.199   1.581   9.193  2.2185 -0.0387 -1.5931
  157SAPE  C21117532   4.399   1.568   9.261 -0.1417 -0.7502  0.0725
  157SAPE  H11R17533   4.466   1.627   9.326 -0.0748 -0.1678 -0.5260
  157SAPE  C21217534   4.459   1.495   9.164 -0.4609  0.6419 -0.2784
  157SAPE  H12R17535   4.568   1.511   9.164 -0.3684  0.0330 -0.5761
  157SAPE  C21317536   4.405   1.411   9.053 -0.5979 -0.0767 -1.0822
  157SAPE  H13R17537   4.295   1.420   9.040 -0.6310 -1.1968 -1.7170
  157SAPE  H13S17538   4.419   1.305   9.083  0.0782  0.4002  0.3741
  157SAPE  C21417539   4.473   1.449   8.920  0.1770 -0.5207  0.4895
  157SAPE  H14R17540   4.561   1.514   8.922 -0.0616 -0.1877  0.2970
  157SAPE  C21517541   4.431   1.401   8.799  0.5218 -0.2222  0.1998
  157SAPE  H15R17542   4.481   1.439   8.709 -1.0614 -0.0498 -0.6263
  157SAPE  C21617543   4.326   1.301   8.771 -0.1121  0.8764 -0.0139
  157SAPE  H16R17544   4.318   1.244   8.866  1.8954  1.0574  0.3038
  157SAPE  H16S17545   4.374   1.225   8.706  0.1059  2.3239 -1.6251
  157SAPE  C21717546   4.178   1.329   8.750  0.1698  0.8469 -0.5049
  157SAPE  H17R17547   4.134   1.375   8.841 -0.7657 -0.5093 -0.2359
  157SAPE  H17S17548   4.121   1.236   8.727 -1.7741  1.5696  1.1454
  157SAPE  C21817549   4.154   1.425   8.637 -0.3808 -0.7912 -0.5206
  157SAPE  H18R17550   4.220   1.513   8.621  0.0985 -1.3532 -1.7660
  157SAPE  H18S17551   4.049   1.459   8.647 -0.5008 -1.8282  2.9873
  157SAPE  C21917552   4.143   1.356   8.501  0.5090 -0.1981  0.2629
  157SAPE  H19R17553   4.074   1.270   8.515  1.4825 -0.9227  0.7686
  157SAPE  H19S17554   4.241   1.316   8.467 -0.1772 -1.3117 -0.4672
  157SAPE  C22017555   4.075   1.436   8.390 -0.0137 -0.0017 -0.4224
  157SAPE  H20R17556   3.964   1.430   8.387 -0.0134 -0.6997  0.5207
  157SAPE  H20S17557   4.121   1.397   8.296 -0.6199  1.2895 -1.2888
  157SAPE  H20T17558   4.100   1.544   8.394  0.7381 -0.1502 -0.8901
  157SAPE   C3317559   3.898   1.120  10.065 -0.6827 -0.1387 -0.1210
  157SAPE   H3X17560   3.983   1.084  10.003 -1.5916 -2.8692  0.1145
  157SAPE   H3Y17561   3.924   1.228  10.057 -0.7782 -0.0592  0.5743
  157SAPE   C3417562   3.765   1.093   9.987 -0.2612 -0.4485 -1.4351
  157SAPE   H4X17563   3.682   1.147  10.037  0.4262 -1.9661  1.5711
  157SAPE   H4Y17564   3.739   0.985   9.988 -1.1097 -0.2594  0.6026
  157SAPE   C3517565   3.782   1.132   9.841 -0.8964  0.2781 -0.7609
  157SAPE   H5X17566   3.851   1.218   9.829  1.6908 -1.7106 -0.9420
  157SAPE   H5Y17567   3.684   1.157   9.794 -1.2657 -1.1588 -0.7892
  157SAPE   C3617568   3.870   1.034   9.766 -0.0107  0.1781  0.1627
  157SAPE   H6X17569   3.839   0.928   9.771  0.9826 -0.0697  1.7705
  157SAPE   H6Y17570   3.978   1.040   9.793  0.0198 -2.0331  0.6798
  157SAPE   C3717571   3.869   1.084   9.621 -0.8262  0.1191 -0.0801
  157SAPE   H7X17572   3.903   1.190   9.618  1.2713 -0.4710  0.5857
  157SAPE   H7Y17573   3.771   1.087   9.570 -0.1147  1.8090 -1.4766
  157SAPE   C3817574   3.970   0.999   9.547  0.6591 -0.4319 -0.3360
  157SAPE   H8X17575   3.936   0.894   9.540 -0.2962 -0.0999 -0.9442
  157SAPE   H8Y17576   4.064   0.992   9.606  0.4873 -0.1664 -0.0256
  157SAPE   C3917577   3.993   1.057   9.407 -0.3531  0.2625  0.4259
  157SAPE   H9X17578   4.049   1.152   9.420  0.6550 -0.0668 -1.3137
  157SAPE   H9Y17579   3.893   1.079   9.363 -0.0624 -0.4071 -0.6084
  157SAPE  C31017580   4.050   0.958   9.310 -0.3882 -0.3750  0.1144
  157SAPE  H10X17581   3.993   0.863   9.312  1.3071 -1.4397  2.0916
  157SAPE  H10Y17582   4.149   0.940   9.356 -0.5679  0.4885  0.8725
  157SAPE  C31117583   4.073   1.018   9.165 -0.0957 -0.6688  0.2090
  157SAPE  H11X17584   4.120   1.119   9.173  0.6440 -0.7256 -2.5207
  157SAPE  H11Y17585   3.975   1.039   9.118  1.0834 -0.4727 -2.3085
  157SAPE  C31217586   4.138   0.919   9.071  0.4919  0.0049  0.4376
  157SAPE  H12X17587   4.093   0.818   9.074 -2.1664  0.8161 -3.8904
  157SAPE  H12Y17588   4.246   0.911   9.098  0.5853 -0.0985  0.0367
  157SAPE  C31317589   4.125   0.966   8.922 -0.7273 -0.1274  0.9190
  157SAPE  H13X17590   4.176   1.064   8.908 -1.0185 -0.2223 -1.0916
  157SAPE  H13Y17591   4.020   0.970   8.887  0.0211  0.7454 -1.4180
  157SAPE  C31417592   4.198   0.866   8.834  0.3978  0.4236  0.0031
  157SAPE  H14X17593   4.165   0.762   8.854  0.4012  0.5805  0.8448
  157SAPE  H14Y17594   4.305   0.882   8.858 -0.0473  1.9658  1.1181
  157SAPE  C31517595   4.160   0.907   8.688 -0.4202  0.5473 -0.6926
  157SAPE  H15X17596   4.196   1.012   8.681  1.0324  0.1224  0.0094
  157SAPE  H15Y17597   4.050   0.895   8.674 -0.3570 -0.2267 -0.5606
  157SAPE  C31617598   4.234   0.816   8.584 -0.7222  0.2462 -0.2365
  157SAPE  H16X17599   4.207   0.711   8.610 -2.8769  0.9339  0.5425
  157SAPE  H16Y17600   4.345   0.823   8.593 -0.8456 -0.1328  2.2425
  157SAPE  C31717601   4.192   0.853   8.442 -0.2110 -0.0100 -0.0072
  157SAPE  H17X17602   4.252   0.788   8.375  0.3858  0.3527  0.1745
  157SAPE  H17Y17603   4.213   0.961   8.431 -2.9495  0.5248 -0.8745
  157SAPE  C31817604   4.039   0.835   8.407 -0.3317  0.4329  0.0737
  157SAPE  H18X17605   3.980   0.909   8.465  0.9298  1.0656  0.5754
  157SAPE  H18Y17606   4.014   0.727   8.420 -3.9638  0.6855 -2.9526
  157SAPE  H18Z17607   4.027   0.858   8.299  1.1603 -0.8408 -0.4033
  158SAPE     N17608   5.212   6.232  10.952  0.7481  0.5887  0.1959
  158SAPE   HN117609   5.119   6.219  10.908  0.0703  1.4520  1.3064
  158SAPE   HN217610   5.191   6.253  11.052  1.6394  0.6103  0.3858
  158SAPE   HN317611   5.251   6.320  10.912  2.5510  0.2811  1.1552
  158SAPE   C1217612   5.320   6.122  10.943  1.0141 -0.0105  0.1795
  158SAPE  H12A17613   5.275   6.029  10.984 -0.3844  0.4459 -0.2567
  158SAPE  H12B17614   5.401   6.157  11.010  0.2804 -0.5829  1.4056
  158SAPE   C1117615   5.352   6.095  10.794  0.4506  0.2058  0.0863
  158SAPE  H11A17616   5.272   6.035  10.745 -0.1475 -0.0877  1.3871
  158SAPE  H11B17617   5.440   6.028  10.784 -0.8457 -1.6620  0.5274
  158SAPE     P17618   5.340   6.241  10.580 -0.0135  0.4475 -0.1183
  158SAPE   O1317619   5.210   6.183  10.561  0.1121  0.2420  0.1932
  158SAPE   O1417620   5.348   6.386  10.555  0.0804 -0.1081 -0.6631
  158SAPE   O1217621   5.385   6.212  10.726 -0.0811  0.7018 -0.0650
  158SAPE   O1117622   5.451   6.166  10.496 -0.1091 -0.2895 -0.1228
  158SAPE    C117623   5.555   6.250  10.433 -0.7216  0.3272 -0.4158
  158SAPE    HA17624   5.602   6.318  10.507 -0.0861 -0.4185 -0.1222
  158SAPE    HB17625   5.638   6.185  10.398 -1.0302  0.6646 -1.8237
  158SAPE    C217626   5.495   6.313  10.301 -0.7656  0.0544  0.7117
  158SAPE    HS17627   5.443   6.403  10.343  0.1773  0.3662  1.2317
  158SAPE   O2117628   5.413   6.217  10.231  0.0784  0.3980 -0.7594
  158SAPE   C2117629   5.285   6.257  10.210  0.0873 -0.3072 -0.4474
  158SAPE   O2217630   5.248   6.370  10.233  0.3520  0.3178 -0.1537
  158SAPE   C2217631   5.200   6.161  10.134  0.0797  0.4955 -0.5568
  158SAPE   H2R17632   5.263   6.130  10.048 -0.1967  0.9831 -0.9366
  158SAPE   H2S17633   5.197   6.070  10.198  2.0397  1.6275  1.2754
  158SAPE    C317634   5.603   6.365  10.203 -0.0755 -0.4831  0.1629
  158SAPE    HX17635   5.671   6.279  10.182  2.9040  1.9120 -0.7077
  158SAPE    HY17636   5.671   6.440  10.249 -1.3215 -0.2789  1.7700
  158SAPE   O3117637   5.532   6.415  10.082 -0.7945 -0.2792 -0.2792
  158SAPE   C3117638   5.510   6.547  10.080  0.1195  0.7742 -0.5544
  158SAPE   O3217639   5.539   6.619  10.175 -0.3982 -0.2234  0.3969
  158SAPE   C3217640   5.453   6.588   9.950 -0.1428  0.0551  0.2939
  158SAPE   H2X17641   5.342   6.587   9.953 -0.5599  2.8515 -4.2693
  158SAPE   H2Y17642   5.491   6.515   9.877  0.3432  0.0730  0.5220
  158SAPE   C2317643   5.063   6.215  10.092  0.1596  0.1673 -0.3767
  158SAPE   H3R17644   5.039   6.298  10.162 -0.5227 -2.4545  2.7276
  158SAPE   H3S17645   4.991   6.139  10.129 -0.1501  0.9479  0.6655
  158SAPE   C2417646   5.038   6.228   9.943 -0.1706 -0.0104 -0.0318
  158SAPE   H4R17647   4.929   6.231   9.922  0.1761  0.5350 -1.9615
  158SAPE   H4S17648   5.072   6.136   9.889 -4.8331 -0.7101 -2.2651
  158SAPE   C2517649   5.106   6.358   9.894  0.4219  0.5500 -0.5436
  158SAPE   H5R17650   5.082   6.451   9.946  0.1256  0.4393 -0.4806
  158SAPE   C2617651   5.202   6.368   9.797 -1.1503 -0.1372 -0.0594
  158SAPE   H6R17652   5.241   6.466   9.767  2.6593 -1.3316  0.4156
  158SAPE   C2717653   5.261   6.260   9.701  0.2113  0.1746 -0.0620
  158SAPE   H7R17654   5.261   6.301   9.597  0.4983  1.8490  0.5658
  158SAPE   H7S17655   5.207   6.163   9.707  1.3476 -0.5666 -1.0417
  158SAPE   C2817656   5.395   6.243   9.767  0.2206  0.2138 -0.0996
  158SAPE   H8R17657   5.392   6.175   9.853  0.2769 -1.6940 -1.5443
  158SAPE   C2917658   5.516   6.271   9.714 -0.0374  0.0987 -0.4973
  158SAPE   H9R17659   5.601   6.251   9.780 -0.6124  2.0222  0.9290
  158SAPE  C21017660   5.552   6.338   9.581 -0.0085  0.4700 -0.2639
  158SAPE  H10R17661   5.545   6.254   9.510 -2.2066  1.0008 -0.7430
  158SAPE  H10S17662   5.658   6.368   9.592  0.1062 -0.5144  2.0626
  158SAPE  C21117663   5.472   6.460   9.546  0.3018  0.1111  0.0404
  158SAPE  H11R17664   5.396   6.481   9.623  0.1470  1.2968 -0.4110
  158SAPE  C21217665   5.485   6.533   9.430  0.4396 -0.1155  0.0897
  158SAPE  H12R17666   5.424   6.622   9.406  0.9365 -0.1364 -1.3377
  158SAPE  C21317667   5.578   6.503   9.315  0.0322  0.1744 -0.1577
  158SAPE  H13R17668   5.622   6.401   9.312  0.0883  0.2074 -0.4678
  158SAPE  H13S17669   5.670   6.565   9.326 -0.0273  0.1177  0.7929
  158SAPE  C21417670   5.518   6.524   9.180  0.3635 -0.0158  0.6227
  158SAPE  H14R17671   5.441   6.450   9.152 -0.9281  2.0689 -1.6745
  158SAPE  C21517672   5.551   6.617   9.097  0.4201 -0.2486 -0.2161
  158SAPE  H15R17673   5.506   6.620   8.997 -2.4395  0.9961  1.0064
  158SAPE  C21617674   5.659   6.721   9.137 -0.6134  0.8991 -0.0772
  158SAPE  H16R17675   5.754   6.666   9.155 -0.7886  0.1193 -1.4213
  158SAPE  H16S17676   5.633   6.782   9.227 -1.9579 -3.2220  2.5835
  158SAPE  C21717677   5.688   6.809   9.018  0.0200  0.0889 -1.1133
  158SAPE  H17R17678   5.599   6.864   8.980 -1.6204 -1.6586  0.0364
  158SAPE  H17S17679   5.718   6.735   8.940  0.5991  0.2546 -1.0542
  158SAPE  C21817680   5.807   6.904   9.041  0.1128 -0.0281  0.4146
  158SAPE  H18R17681   5.896   6.844   9.073 -2.0556 -1.2599  4.8430
  158SAPE  H18S17682   5.793   6.959   9.136  2.6380  0.0897  0.7981
  158SAPE  C21917683   5.834   7.003   8.923  0.3285 -0.0467  0.0067
  158SAPE  H19R17684   5.738   7.056   8.907  0.6369  0.2121 -1.0922
  158SAPE  H19S17685   5.849   6.941   8.832 -4.0524 -0.0238 -0.9431
  158SAPE  C22017686   5.946   7.093   8.958  0.0135 -0.6300 -0.2635
  158SAPE  H20R17687   5.928   7.182   9.022  0.2817 -0.2484 -0.7140
  158SAPE  H20S17688   5.982   7.140   8.864  2.7770  0.7251  1.3495
  158SAPE  H20T17689   6.031   7.026   8.982  0.7218 -0.1339 -1.3268
  158SAPE   C3317690   5.496   6.741   9.921  0.3082 -0.1569 -0.2805
  158SAPE   H3X17691   5.575   6.777   9.990  1.2757 -1.5238 -0.6248
  158SAPE   H3Y17692   5.412   6.812   9.934  1.1738  0.9358 -0.4798
  158SAPE   C3417693   5.546   6.749   9.777 -0.8714  0.3782 -0.2434
  158SAPE   H4X17694   5.531   6.849   9.732  0.0957  1.0462  0.8575
  158SAPE   H4Y17695   5.491   6.676   9.714 -1.4700 -0.9677  1.7446
  158SAPE   C3517696   5.697   6.713   9.772 -0.7193  0.5433  0.0239
  158SAPE   H5X17697   5.717   6.608   9.800  2.5967  0.7995 -0.8733
  158SAPE   H5Y17698   5.754   6.764   9.853  1.2501 -1.1522 -0.1990
  158SAPE   C3617699   5.768   6.729   9.630  0.3879 -0.0759 -0.0492
  158SAPE   H6X17700   5.733   6.647   9.564  0.8727 -0.5769  0.3096
  158SAPE   H6Y17701   5.873   6.701   9.652  0.2830  0.8007  1.7766
  158SAPE   C3717702   5.761   6.866   9.573  0.0571 -0.9230  0.3122
  158SAPE   H7X17703   5.783   6.941   9.652  2.2538  0.1270 -1.1971
  158SAPE   H7Y17704   5.656   6.883   9.541 -0.1511 -1.9157  0.4150
  158SAPE   C3817705   5.866   6.878   9.464  0.2264 -0.0246  0.2090
  158SAPE   H8X17706   5.822   6.840   9.369  0.1075 -0.3740  0.4004
  158SAPE   H8Y17707   5.963   6.828   9.486 -0.4690 -0.9331  1.3032
  158SAPE   C3917708   5.900   7.024   9.447  0.1765 -0.3117 -0.8300
  158SAPE   H9X17709   5.991   7.033   9.384  2.1021  0.2156  1.8082
  158SAPE   H9Y17710   5.938   7.071   9.541 -0.4864 -0.7505 -0.3336
  158SAPE  C31017711   5.786   7.106   9.395 -0.4337  0.5578 -1.2351
  158SAPE  H10X17712   5.725   7.129   9.485 -0.8134 -1.1865 -1.0153
  158SAPE  H10Y17713   5.730   7.053   9.315  1.4001 -2.1213 -0.8529
  158SAPE  C31117714   5.843   7.247   9.361  1.0224 -0.0496  0.4262
  158SAPE  H11X17715   5.907   7.234   9.272 -1.4036 -0.5940 -1.3576
  158SAPE  H11Y17716   5.895   7.281   9.453  0.4848 -2.7534  1.8637
  158SAPE  C31217717   5.738   7.344   9.315 -0.3116  0.5765 -0.3470
  158SAPE  H12X17718   5.663   7.367   9.394  0.6613  0.4989  0.6272
  158SAPE  H12Y17719   5.691   7.323   9.217  0.2802 -1.3666 -0.2601
  158SAPE  C31317720   5.807   7.487   9.288 -0.4445 -0.1139 -0.1720
  158SAPE  H13X17721   5.896   7.474   9.223 -1.1747  0.4286 -1.3007
  158SAPE  H13Y17722   5.854   7.534   9.377  0.5639 -0.8654 -0.2913
  158SAPE  C31417723   5.706   7.583   9.247  0.1686  0.3469  0.3096
  158SAPE  H14X17724   5.648   7.598   9.340  0.0935  2.1484 -0.0017
  158SAPE  H14Y17725   5.644   7.520   9.180 -0.1057  0.0169  0.8691
  158SAPE  C31517726   5.755   7.711   9.183 -0.0023 -0.1681  0.0010
  158SAPE  H15X17727   5.806   7.674   9.091 -0.7998 -1.8176  0.1821
  158SAPE  H15Y17728   5.824   7.757   9.256 -0.1105  2.7601 -1.5660
  158SAPE  C31617729   5.630   7.795   9.157 -0.3712  0.2209 -0.0130
  158SAPE  H16X17730   5.605   7.847   9.252 -2.3296  0.8288 -0.8167
  158SAPE  H16Y17731   5.548   7.730   9.119  0.5011 -0.0470 -1.5237
  158SAPE  C31717732   5.652   7.895   9.053 -0.1167 -0.4731  0.1535
  158SAPE  H17X17733   5.557   7.950   9.034 -0.2581 -0.5971  0.5133
  158SAPE  H17Y17734   5.684   7.840   8.961 -1.6057 -2.7596  0.9395
  158SAPE  C31817735   5.769   7.992   9.098  0.2401  0.1355 -0.1003
  158SAPE  H18X17736   5.745   8.042   9.194  3.1746 -1.6296  1.7192
  158SAPE  H18Y17737   5.808   8.061   9.020  3.2686 -0.2187  0.9610
  158SAPE  H18Z17738   5.857   7.930   9.125 -0.0628  0.1400  0.9338
  159SAPE     N17739   5.741   3.841   6.527 -0.1584 -0.5097  0.4766
  159SAPE   HN117740   5.753   3.919   6.595 -0.1643  0.4533 -0.5928
  159SAPE   HN217741   5.684   3.873   6.446  0.9297 -0.0320 -0.1266
  159SAPE   HN317742   5.702   3.753   6.566 -0.6741 -0.4002  0.2233
  159SAPE   C1217743   5.878   3.804   6.481 -0.8028  0.0270  0.1520
  159SAPE  H12A17744   5.938   3.765   6.566  1.1425  0.6767 -0.8641
  159SAPE  H12B17745   5.940   3.891   6.450  2.3277 -1.7441  0.9385
  159SAPE   C1117746   5.877   3.703   6.364  0.3137  0.1344 -0.6570
  159SAPE  H11A17747   5.976   3.656   6.345  2.1047  2.5561  1.8325
  159SAPE  H11B17748   5.837   3.758   6.276 -2.8097 -1.7685 -0.5774
  159SAPE     P17749   5.788   3.462   6.398 -0.2842 -0.1995  0.5096
  159SAPE   O1317750   5.660   3.403   6.434  0.2147  0.0928  0.1887
  159SAPE   O1417751   5.868   3.414   6.281  0.3368  0.2612  0.2340
  159SAPE   O1217752   5.768   3.612   6.376  0.4080 -0.3245  0.0159
  159SAPE   O1117753   5.889   3.458   6.518 -0.2738 -0.1704  0.3045
  159SAPE    C117754   5.948   3.344   6.579  0.7969  0.2576  0.6476
  159SAPE    HA17755   5.960   3.360   6.688  1.6737  0.4359  0.5376
  159SAPE    HB17756   5.897   3.246   6.564  0.8295  0.4202 -0.6967
  159SAPE    C217757   6.099   3.327   6.523 -0.0724  0.8477  0.2262
  159SAPE    HS17758   6.086   3.302   6.415  0.5383  0.9088  0.1374
  159SAPE   O2117759   6.160   3.223   6.602 -0.3251  0.0052  0.2430
  159SAPE   C2117760   6.117   3.101   6.577 -0.1137 -0.2655 -0.2728
  159SAPE   O2217761   6.038   3.065   6.492 -0.4667  0.4166 -0.3248
  159SAPE   C2217762   6.163   3.011   6.691 -0.2776 -0.1489 -0.2607
  159SAPE   H2R17763   6.274   3.005   6.689 -0.3145 -2.0512  0.8399
  159SAPE   H2S17764   6.130   3.052   6.789  0.1388 -0.2066 -0.0955
  159SAPE    C317765   6.171   3.459   6.528  0.0111  0.8537 -0.2062
  159SAPE    HX17766   6.123   3.529   6.457  0.0069 -0.2214 -1.2861
  159SAPE    HY17767   6.279   3.447   6.504  0.8032  2.3194  2.2245
  159SAPE   O3117768   6.158   3.516   6.663  0.0385  0.1133  0.1088
  159SAPE   C3117769   6.200   3.639   6.674  0.1908  0.1016  0.0667
  159SAPE   O3217770   6.258   3.706   6.589 -0.2985 -0.5269  0.7629
  159SAPE   C3217771   6.180   3.695   6.819 -0.4830 -0.2190  0.2039
  159SAPE   H2X17772   6.279   3.719   6.865 -0.7858 -0.5301  1.0408
  159SAPE   H2Y17773   6.123   3.626   6.884 -1.3217 -1.3202 -1.6207
  159SAPE   C2317774   6.107   2.865   6.681  0.8381 -0.1902  0.0793
  159SAPE   H3R17775   6.106   2.837   6.573  2.9845  0.1412 -0.0578
  159SAPE   H3S17776   6.004   2.867   6.725  1.6436 -0.5966  2.0909
  159SAPE   C2417777   6.190   2.763   6.762  0.2231  0.5763  0.6554
  159SAPE   H4R17778   6.185   2.799   6.867 -0.5518  0.1778  0.7615
  159SAPE   H4S17779   6.294   2.774   6.725  0.5652 -3.0267  0.1659
  159SAPE   C2517780   6.147   2.617   6.740 -1.4687 -0.5721  0.2133
  159SAPE   H5R17781   6.165   2.576   6.640 -2.4223  1.5441 -0.8956
  159SAPE   C2617782   6.096   2.534   6.834 -0.1458 -0.1057  0.2951
  159SAPE   H6R17783   6.068   2.434   6.797  0.7827  0.3779 -1.8867
  159SAPE   C2717784   6.059   2.573   6.980  0.6556  0.2297  0.6945
  159SAPE   H7R17785   6.113   2.667   7.007  0.0803  0.9943 -0.7024
  159SAPE   H7S17786   6.100   2.496   7.048  0.4132  1.1391  1.8928
  159SAPE   C2817787   5.915   2.579   7.022  0.6281 -0.1503 -1.1039
  159SAPE   H8R17788   5.851   2.591   6.934 -0.4223 -0.4792 -0.4066
  159SAPE   C2917789   5.866   2.589   7.156 -0.2369 -0.1807  0.3304
  159SAPE   H9R17790   5.761   2.620   7.166 -0.3130  0.1199 -1.0895
  159SAPE  C21017791   5.961   2.608   7.273  0.1558  0.5166 -0.3841
  159SAPE  H10R17792   5.917   2.682   7.344  0.6921 -0.3183  0.8713
  159SAPE  H10S17793   6.061   2.649   7.246 -0.8700  1.7410 -2.5278
  159SAPE  C21117794   5.999   2.478   7.349 -1.0474  0.4046  0.4103
  159SAPE  H11R17795   6.040   2.394   7.292  0.4582 -0.7713  3.0450
  159SAPE  C21217796   5.986   2.456   7.484 -0.3728 -0.8527  0.2454
  159SAPE  H12R17797   6.023   2.364   7.533  2.3501  0.3051  0.5254
  159SAPE  C21317798   5.934   2.551   7.581  0.3036 -0.2930 -0.5112
  159SAPE  H13R17799   5.986   2.649   7.570  0.3456 -0.4093 -1.5024
  159SAPE  H13S17800   5.946   2.510   7.683  1.7009 -1.6681 -1.1840
  159SAPE  C21417801   5.782   2.584   7.569 -0.2836  0.4054  0.6610
  159SAPE  H14R17802   5.723   2.506   7.519  1.9708 -0.4376 -0.8570
  159SAPE  C21517803   5.719   2.695   7.608  0.0297  0.0413 -0.0025
  159SAPE  H15R17804   5.610   2.700   7.594 -0.1752  0.2903  1.5017
  159SAPE  C21617805   5.779   2.814   7.683 -0.1767 -0.6967  0.1070
  159SAPE  H16R17806   5.845   2.872   7.616 -2.0315  1.4689  0.0175
  159SAPE  H16S17807   5.851   2.790   7.765  2.0777  2.0560 -0.9147
  159SAPE  C21717808   5.670   2.905   7.748  1.0378  0.3014 -0.5602
  159SAPE  H17R17809   5.609   2.955   7.669 -0.2622 -2.5290 -1.4654
  159SAPE  H17S17810   5.734   2.974   7.807  0.3902  1.2452 -0.9308
  159SAPE  C21817811   5.570   2.823   7.832 -0.5448 -0.0284 -0.2723
  159SAPE  H18R17812   5.489   2.777   7.771 -1.1643  1.6420 -0.7802
  159SAPE  H18S17813   5.522   2.888   7.908 -2.1640 -2.3433  0.8079
  159SAPE  C21917814   5.631   2.716   7.918 -0.1063  0.0076  0.8077
  159SAPE  H19R17815   5.705   2.655   7.862  0.1274 -0.1909  1.3248
  159SAPE  H19S17816   5.557   2.637   7.944  1.0283 -1.1457  0.6155
  159SAPE  C22017817   5.700   2.756   8.046  0.1354 -0.3771  0.5290
  159SAPE  H20R17818   5.625   2.805   8.112 -1.9413 -1.6857 -0.7468
  159SAPE  H20S17819   5.782   2.825   8.018 -2.3402  2.3897 -0.5553
  159SAPE  H20T17820   5.747   2.674   8.104  1.2763  0.8997  1.4827
  159SAPE   C3317821   6.098   3.831   6.826  0.1150 -0.1323 -0.4818
  159SAPE   H3X17822   5.990   3.814   6.804 -0.2822 -0.6527  1.6903
  159SAPE   H3Y17823   6.129   3.904   6.748  0.0037  0.5869  0.1370
  159SAPE   C3417824   6.116   3.906   6.959  0.1711 -0.1993 -0.0928
  159SAPE   H4X17825   6.221   3.942   6.968  0.1076 -0.3744  1.9985
  159SAPE   H4Y17826   6.089   3.838   7.043 -0.8276 -1.3284 -1.2935
  159SAPE   C3517827   6.029   4.035   6.975 -0.3648 -0.7764 -0.0416
  159SAPE   H5X17828   5.919   4.029   6.969 -0.5034  0.8264  0.4893
  159SAPE   H5Y17829   6.048   4.096   6.884 -1.9886  2.0671  1.3926
  159SAPE   C3617830   6.075   4.112   7.095 -0.0133 -0.0927 -0.3766
  159SAPE   H6X17831   6.048   4.220   7.089 -0.9818 -0.2503  0.8081
  159SAPE   H6Y17832   6.186   4.114   7.102 -0.1065  0.7015  1.3120
  159SAPE   C3717833   6.034   4.054   7.234  0.0394  0.7275 -0.6327
  159SAPE   H7X17834   6.085   3.958   7.252  3.4031  2.6105  0.7277
  159SAPE   H7Y17835   5.923   4.044   7.238  0.2199 -1.2496  0.6386
  159SAPE   C3817836   6.085   4.138   7.349  0.6340  0.4981 -1.5462
  159SAPE   H8X17837   6.007   4.214   7.369 -0.3662 -0.6669 -0.8078
  159SAPE   H8Y17838   6.182   4.189   7.336 -0.3229  2.7330 -0.4498
  159SAPE   C3917839   6.091   4.048   7.477 -0.6858 -0.9359 -0.4969
  159SAPE   H9X17840   6.160   3.965   7.450 -1.5254 -1.7148 -0.2881
  159SAPE   H9Y17841   5.990   4.011   7.506  0.3991 -3.7223  0.0297
  159SAPE  C31017842   6.149   4.118   7.598  0.1195 -0.3398 -0.0353
  159SAPE  H10X17843   6.096   4.216   7.598 -0.0476 -0.4310 -0.1867
  159SAPE  H10Y17844   6.256   4.148   7.583 -0.8963  3.0553 -1.5715
  159SAPE  C31117845   6.122   4.033   7.729 -0.1950  0.3979  0.1002
  159SAPE  H11X17846   6.013   4.015   7.724 -0.2439  0.9218 -1.3198
  159SAPE  H11Y17847   6.147   4.087   7.822 -0.5752 -1.5698  1.4037
  159SAPE  C31217848   6.203   3.895   7.726  0.2494  0.0437  0.5483
  159SAPE  H12X17849   6.310   3.921   7.711  0.3265  0.3135  1.5063
  159SAPE  H12Y17850   6.182   3.818   7.649 -0.8531  0.0385  0.8297
  159SAPE  C31317851   6.197   3.831   7.865  0.8247  0.7190 -0.4344
  159SAPE  H13X17852   6.215   3.908   7.943  1.0101  0.4484 -0.2065
  159SAPE  H13Y17853   6.282   3.761   7.880  1.2268  1.5076  1.2149
  159SAPE  C31417854   6.065   3.764   7.888 -0.0815  0.2664 -0.1691
  159SAPE  H14X17855   6.034   3.710   7.796  2.7769 -2.5361  0.3199
  159SAPE  H14Y17856   6.004   3.853   7.915 -0.2623 -0.3780  1.7088
  159SAPE  C31517857   6.068   3.676   8.014  0.6332 -0.4186  0.1733
  159SAPE  H15X17858   6.137   3.730   8.083  2.7808 -0.0134 -2.1334
  159SAPE  H15Y17859   6.108   3.582   7.971  0.2575 -0.4771 -0.0510
  159SAPE  C31617860   5.928   3.657   8.076  0.3832  0.0797  0.0039
  159SAPE  H16X17861   5.855   3.617   8.002  0.9390 -0.4841 -0.2554
  159SAPE  H16Y17862   5.893   3.762   8.088  1.5896  0.5049 -0.1439
  159SAPE  C31717863   5.921   3.581   8.211 -0.1502  0.0097  0.1382
  159SAPE  H17X17864   5.997   3.626   8.280  0.2742  0.0971 -0.3779
  159SAPE  H17Y17865   5.953   3.475   8.202  1.6984  0.4376  1.1512
  159SAPE  C31817866   5.783   3.583   8.271  0.6582  0.2252  0.0024
  159SAPE  H18X17867   5.767   3.539   8.372 -0.5478  0.4139 -0.0861
  159SAPE  H18Y17868   5.713   3.534   8.200  1.3037 -0.1935 -0.3509
  159SAPE  H18Z17869   5.750   3.688   8.286  3.2706  1.2810 -1.0994
  160SAPE     N17870   5.443   5.568   6.372 -0.0114  0.3374  0.4741
  160SAPE   HN117871   5.469   5.488   6.434 -1.2269  0.5543  1.2988
  160SAPE   HN217872   5.459   5.550   6.271 -0.8417  0.5923  0.2908
  160SAPE   HN317873   5.518   5.634   6.400  0.5110 -0.3982  0.8629
  160SAPE   C1217874   5.315   5.632   6.388  0.3182 -0.3369 -0.5169
  160SAPE  H12A17875   5.237   5.556   6.366 -2.7038  1.9760  1.4383
  160SAPE  H12B17876   5.306   5.708   6.307  0.1340  2.2302  1.7371
  160SAPE   C1117877   5.309   5.715   6.530  0.6196  0.0763  1.2002
  160SAPE  H11A17878   5.299   5.638   6.610 -0.2354 -1.4790 -0.3200
  160SAPE  H11B17879   5.213   5.771   6.525  1.1308  0.9176  0.7026
  160SAPE     P17880   5.440   5.944   6.506  0.2560  0.8926  0.0106
  160SAPE   O1317881   5.581   5.976   6.531  0.3139 -0.3419  0.3183
  160SAPE   O1417882   5.400   5.948   6.367 -0.1270  0.9772  0.0679
  160SAPE   O1217883   5.426   5.792   6.549  0.5157 -0.7930  0.7702
  160SAPE   O1117884   5.343   6.024   6.602  0.3229 -0.1847 -0.4207
  160SAPE    C117885   5.366   6.023   6.752  0.2280 -0.2564  0.2716
  160SAPE    HA17886   5.381   5.919   6.785 -0.9698 -0.7879 -0.7439
  160SAPE    HB17887   5.457   6.079   6.781 -0.4704  0.6701  0.7445
  160SAPE    C217888   5.242   6.072   6.838  0.2876 -0.9885  0.5442
  160SAPE    HS17889   5.254   6.036   6.943  0.6084 -1.5280  0.3264
  160SAPE   O2117890   5.111   6.026   6.781 -0.2092  0.5763 -0.2850
  160SAPE   C2117891   5.086   5.902   6.815  0.1259 -0.1182  0.2929
  160SAPE   O2217892   5.151   5.826   6.885  0.0126  0.1976 -0.1429
  160SAPE   C2217893   4.949   5.867   6.757  0.3691  0.0228  0.2109
  160SAPE   H2R17894   4.943   5.896   6.650 -0.7643 -0.7690  0.0437
  160SAPE   H2S17895   4.929   5.758   6.766  3.7862 -0.7512 -0.3748
  160SAPE    C317896   5.234   6.229   6.844 -0.8395  0.3843  0.9413
  160SAPE    HX17897   5.148   6.234   6.914 -1.0014 -2.3616  1.0623
  160SAPE    HY17898   5.211   6.282   6.749 -0.1117  1.0696  1.1429
  160SAPE   O3117899   5.356   6.285   6.906 -0.4938 -0.2429 -0.4217
  160SAPE   C3117900   5.375   6.417   6.872 -0.1238  0.4773 -0.5305
  160SAPE   O3217901   5.306   6.485   6.799 -0.2666  0.6245 -0.4888
  160SAPE   C3217902   5.519   6.443   6.922  0.0977 -0.5243 -0.7643
  160SAPE   H2X17903   5.573   6.514   6.855 -0.0036  0.5742  0.2788
  160SAPE   H2Y17904   5.586   6.355   6.931  0.0420 -0.6908 -1.8402
  160SAPE   C2317905   4.840   5.953   6.828 -0.3132 -0.2232 -0.4055
  160SAPE   H3R17906   4.751   5.938   6.763  2.1058  0.2323 -4.1359
  160SAPE   H3S17907   4.877   6.054   6.801 -0.7657 -0.4631 -2.0352
  160SAPE   C2417908   4.808   5.923   6.980 -1.0038 -0.6919  0.3454
  160SAPE   H4R17909   4.896   5.949   7.041 -2.1640  2.0131  1.0298
  160SAPE   H4S17910   4.787   5.814   6.986 -2.6995 -0.4248  0.0395
  160SAPE   C2517911   4.686   6.002   7.023 -0.7750  0.1288 -0.2006
  160SAPE   H5R17912   4.604   6.007   6.949 -0.2611  0.5070 -0.7537
  160SAPE   C2617913   4.673   6.074   7.136  0.5024 -0.2124 -0.0934
  160SAPE   H6R17914   4.571   6.107   7.160  0.4503  0.1808 -0.8050
  160SAPE   C2717915   4.776   6.099   7.240 -0.1038  0.4953  0.1185
  160SAPE   H7R17916   4.748   6.198   7.282 -0.1935 -0.1477  1.6321
  160SAPE   H7S17917   4.874   6.115   7.190  0.1267 -2.6153 -0.6052
  160SAPE   C2817918   4.806   6.004   7.351  0.0273  0.7184  0.5081
  160SAPE   H8R17919   4.811   5.898   7.322 -0.1482  0.8157  0.1223
  160SAPE   C2917920   4.837   6.030   7.481  0.3909  0.0914 -0.4007
  160SAPE   H9R17921   4.842   5.947   7.553 -1.3886  0.3904  0.1339
  160SAPE  C21017922   4.843   6.158   7.557 -0.3080  0.0334 -0.2654
  160SAPE  H10R17923   4.744   6.194   7.592 -1.2211 -2.8339  0.3858
  160SAPE  H10S17924   4.897   6.242   7.509  0.1640  0.9469  1.7253
  160SAPE  C21117925   4.918   6.150   7.689  0.4824  0.0656 -0.0276
  160SAPE  H11R17926   4.998   6.224   7.696 -2.0462  3.0194 -0.1922
  160SAPE  C21217927   4.894   6.075   7.798 -0.5473 -0.2675 -0.8948
  160SAPE  H12R17928   4.956   6.086   7.888 -0.3512  0.5631 -1.1248
  160SAPE  C21317929   4.778   5.978   7.825 -0.6468  0.1979 -0.6597
  160SAPE  H13R17930   4.827   5.884   7.857  1.5761  1.9035  1.3544
  160SAPE  H13S17931   4.736   5.942   7.728 -1.1515 -0.5849 -0.1576
  160SAPE  C21417932   4.678   6.039   7.926 -0.0890  0.2567  0.2379
  160SAPE  H14R17933   4.596   6.090   7.874  0.5058 -0.2926 -1.2937
  160SAPE  C21517934   4.672   6.030   8.061 -0.0840  0.6984  0.2858
  160SAPE  H15R17935   4.586   6.073   8.115  0.0964 -1.2228  2.2525
  160SAPE  C21617936   4.773   5.943   8.138 -0.0872  0.1615 -0.1425
  160SAPE  H16R17937   4.871   5.994   8.123 -0.7495  1.2073 -1.0495
  160SAPE  H16S17938   4.772   5.841   8.095 -1.2489 -0.2361  0.7870
  160SAPE  C21717939   4.747   5.928   8.290  0.0183  0.7258  0.1520
  160SAPE  H17R17940   4.844   5.909   8.340 -1.6815 -0.0544  3.4187
  160SAPE  H17S17941   4.704   5.827   8.304  0.3415  0.5271 -0.2596
  160SAPE  C21817942   4.676   6.043   8.363  0.0165 -0.0989  0.4409
  160SAPE  H18R17943   4.568   6.044   8.336 -0.4344  0.0819  2.1274
  160SAPE  H18S17944   4.716   6.141   8.332 -0.6759  0.7961  2.2422
  160SAPE  C21917945   4.698   6.029   8.514 -0.1377 -0.3124  0.5705
  160SAPE  H19R17946   4.802   6.058   8.537 -1.2089  2.8570  1.8821
  160SAPE  H19S17947   4.679   5.920   8.531 -0.2296 -0.5427 -0.8412
  160SAPE  C22017948   4.621   6.120   8.611 -0.0567 -0.0547  0.4587
  160SAPE  H20R17949   4.638   6.077   8.712  2.1451  0.1869  0.2304
  160SAPE  H20S17950   4.515   6.123   8.577 -0.1850  1.9007  0.9187
  160SAPE  H20T17951   4.665   6.222   8.600 -1.4016  0.5620  0.6109
  160SAPE   C3317952   5.522   6.489   7.069 -1.2130  0.3632 -0.0114
  160SAPE   H3X17953   5.626   6.510   7.102 -1.0594 -1.8753  1.1685
  160SAPE   H3Y17954   5.476   6.413   7.136 -1.1346  0.2803 -0.0519
  160SAPE   C3417955   5.448   6.624   7.081 -0.6451 -0.4655  0.2989
  160SAPE   H4X17956   5.339   6.618   7.063 -0.5145 -0.2898 -0.6049
  160SAPE   H4Y17957   5.482   6.683   6.993 -3.0457 -3.0114 -2.5455
  160SAPE   C3517958   5.472   6.693   7.216 -0.5889 -0.3090  0.8434
  160SAPE   H5X17959   5.578   6.718   7.237 -0.0388 -1.4378 -0.4324
  160SAPE   H5Y17960   5.438   6.616   7.288 -1.7598  0.5581  1.2437
  160SAPE   C3617961   5.390   6.827   7.223  0.4892 -0.0337  0.1847
  160SAPE   H6X17962   5.281   6.810   7.205  0.2776  1.0515  0.3896
  160SAPE   H6Y17963   5.425   6.889   7.138 -0.1945 -0.1350 -0.1805
  160SAPE   C3717964   5.401   6.912   7.353 -0.1019  0.1677 -0.6634
  160SAPE   H7X17965   5.342   7.005   7.366  1.2625  1.0218 -0.3743
  160SAPE   H7Y17966   5.504   6.954   7.362 -0.8302  1.9968 -0.4541
  160SAPE   C3817967   5.378   6.823   7.482 -0.4243  0.5632  0.0482
  160SAPE   H8X17968   5.458   6.747   7.478  0.5535  1.2924  3.0418
  160SAPE   H8Y17969   5.281   6.769   7.476 -0.6540  1.0213 -0.5494
  160SAPE   C3917970   5.393   6.906   7.610  0.2104  0.2847  0.2021
  160SAPE   H9X17971   5.332   6.998   7.602 -1.4326 -0.7197  0.7613
  160SAPE   H9Y17972   5.501   6.934   7.610  0.2731  0.0523  0.7905
  160SAPE  C31017973   5.379   6.814   7.731  0.2827 -0.5755  0.1099
  160SAPE  H10X17974   5.469   6.749   7.732  0.9253  0.2666  2.1260
  160SAPE  H10Y17975   5.291   6.745   7.732  1.1062 -1.7362  3.1202
  160SAPE  C31117976   5.386   6.894   7.861  0.0972 -0.1389 -0.0060
  160SAPE  H11X17977   5.318   6.983   7.862 -1.2909 -1.1426  1.3403
  160SAPE  H11Y17978   5.489   6.928   7.883  0.1233  0.3272 -0.8266
  160SAPE  C31217979   5.355   6.806   7.982 -0.4098  0.4656 -0.1303
  160SAPE  H12X17980   5.405   6.708   7.963 -1.8658 -0.3430  0.0606
  160SAPE  H12Y17981   5.245   6.792   7.976 -0.9171  3.8707 -0.7757
  160SAPE  C31317982   5.384   6.868   8.119 -0.4314 -0.5467  0.2191
  160SAPE  H13X17983   5.493   6.893   8.115 -0.8461  1.4010 -0.0500
  160SAPE  H13Y17984   5.370   6.798   8.204 -1.4533 -0.0619  0.4634
  160SAPE  C31417985   5.309   6.999   8.140 -0.3687  0.0843  0.0636
  160SAPE  H14X17986   5.201   6.996   8.115 -0.5192  3.0823  0.0188
  160SAPE  H14Y17987   5.352   7.074   8.072 -0.7067  0.8803  0.7072
  160SAPE  C31517988   5.330   7.043   8.293 -0.2331 -0.7381 -0.4128
  160SAPE  H15X17989   5.428   7.093   8.300 -1.7508  2.3771  0.3116
  160SAPE  H15Y17990   5.324   6.961   8.369  1.1657  1.7349  2.5824
  160SAPE  C31617991   5.232   7.159   8.340  0.1219  0.1672  0.8272
  160SAPE  H16X17992   5.127   7.124   8.331 -0.1021  1.1914 -0.9957
  160SAPE  H16Y17993   5.251   7.248   8.276  0.5817  1.4135  2.6278
  160SAPE  C31717994   5.265   7.195   8.483 -0.4257 -0.0863  0.1815
  160SAPE  H17X17995   5.375   7.209   8.483 -0.6005  1.5958  1.3748
  160SAPE  H17Y17996   5.240   7.106   8.545  0.6377 -0.8795 -0.4968
  160SAPE  C31817997   5.198   7.323   8.534 -0.1256 -0.0199  0.6953
  160SAPE  H18X17998   5.230   7.404   8.464 -1.1793 -1.3399 -1.4364
  160SAPE  H18Y17999   5.230   7.352   8.636 -1.7105  2.6753  0.5090
  160SAPE  H18Z18000   5.088   7.317   8.526 -0.3714  3.9123 -1.7806
  161SAPE     N18001   0.499   5.634   6.308  0.2408  0.0940  0.9381
  161SAPE   HN118002   0.420   5.676   6.362 -2.5576 -1.2401 -1.7786
  161SAPE   HN218003   0.523   5.550   6.365 -2.0491 -0.9585  0.4545
  161SAPE   HN318004   0.580   5.699   6.300 -0.5711  0.8800 -2.5509
  161SAPE   C1218005   0.444   5.578   6.177 -0.2733 -0.2089 -0.6889
  161SAPE  H12A18006   0.537   5.576   6.116 -0.3234 -2.2608 -0.7684
  161SAPE  H12B18007   0.358   5.640   6.145 -1.6353 -1.5786  0.1322
  161SAPE   C1118008   0.384   5.436   6.201  0.5811  0.0293 -0.2877
  161SAPE  H11A18009   0.447   5.351   6.235 -0.4604 -0.6780 -0.0553
  161SAPE  H11B18010   0.354   5.397   6.101 -3.3632 -1.5270  1.2811
  161SAPE     P18011   0.213   5.293   6.330 -0.3404 -0.3643 -0.0069
  161SAPE   O1318012   0.089   5.312   6.411 -0.4840  0.6355 -0.3737
  161SAPE   O1418013   0.217   5.207   6.211 -0.2715  0.3248  0.4688
  161SAPE   O1218014   0.271   5.437   6.293  0.1251  0.0179  0.1128
  161SAPE   O1118015   0.332   5.255   6.422  0.0806 -0.1345  0.5776
  161SAPE    C118016   0.321   5.188   6.543  0.1718 -0.2288 -0.2014
  161SAPE    HA18017   0.230   5.125   6.546  0.1205 -0.4848 -3.2543
  161SAPE    HB18018   0.405   5.116   6.556 -1.9844 -2.9996 -0.5481
  161SAPE    C218019   0.308   5.287   6.660  0.4512  0.8386  0.2990
  161SAPE    HS18020   0.294   5.386   6.611 -1.2142  1.6802  2.3261
  161SAPE   O2118021   0.428   5.296   6.736 -0.6347  0.0972 -0.0859
  161SAPE   C2118022   0.472   5.408   6.782 -0.4594 -0.2951  0.1234
  161SAPE   O2218023   0.433   5.520   6.763  0.5291  0.3033  0.5407
  161SAPE   C2218024   0.585   5.383   6.866  0.0558  0.0914 -0.5961
  161SAPE   H2R18025   0.659   5.323   6.808 -1.4266 -0.1539 -2.3372
  161SAPE   H2S18026   0.643   5.477   6.883  0.8131 -0.5046  0.1621
  161SAPE    C318027   0.181   5.262   6.748 -0.3515  0.4010  0.6521
  161SAPE    HX18028   0.163   5.157   6.781  1.7380 -0.1664  0.1124
  161SAPE    HY18029   0.093   5.273   6.680 -0.5560 -1.5406  0.5399
  161SAPE   O3118030   0.182   5.345   6.863 -0.2311  0.3461 -0.2703
  161SAPE   C3118031   0.120   5.465   6.847  0.4829  0.2351 -0.1096
  161SAPE   O3218032   0.071   5.499   6.739  0.4621  0.0112  0.3052
  161SAPE   C3218033   0.118   5.540   6.979  0.4693  0.1042  0.6331
  161SAPE   H2X18034   0.052   5.493   7.055  1.3866 -1.1528  0.6876
  161SAPE   H2Y18035   0.082   5.643   6.955  2.5028  0.4562 -1.2779
  161SAPE   C2318036   0.545   5.302   6.995 -0.6257 -0.2981  0.7215
  161SAPE   H3R18037   0.456   5.238   6.975 -2.0144  1.8754 -0.5351
  161SAPE   H3S18038   0.506   5.370   7.074 -2.0083 -1.2227  0.8727
  161SAPE   C2418039   0.668   5.237   7.060  0.1511 -0.1515  0.5926
  161SAPE   H4R18040   0.751   5.310   7.069  1.9279 -1.7148 -1.7697
  161SAPE   H4S18041   0.722   5.172   6.987  0.8744  0.1018  0.8976
  161SAPE   C2518042   0.647   5.166   7.190  1.0425 -0.0762 -0.4358
  161SAPE   H5R18043   0.626   5.060   7.171 -0.2215  0.1149 -0.1971
  161SAPE   C2618044   0.650   5.214   7.316 -0.3837 -0.6796  0.2392
  161SAPE   H6R18045   0.635   5.143   7.399 -2.5649 -1.2426 -0.5616
  161SAPE   C2718046   0.675   5.357   7.355  0.6042 -0.3259  0.2491
  161SAPE   H7R18047   0.671   5.429   7.270  1.0391  0.5472  0.9608
  161SAPE   H7S18048   0.784   5.360   7.378  0.6035 -2.5691  0.7651
  161SAPE   C2818049   0.593   5.422   7.470 -0.3450  0.1929  0.6361
  161SAPE   H8R18050   0.529   5.507   7.439 -0.2921  0.9621  2.5134
  161SAPE   C2918051   0.595   5.379   7.603 -0.6200  0.0953  0.5754
  161SAPE   H9R18052   0.532   5.425   7.680 -3.4625  0.2150 -1.6436
  161SAPE  C21018053   0.687   5.267   7.650 -0.1957  0.0961  1.1886
  161SAPE  H10R18054   0.787   5.277   7.603  0.4365 -2.4516  1.8434
  161SAPE  H10S18055   0.636   5.173   7.617  0.7088  0.1847 -0.5895
  161SAPE  C21118056   0.693   5.265   7.803 -0.3433 -0.7122  0.1547
  161SAPE  H11R18057   0.794   5.285   7.843 -0.5902  4.7711 -1.2009
  161SAPE  C21218058   0.595   5.226   7.886  0.0551  0.4605 -0.1251
  161SAPE  H12R18059   0.617   5.240   7.993  0.0154  0.9683 -0.1805
  161SAPE  C21318060   0.453   5.191   7.855 -0.3299  0.3836 -0.5527
  161SAPE  H13R18061   0.425   5.217   7.750  1.0567  2.0895 -0.5394
  161SAPE  H13S18062   0.393   5.253   7.924 -0.0722 -1.3949  1.3514
  161SAPE  C21418063   0.429   5.039   7.868 -0.4794 -0.1951  0.0387
  161SAPE  H14R18064   0.512   4.978   7.829 -0.2634 -0.2836  0.6194
  161SAPE  C21518065   0.334   4.984   7.941  0.7266  0.2703 -0.5683
  161SAPE  H15R18066   0.332   4.876   7.956 -0.4129  0.1889 -1.1422
  161SAPE  C21618067   0.226   5.057   8.021  0.5436 -0.1299 -0.0444
  161SAPE  H16R18068   0.147   4.982   8.042 -0.2074  0.3857 -0.9886
  161SAPE  H16S18069   0.169   5.134   7.966  0.4383  0.9629  1.5169
  161SAPE  C21718070   0.267   5.123   8.157  0.3565  0.1468  1.0423
  161SAPE  H17R18071   0.346   5.201   8.146  3.7226 -2.9773  1.3234
  161SAPE  H17S18072   0.303   5.039   8.219 -0.6438 -1.8937 -0.9932
  161SAPE  C21818073   0.142   5.184   8.225 -1.0347 -0.4486 -0.0466
  161SAPE  H18R18074   0.071   5.111   8.269  0.4552 -1.5857  0.5657
  161SAPE  H18S18075   0.096   5.248   8.147 -0.5142  1.2451  0.9712
  161SAPE  C21918076   0.182   5.282   8.338 -0.1352  0.2520 -0.2060
  161SAPE  H19R18077   0.232   5.223   8.418 -0.9080  1.0211  0.8612
  161SAPE  H19S18078   0.086   5.326   8.373 -0.6903 -0.6362 -0.5682
  161SAPE  C22018079   0.277   5.398   8.307 -0.1007  0.2163 -0.1474
  161SAPE  H20R18080   0.251   5.454   8.215 -0.9683 -1.2934 -0.8675
  161SAPE  H20S18081   0.378   5.358   8.281 -0.1622 -0.3203  0.4118
  161SAPE  H20T18082   0.288   5.465   8.395  0.3890  1.4979 -1.1602
  161SAPE   C3318083   0.261   5.568   7.029  0.1097  0.0827 -1.0126
  161SAPE   H3X18084   0.329   5.616   6.955  1.2718 -1.5825 -1.1008
  161SAPE   H3Y18085   0.301   5.468   7.059 -0.4042  0.8045  2.4037
  161SAPE   C3418086   0.257   5.665   7.157  0.3770 -0.2603  0.5370
  161SAPE   H4X18087   0.151   5.671   7.188 -0.6989  1.1403 -2.8960
  161SAPE   H4Y18088   0.288   5.767   7.124  1.6291 -1.3805 -2.0985
  161SAPE   C3518089   0.344   5.626   7.284  0.4388 -0.1546 -0.3053
  161SAPE   H5X18090   0.451   5.626   7.253  0.4511  1.0691 -0.3310
  161SAPE   H5Y18091   0.321   5.522   7.315  1.4419 -0.4355 -0.4532
  161SAPE   C3618092   0.321   5.731   7.402 -0.0891 -0.2144 -0.0857
  161SAPE   H6X18093   0.212   5.744   7.415 -0.0314  1.1134 -0.7239
  161SAPE   H6Y18094   0.362   5.830   7.372  0.1055 -0.0700  0.6461
  161SAPE   C3718095   0.374   5.692   7.541  0.7206 -0.0364  0.3405
  161SAPE   H7X18096   0.485   5.689   7.540  0.7694  1.2088  0.0146
  161SAPE   H7Y18097   0.343   5.587   7.556  2.2403 -0.6532 -0.5455
  161SAPE   C3818098   0.326   5.797   7.650  0.1310  0.5137  0.3412
  161SAPE   H8X18099   0.217   5.801   7.665 -0.0157  0.3623 -0.6116
  161SAPE   H8Y18100   0.374   5.892   7.619  0.5916  0.2759  0.3065
  161SAPE   C3918101   0.388   5.755   7.781 -0.3440  0.6834  0.1786
  161SAPE   H9X18102   0.391   5.827   7.866  1.2797 -0.9167  1.5727
  161SAPE   H9Y18103   0.497   5.739   7.766  0.0786  1.9788  1.5300
  161SAPE  C31018104   0.322   5.622   7.825 -0.2096  0.2167  0.9360
  161SAPE  H10X18105   0.345   5.537   7.758 -2.1824  1.1155 -1.0239
  161SAPE  H10Y18106   0.212   5.637   7.824 -0.4262 -1.1650 -0.8430
  161SAPE  C31118107   0.360   5.584   7.967 -0.0218  0.2780  0.0026
  161SAPE  H11X18108   0.302   5.498   8.006  0.7251 -0.0417  0.4256
  161SAPE  H11Y18109   0.342   5.675   8.029  0.2830 -0.2021  0.8084
  161SAPE  C31218110   0.509   5.563   7.988 -0.1758  0.4897  0.3495
  161SAPE  H12X18111   0.572   5.655   7.989  1.8221 -0.8286  1.4385
  161SAPE  H12Y18112   0.549   5.493   7.911 -1.1629 -1.1383  1.2639
  161SAPE  C31318113   0.524   5.493   8.126  0.0245  0.4599 -0.3820
  161SAPE  H13X18114   0.487   5.389   8.115 -1.8201  1.3336 -4.4576
  161SAPE  H13Y18115   0.465   5.552   8.199  1.0547  0.4366  0.4821
  161SAPE  C31418116   0.671   5.503   8.174 -0.0085 -1.0555  0.3936
  161SAPE  H14X18117   0.696   5.611   8.182  0.6628 -1.2667  1.2368
  161SAPE  H14Y18118   0.735   5.443   8.106  0.8129 -0.1552  0.3383
  161SAPE  C31518119   0.697   5.446   8.315  0.4395 -0.5455  0.2334
  161SAPE  H15X18120   0.682   5.336   8.324  2.3066 -1.0234 -1.7298
  161SAPE  H15Y18121   0.632   5.503   8.385 -2.8282 -0.6469 -2.4498
  161SAPE  C31618122   0.845   5.464   8.361  0.1077 -0.1107 -0.5015
  161SAPE  H16X18123   0.862   5.573   8.355 -2.2075  0.5367  2.2134
  161SAPE  H16Y18124   0.925   5.419   8.298 -0.3609 -2.4011  0.4244
  161SAPE  C31718125   0.862   5.427   8.509  0.6130  0.0778  0.0550
  161SAPE  H17X18126   0.855   5.316   8.511  1.3999 -0.0454 -1.7183
  161SAPE  H17Y18127   0.774   5.453   8.571 -0.5299 -0.1799 -1.4114
  161SAPE  C31818128   0.981   5.480   8.582 -0.1737 -0.1988 -0.2298
  161SAPE  H18X18129   0.966   5.589   8.567  1.9564  0.1448 -0.2545
  161SAPE  H18Y18130   1.080   5.454   8.537  0.0451  2.4163 -1.4863
  161SAPE  H18Z18131   0.972   5.466   8.692  1.0290 -0.4112 -0.1419
  162SAPE     N18132   0.247   0.139   6.140 -1.2345  0.2328 -0.2989
  162SAPE   HN118133   0.232   0.107   6.237 -0.6775  0.4165 -0.1449
  162SAPE   HN218134   0.157   0.117   6.094 -0.8624  1.0259 -1.4526
  162SAPE   HN318135   0.325   0.076   6.112 -0.9481  0.6574 -0.4756
  162SAPE   C1218136   0.292   0.280   6.129 -0.0302  0.0818  0.1712
  162SAPE  H12A18137   0.330   0.299   6.027 -0.1886  0.3571  0.1621
  162SAPE  H12B18138   0.377   0.293   6.199  0.8689  1.3715 -1.1024
  162SAPE   C1118139   0.172   0.372   6.184  0.0240  0.7435  0.2318
  162SAPE  H11A18140   0.203   0.475   6.212  1.9084  0.0920  0.6944
  162SAPE  H11B18141   0.139   0.331   6.282 -1.1303 -0.1961 -0.5129
  162SAPE     P18142  -0.060   0.293   6.082 -0.0378  0.8075  0.1493
  162SAPE   O1318143  -0.174   0.376   6.118  0.5380  0.5346  0.6727
  162SAPE   O1418144  -0.058   0.234   5.952  0.0795  0.9540 -0.1204
  162SAPE   O1218145   0.063   0.386   6.090 -0.6590  1.2381  0.6807
  162SAPE   O1118146  -0.019   0.187   6.191 -0.8019 -0.1382 -0.5844
  162SAPE    C118147  -0.116   0.109   6.266 -0.5700  0.3082  0.1302
  162SAPE    HA18148  -0.219   0.127   6.226  0.4464  0.5768 -2.5991
  162SAPE    HB18149  -0.094   0.005   6.235  1.0181  0.7118 -0.1911
  162SAPE    C218150  -0.121   0.117   6.419 -0.4930 -0.1609 -1.0699
  162SAPE    HS18151  -0.170   0.215   6.438  0.4054  0.2251 -0.7177
  162SAPE   O2118152   0.008   0.111   6.476 -0.5681  0.0616  0.4025
  162SAPE   C2118153   0.054   0.213   6.541 -0.1782  0.3601 -0.4196
  162SAPE   O2218154  -0.013   0.315   6.563 -0.2460 -1.1663  0.1554
  162SAPE   C2218155   0.192   0.189   6.597 -0.4423  0.2638  1.2274
  162SAPE   H2R18156   0.204   0.087   6.638  0.2425  0.4221  1.4411
  162SAPE   H2S18157   0.269   0.207   6.519 -0.7104 -1.4973  0.5191
  162SAPE    C318158  -0.210   0.011   6.489  0.6275  0.2089 -0.5525
  162SAPE    HX18159  -0.189  -0.090   6.446  2.0563 -0.7853  2.2400
  162SAPE    HY18160  -0.315   0.034   6.462  0.0925 -0.8348  0.5535
  162SAPE   O3118161  -0.183  -0.005   6.632  0.3706  0.0710 -0.3802
  162SAPE   C3118162  -0.250   0.077   6.709  0.0776 -0.1205 -0.2981
  162SAPE   O3218163  -0.307   0.175   6.660  0.2053  0.1541  0.4802
  162SAPE   C3218164  -0.253   0.040   6.861 -0.0202 -0.4620  0.0553
  162SAPE   H2X18165  -0.157   0.063   6.911  0.6951 -1.0535 -1.0150
  162SAPE   H2Y18166  -0.267  -0.070   6.861 -0.9141 -0.3709 -1.3252
  162SAPE   C2318167   0.225   0.281   6.719 -0.4298 -0.0196 -0.3423
  162SAPE   H3R18168   0.155   0.252   6.800 -1.7235  0.9887 -1.0407
  162SAPE   H3S18169   0.207   0.389   6.700 -1.3768  0.1940  1.5181
  162SAPE   C2418170   0.368   0.256   6.772 -0.4356  0.3759 -0.1851
  162SAPE   H4R18171   0.389   0.340   6.842  0.6679 -0.9356  1.1192
  162SAPE   H4S18172   0.425   0.261   6.677  0.6962 -3.0486  0.1854
  162SAPE   C2518173   0.398   0.130   6.839  0.2730  0.2205 -0.0266
  162SAPE   H5R18174   0.430   0.046   6.775  0.2649  0.7581 -0.7526
  162SAPE   C2618175   0.412   0.105   6.971 -0.4212 -0.3952 -0.1064
  162SAPE   H6R18176   0.461   0.012   7.000  1.1511  0.5972  0.5499
  162SAPE   C2718177   0.409   0.212   7.083 -0.1093  0.6842  0.5188
  162SAPE   H7R18178   0.324   0.196   7.153  0.7390  1.0094  1.6594
  162SAPE   H7S18179   0.404   0.312   7.035  0.5945 -0.5034 -2.2503
  162SAPE   C2818180   0.534   0.203   7.163  0.0993 -0.9876 -0.1952
  162SAPE   H8R18181   0.626   0.259   7.136  1.0864 -0.0747  4.2222
  162SAPE   C2918182   0.551   0.121   7.270  0.2461  0.0577 -0.7488
  162SAPE   H9R18183   0.648   0.124   7.321  0.2917  0.5710 -0.8645
  162SAPE  C21018184   0.442   0.033   7.328 -0.7736  0.1288  0.2536
  162SAPE  H10R18185   0.494  -0.062   7.351 -1.0061 -0.6139 -1.9913
  162SAPE  H10S18186   0.357   0.013   7.259 -0.4197  1.8359 -0.7366
  162SAPE  C21118187   0.392   0.092   7.454 -0.4354  0.4435  0.5606
  162SAPE  H11R18188   0.383   0.201   7.459 -0.1530  0.4168  1.9899
  162SAPE  C21218189   0.352   0.023   7.560 -0.2774 -0.0995  0.8220
  162SAPE  H12R18190   0.302   0.073   7.644 -2.0652  1.8125 -1.2575
  162SAPE  C21318191   0.345  -0.128   7.562  0.5801 -0.3125 -0.2000
  162SAPE  H13R18192   0.434  -0.161   7.620  2.4218  1.7673 -1.6648
  162SAPE  H13S18193   0.357  -0.173   7.461  2.0139 -0.0259 -0.1752
  162SAPE  C21418194   0.209  -0.170   7.616  0.3792 -0.2272 -0.6000
  162SAPE  H14R18195   0.127  -0.148   7.546 -0.2044  0.9241  0.4128
  162SAPE  C21518196   0.180  -0.220   7.735 -0.1122  0.2046  0.2652
  162SAPE  H15R18197   0.077  -0.236   7.769 -0.4538 -0.1418 -0.8948
  162SAPE  C21618198   0.272  -0.251   7.845  0.4829  0.4405  0.2848
  162SAPE  H16R18199   0.320  -0.154   7.871 -2.9295  2.3095  0.0787
  162SAPE  H16S18200   0.356  -0.315   7.809  0.8147  1.3119 -0.5254
  162SAPE  C21718201   0.191  -0.307   7.968  0.7607 -0.3231  0.8932
  162SAPE  H17R18202   0.152  -0.407   7.941 -1.6200  0.8836 -0.4873
  162SAPE  H17S18203   0.099  -0.245   7.979  0.5096 -0.3911 -0.6194
  162SAPE  C21818204   0.255  -0.342   8.099  0.2975 -0.3113  0.0267
  162SAPE  H18R18205   0.289  -0.243   8.134 -1.5885  0.2808  0.3066
  162SAPE  H18S18206   0.341  -0.409   8.077  0.9870  1.4802 -3.2915
  162SAPE  C21918207   0.163  -0.407   8.198 -0.4268 -0.3880 -0.6176
  162SAPE  H19R18208   0.158  -0.515   8.171  0.6236 -0.2154 -1.5815
  162SAPE  H19S18209   0.061  -0.363   8.194 -0.5236 -0.7043 -1.9086
  162SAPE  C22018210   0.223  -0.407   8.337 -0.5474  0.3072 -0.5117
  162SAPE  H20R18211   0.241  -0.308   8.383 -2.5991  0.9872 -1.0777
  162SAPE  H20S18212   0.314  -0.471   8.343 -2.2701 -2.3549 -1.2390
  162SAPE  H20T18213   0.151  -0.449   8.410  1.1903  1.3353  1.9291
  162SAPE   C3318214  -0.375   0.088   6.948  0.4909 -0.0128 -0.6325
  162SAPE   H3X18215  -0.469   0.072   6.890  0.1050  1.8500 -0.5797
  162SAPE   H3Y18216  -0.364   0.198   6.951 -2.1531  0.3335  1.3760
  162SAPE   C3418217  -0.373   0.024   7.092  0.3613 -0.1136  0.0447
  162SAPE   H4X18218  -0.316   0.088   7.162  0.5428  1.2474 -1.3209
  162SAPE   H4Y18219  -0.328  -0.077   7.083 -0.0549 -0.3449  0.4477
  162SAPE   C3518220  -0.512   0.010   7.150  0.2116 -0.2999 -0.3183
  162SAPE   H5X18221  -0.577  -0.069   7.107 -0.3816 -0.4598  0.8173
  162SAPE   H5Y18222  -0.571   0.103   7.137 -1.2540 -1.0936  0.4860
  162SAPE   C3618223  -0.502  -0.019   7.301  0.4445  0.2383  0.5954
  162SAPE   H6X18224  -0.435  -0.105   7.322  0.1183  0.3097  2.0496
  162SAPE   H6Y18225  -0.607  -0.045   7.326 -0.4482 -0.3918 -3.2761
  162SAPE   C3718226  -0.463   0.099   7.388 -0.2802  0.2880  0.7951
  162SAPE   H7X18227  -0.560   0.152   7.405 -0.4299  0.4558 -0.4808
  162SAPE   H7Y18228  -0.407   0.173   7.328  0.1505  0.1601  1.0371
  162SAPE   C3818229  -0.410   0.068   7.529 -0.4318 -0.1141  0.0937
  162SAPE   H8X18230  -0.393   0.160   7.589  0.2405 -1.9234  2.8820
  162SAPE   H8Y18231  -0.309   0.022   7.524  0.2398  0.7518  3.4740
  162SAPE   C3918232  -0.494  -0.020   7.620  0.3216  0.5140 -0.3686
  162SAPE   H9X18233  -0.515  -0.115   7.566 -0.3355  1.2392 -1.4467
  162SAPE   H9Y18234  -0.595   0.025   7.635 -1.6989 -3.5650 -0.3033
  162SAPE  C31018235  -0.412  -0.034   7.750 -0.4164  0.1784 -0.2289
  162SAPE  H10X18236  -0.388   0.065   7.793  1.7839 -0.1705 -0.5522
  162SAPE  H10Y18237  -0.313  -0.083   7.740 -0.6939 -0.6388  0.8134
  162SAPE  C31118238  -0.498  -0.106   7.860 -0.0580  0.1436  0.4263
  162SAPE  H11X18239  -0.529  -0.207   7.827 -0.5957  0.1858  0.7886
  162SAPE  H11Y18240  -0.591  -0.047   7.873 -1.0059 -0.8408 -1.5159
  162SAPE  C31218241  -0.415  -0.109   7.996 -0.7724 -0.3336  0.1316
  162SAPE  H12X18242  -0.402  -0.001   8.017 -0.6679 -0.1038 -1.0421
  162SAPE  H12Y18243  -0.324  -0.169   7.977 -1.6298 -1.4990 -0.4475
  162SAPE  C31318244  -0.500  -0.173   8.103  0.0272  0.1520 -0.4344
  162SAPE  H13X18245  -0.596  -0.118   8.105  0.9738  1.9809 -2.3117
  162SAPE  H13Y18246  -0.443  -0.164   8.198  0.2671  1.2775 -0.6755
  162SAPE  C31418247  -0.517  -0.320   8.086 -0.4661  0.5347  0.0915
  162SAPE  H14X18248  -0.431  -0.373   8.041  0.4623  0.1419  2.1987
  162SAPE  H14Y18249  -0.608  -0.328   8.023  1.4685  2.2466 -3.1941
  162SAPE  C31518250  -0.556  -0.403   8.212 -1.0102  0.6043  0.4118
  162SAPE  H15X18251  -0.590  -0.501   8.171  0.9174  2.0059 -5.6024
  162SAPE  H15Y18252  -0.645  -0.352   8.254  0.3416  3.5238 -0.0517
  162SAPE  C31618253  -0.444  -0.410   8.316 -0.0150 -0.0259  0.7364
  162SAPE  H16X18254  -0.487  -0.473   8.397  0.0717  1.5604  2.0717
  162SAPE  H16Y18255  -0.426  -0.309   8.360 -1.1663  0.5311 -0.0440
  162SAPE  C31718256  -0.314  -0.459   8.267 -0.1949  0.2278  0.0340
  162SAPE  H17X18257  -0.288  -0.388   8.186 -0.2659  0.2654  0.0432
  162SAPE  H17Y18258  -0.327  -0.563   8.231  1.0984 -0.4139  1.3244
  162SAPE  C31818259  -0.194  -0.453   8.364 -0.3408  0.6076  0.0262
  162SAPE  H18X18260  -0.144  -0.354   8.368  2.1063 -0.5918  1.1898
  162SAPE  H18Y18261  -0.127  -0.533   8.328 -1.5324 -0.2829 -0.2752
  162SAPE  H18Z18262  -0.227  -0.478   8.468  1.6855  2.0411  1.0842
  163SAPE     N18263   5.293   4.962   6.565 -0.0634 -0.5630 -0.0314
  163SAPE   HN118264   5.367   4.905   6.519 -0.6528  0.6852 -2.7234
  163SAPE   HN218265   5.208   4.904   6.576 -0.3041  0.1398  2.2495
  163SAPE   HN318266   5.275   5.041   6.499 -0.0755 -0.6058 -0.0794
  163SAPE   C1218267   5.331   5.006   6.704  0.5954 -0.4215  0.4029
  163SAPE  H12A18268   5.428   5.060   6.701 -0.2327  1.1626  0.9397
  163SAPE  H12B18269   5.334   4.910   6.760 -0.9931 -1.2861 -0.8963
  163SAPE   C1118270   5.215   5.097   6.759  0.6206  0.3836 -0.4710
  163SAPE  H11A18271   5.231   5.141   6.859  0.5642 -3.6111  1.4984
  163SAPE  H11B18272   5.134   5.028   6.792  0.2842  0.2579 -1.5129
  163SAPE     P18273   5.213   5.345   6.682  0.0643  0.1000 -0.2694
  163SAPE   O1318274   5.356   5.338   6.703  0.2631 -0.3827  0.3537
  163SAPE   O1418275   5.158   5.429   6.577 -0.1053  0.1951  0.2972
  163SAPE   O1218276   5.158   5.194   6.667 -0.0377  0.1726 -0.1384
  163SAPE   O1118277   5.142   5.378   6.816 -0.4395 -0.0446 -0.1288
  163SAPE    C118278   5.033   5.465   6.830  0.1595 -0.8506 -0.0518
  163SAPE    HA18279   5.069   5.569   6.816 -0.9980 -0.3161  0.7674
  163SAPE    HB18280   4.953   5.448   6.755  1.0043 -0.0426 -1.1645
  163SAPE    C218281   4.963   5.447   6.970 -0.3942  0.0572 -0.6722
  163SAPE    HS18282   4.871   5.509   6.970 -0.3313  0.2861  2.1046
  163SAPE   O2118283   5.048   5.493   7.076  0.0195  0.0539 -0.1681
  163SAPE   C2118284   5.007   5.593   7.149  0.4091  0.1891  0.6856
  163SAPE   O2218285   4.890   5.633   7.146 -0.4545 -0.3249  0.1914
  163SAPE   C2218286   5.123   5.647   7.230 -0.4036 -0.7279 -0.7281
  163SAPE   H2R18287   5.129   5.563   7.302  2.6927  0.0583  0.0869
  163SAPE   H2S18288   5.215   5.653   7.168 -1.0114 -2.6253 -1.9168
  163SAPE    C318289   4.924   5.290   6.967  0.3107 -0.0277 -0.1445
  163SAPE    HX18290   5.018   5.240   6.937  1.2738  0.1204  2.3888
  163SAPE    HY18291   4.843   5.264   6.896  1.3191 -0.2597 -1.2404
  163SAPE   O3118292   4.904   5.239   7.105 -0.3921 -0.4499 -0.3692
  163SAPE   C3118293   4.796   5.267   7.168 -0.3166  0.8307 -0.5106
  163SAPE   O3218294   4.698   5.321   7.122  0.7560 -0.1122  0.8550
  163SAPE   C3218295   4.810   5.204   7.313  0.1844  0.0663  0.3361
  163SAPE   H2X18296   4.849   5.287   7.375  0.8748  0.1951 -0.2508
  163SAPE   H2Y18297   4.891   5.127   7.312  0.3838  0.2065  2.3691
  163SAPE   C2318298   5.095   5.782   7.299  0.8285  0.0435 -0.1349
  163SAPE   H3R18299   5.016   5.776   7.377 -0.4585  1.0534 -1.3036
  163SAPE   H3S18300   5.046   5.847   7.223 -0.9826 -1.4125 -0.2796
  163SAPE   C2418301   5.218   5.865   7.331  0.2968 -1.0482  0.5634
  163SAPE   H4R18302   5.201   5.968   7.370  1.1911 -0.6180 -0.1393
  163SAPE   H4S18303   5.285   5.884   7.244  0.4728 -1.3844  0.6262
  163SAPE   C2518304   5.303   5.791   7.430 -0.0362 -0.0863  0.1821
  163SAPE   H5R18305   5.402   5.763   7.389 -0.7734 -0.5498 -1.3561
  163SAPE   C2618306   5.281   5.755   7.558 -0.3913  0.0003  0.5000
  163SAPE   H6R18307   5.361   5.708   7.617  0.8280  0.7581 -0.5140
  163SAPE   C2718308   5.154   5.790   7.641 -0.1911 -0.6591 -0.0219
  163SAPE   H7R18309   5.093   5.866   7.589  1.6734  2.0311  1.4362
  163SAPE   H7S18310   5.197   5.853   7.722 -1.3171  1.2170 -0.8402
  163SAPE   C2818311   5.072   5.677   7.689 -0.3007  0.2959  0.8373
  163SAPE   H8R18312   5.042   5.607   7.609 -0.4863  0.9995  0.2772
  163SAPE   C2918313   5.016   5.665   7.817 -0.6955  0.1500  0.2661
  163SAPE   H9R18314   4.973   5.568   7.845 -3.1277  1.4571  1.3397
  163SAPE  C21018315   5.044   5.746   7.943 -0.2960 -0.2824  0.2977
  163SAPE  H10R18316   4.946   5.756   7.994 -0.6935 -0.6663 -0.3753
  163SAPE  H10S18317   5.081   5.848   7.918  0.1625 -0.4864  0.1314
  163SAPE  C21118318   5.137   5.674   8.027  0.6754  0.0918 -0.3198
  163SAPE  H11R18319   5.235   5.673   7.978  0.6835 -3.6724 -0.5101
  163SAPE  C21218320   5.111   5.601   8.136  0.6109  1.3108 -0.0786
  163SAPE  H12R18321   5.193   5.553   8.193 -1.0970 -1.8304  0.0084
  163SAPE  C21318322   4.977   5.588   8.199  0.3864  0.2209 -0.1566
  163SAPE  H13R18323   4.899   5.609   8.122 -1.2126 -1.3585  0.9545
  163SAPE  H13S18324   4.962   5.673   8.269  0.8048  1.0039 -0.9945
  163SAPE  C21418325   4.956   5.454   8.270  0.1175 -0.3557 -0.3376
  163SAPE  H14R18326   5.007   5.370   8.221  1.0163  0.6317 -1.1501
  163SAPE  C21518327   4.903   5.445   8.396 -0.0806  0.5823  0.4082
  163SAPE  H15R18328   4.894   5.351   8.452 -0.0384  1.0015  1.1298
  163SAPE  C21618329   4.844   5.551   8.483 -0.9025  0.3401 -0.1580
  163SAPE  H16R18330   4.750   5.514   8.529 -0.4879 -0.8597 -0.2285
  163SAPE  H16S18331   4.832   5.645   8.425 -0.5764  0.2206 -0.4228
  163SAPE  C21718332   4.941   5.590   8.599 -0.1359  0.2836  0.3297
  163SAPE  H17R18333   4.900   5.673   8.660  1.8101  0.4367  1.5158
  163SAPE  H17S18334   5.035   5.630   8.555 -1.3808  0.5002 -2.3470
  163SAPE  C21818335   4.978   5.477   8.690  0.5789  0.1184 -0.0035
  163SAPE  H18R18336   5.041   5.516   8.773 -0.7648 -0.9136  1.5775
  163SAPE  H18S18337   5.037   5.395   8.644  0.2556 -0.6803  0.9678
  163SAPE  C21918338   4.867   5.402   8.766  0.3068 -0.2706  0.2316
  163SAPE  H19R18339   4.825   5.329   8.693 -1.7312 -1.1640  2.1598
  163SAPE  H19S18340   4.781   5.468   8.789  0.5530  0.7573 -1.6278
  163SAPE  C22018341   4.927   5.338   8.894  0.3415 -0.7551 -0.1149
  163SAPE  H20R18342   4.988   5.406   8.957 -2.8475  1.5466  0.7574
  163SAPE  H20S18343   4.998   5.255   8.873  0.8880 -0.1435 -0.6975
  163SAPE  H20T18344   4.840   5.300   8.954  0.1858 -2.2713 -1.2435
  163SAPE   C3318345   4.684   5.141   7.375  0.0475  0.2945  0.3073
  163SAPE   H3X18346   4.657   5.041   7.336 -0.1902  1.3458 -2.4222
  163SAPE   H3Y18347   4.589   5.193   7.350 -1.0809 -0.4921  2.6397
  163SAPE   C3418348   4.717   5.116   7.519 -0.6846  0.1528  0.0695
  163SAPE   H4X18349   4.619   5.105   7.570 -0.3399 -0.0761  0.6855
  163SAPE   H4Y18350   4.774   5.202   7.560  0.7786 -0.7811  0.0411
  163SAPE   C3518351   4.799   4.980   7.547 -0.0107 -0.3722 -0.0550
  163SAPE   H5X18352   4.892   4.978   7.486  0.3577 -0.3956  0.5036
  163SAPE   H5Y18353   4.730   4.898   7.518 -0.8054  0.6607 -1.2094
  163SAPE   C3618354   4.836   4.960   7.691  0.4110  0.6690 -0.4003
  163SAPE   H6X18355   4.915   5.032   7.721  1.7364 -1.0253  0.2876
  163SAPE   H6Y18356   4.889   4.863   7.696  2.6049  1.6490 -2.7896
  163SAPE   C3718357   4.720   4.958   7.795 -0.7351  0.5034 -0.0637
  163SAPE   H7X18358   4.646   4.884   7.755 -1.0210  0.3811  0.6839
  163SAPE   H7Y18359   4.670   5.055   7.778 -1.8719 -0.1431 -0.5056
  163SAPE   C3818360   4.743   4.934   7.948  0.3819  0.0171 -0.1921
  163SAPE   H8X18361   4.640   4.940   7.988 -0.2326 -0.8359 -1.5547
  163SAPE   H8Y18362   4.791   5.027   7.985  0.4437 -0.3669  0.7204
  163SAPE   C3918363   4.824   4.817   7.992  0.3864  0.0598  0.0229
  163SAPE   H9X18364   4.927   4.824   7.950  0.2685 -1.6233 -0.6132
  163SAPE   H9Y18365   4.785   4.723   7.948 -0.9401  0.9189 -0.6908
  163SAPE  C31018366   4.837   4.803   8.145 -1.1648 -0.8207  0.5081
  163SAPE  H10X18367   4.864   4.899   8.193  0.7393 -0.9171 -0.3042
  163SAPE  H10Y18368   4.921   4.733   8.161 -1.4500 -1.0477  1.0229
  163SAPE  C31118369   4.716   4.745   8.208 -0.2725 -0.2288  0.4243
  163SAPE  H11X18370   4.698   4.642   8.168 -2.9972  0.7840 -1.2667
  163SAPE  H11Y18371   4.630   4.802   8.165  0.9894 -0.2984 -2.4593
  163SAPE  C31218372   4.710   4.747   8.357  0.1985  0.1441 -1.0389
  163SAPE  H12X18373   4.730   4.847   8.402  4.9138 -1.0800  0.2057
  163SAPE  H12Y18374   4.801   4.690   8.384  0.4530  1.0295  0.0650
  163SAPE  C31318375   4.587   4.668   8.407 -0.1122  0.3014 -0.0824
  163SAPE  H13X18376   4.580   4.582   8.338  1.7841  1.2808 -1.5903
  163SAPE  H13Y18377   4.496   4.731   8.395  0.1964  0.5811 -1.0029
  163SAPE  C31418378   4.597   4.626   8.548  0.0954  0.4855 -0.6325
  163SAPE  H14X18379   4.694   4.576   8.569  0.4847  0.3908 -2.5141
  163SAPE  H14Y18380   4.516   4.552   8.568  0.4877 -0.5605 -2.6739
  163SAPE  C31518381   4.579   4.744   8.648 -0.1446  0.2965  0.1119
  163SAPE  H15X18382   4.477   4.782   8.623 -0.6641 -1.6210 -0.8580
  163SAPE  H15Y18383   4.651   4.827   8.631 -0.4794  0.2703 -1.6307
  163SAPE  C31618384   4.565   4.704   8.799 -0.1675 -0.4716 -0.6550
  163SAPE  H16X18385   4.657   4.692   8.859  0.2420 -0.5322 -1.2913
  163SAPE  H16Y18386   4.503   4.611   8.802 -2.3408  0.9179 -0.0890
  163SAPE  C31718387   4.485   4.816   8.879 -0.1556  0.2971  0.6408
  163SAPE  H17X18388   4.383   4.821   8.836  0.2707  2.9780 -0.2360
  163SAPE  H17Y18389   4.538   4.912   8.863 -0.1331 -0.1005 -2.1513
  163SAPE  C31818390   4.473   4.790   9.032  0.1767  0.1082  0.0359
  163SAPE  H18X18391   4.456   4.684   9.062  0.5267  0.3072  0.9449
  163SAPE  H18Y18392   4.393   4.854   9.075 -0.2960 -1.3443  1.4375
  163SAPE  H18Z18393   4.562   4.834   9.081 -0.4092  1.4799 -0.0930
  164SAPE     N18394   4.060   1.921   6.342 -0.6152 -0.0547 -0.7379
  164SAPE   HN118395   4.126   2.000   6.324  0.1110 -0.2058  1.0793
  164SAPE   HN218396   4.043   1.926   6.444 -1.2872 -1.7658 -0.7386
  164SAPE   HN318397   4.107   1.831   6.319 -0.0595 -0.1508  0.6781
  164SAPE   C1218398   3.943   1.946   6.255 -0.7838 -0.2497  0.6738
  164SAPE  H12A18399   3.972   1.927   6.150  0.6911  1.3291  0.7636
  164SAPE  H12B18400   3.923   2.054   6.268 -0.8859 -0.4249  2.1937
  164SAPE   C1118401   3.821   1.863   6.295 -0.4492  0.4976  0.3452
  164SAPE  H11A18402   3.805   1.871   6.405 -0.8361  1.8263  0.2183
  164SAPE  H11B18403   3.840   1.757   6.267  0.5857  0.7223  0.1883
  164SAPE     P18404   3.596   1.837   6.155  0.1788  0.0729 -0.6311
  164SAPE   O1318405   3.476   1.917   6.129 -0.1688 -0.3058 -0.0954
  164SAPE   O1418406   3.647   1.767   6.034  0.3546  0.0468 -0.1814
  164SAPE   O1218407   3.707   1.922   6.228 -0.0912 -0.2246 -0.6287
  164SAPE   O1118408   3.564   1.724   6.261  0.1653  0.2195 -0.3040
  164SAPE    C118409   3.521   1.768   6.391  0.2688 -0.5406 -0.2269
  164SAPE    HA18410   3.589   1.716   6.463 -0.0076 -1.5965 -0.6993
  164SAPE    HB18411   3.534   1.875   6.416 -3.5995 -0.2852  1.3231
  164SAPE    C218412   3.380   1.717   6.422 -0.2287 -0.2340 -0.0643
  164SAPE    HS18413   3.320   1.768   6.342 -0.2860  0.2767  0.2970
  164SAPE   O2118414   3.344   1.765   6.551 -0.7199  0.2582 -0.3696
  164SAPE   C2118415   3.215   1.774   6.575  0.2201  0.4697 -0.2437
  164SAPE   O2218416   3.128   1.750   6.486  0.4079  0.1586  0.3386
  164SAPE   C2218417   3.192   1.826   6.712 -0.5828  0.2027  0.2808
  164SAPE   H2R18418   3.088   1.864   6.721 -0.9440 -1.0063  1.5427
  164SAPE   H2S18419   3.201   1.730   6.768  2.4845 -0.4446 -1.0792
  164SAPE    C318420   3.372   1.563   6.396  0.1387  0.1009  0.5124
  164SAPE    HX18421   3.387   1.546   6.288 -1.8055  0.3016  0.1842
  164SAPE    HY18422   3.266   1.541   6.419 -0.8890  3.6712 -0.2381
  164SAPE   O3118423   3.469   1.479   6.461 -0.1167 -0.0653  0.1067
  164SAPE   C3118424   3.451   1.460   6.588 -0.6482  0.2235  0.5835
  164SAPE   O3218425   3.353   1.495   6.649  0.1343 -0.6518  0.1098
  164SAPE   C3218426   3.563   1.375   6.646  0.2000 -0.3125 -0.1403
  164SAPE   H2X18427   3.659   1.398   6.596  2.1496 -3.0253  2.0477
  164SAPE   H2Y18428   3.540   1.268   6.624  1.3000 -0.2332 -1.8748
  164SAPE   C2318429   3.286   1.943   6.745  0.1735 -0.2987  0.0539
  164SAPE   H3R18430   3.272   2.023   6.670 -0.5000  0.2563  0.7616
  164SAPE   H3S18431   3.391   1.913   6.724  0.1015 -0.4724 -0.0639
  164SAPE   C2418432   3.269   1.994   6.891 -0.1310 -0.2821  0.1497
  164SAPE   H4R18433   3.349   2.065   6.921 -0.6949 -0.3584  1.9607
  164SAPE   H4S18434   3.283   1.904   6.954  0.7337 -1.0497 -1.0789
  164SAPE   C2518435   3.135   2.063   6.913  0.3074 -0.1729 -0.5724
  164SAPE   H5R18436   3.126   2.161   6.865 -0.4575  0.4309  0.7751
  164SAPE   C2618437   3.029   2.039   6.988 -0.5923  0.0665  0.6603
  164SAPE   H6R18438   2.937   2.098   6.970 -0.6492 -0.2472 -0.1369
  164SAPE   C2718439   3.006   1.917   7.079 -0.1911 -0.4572  0.2177
  164SAPE   H7R18440   2.926   1.926   7.156  1.3916  0.8858  1.8142
  164SAPE   H7S18441   3.098   1.905   7.141  0.8531 -1.2454 -1.4389
  164SAPE   C2818442   2.969   1.787   7.010 -0.5151  0.5819 -0.3435
  164SAPE   H8R18443   2.925   1.795   6.910  0.0751  0.2683 -0.6316
  164SAPE   C2918444   2.983   1.662   7.057 -0.1061 -0.0456  0.5163
  164SAPE   H9R18445   2.945   1.583   6.990 -0.2741  1.6092 -1.4133
  164SAPE  C21018446   3.033   1.616   7.187  0.3997  0.0674 -0.7244
  164SAPE  H10R18447   3.043   1.702   7.257 -0.0609  0.6540 -1.3624
  164SAPE  H10S18448   3.132   1.567   7.175  0.8280  0.4829  0.8184
  164SAPE  C21118449   2.946   1.515   7.251  0.1478 -0.0937  0.3873
  164SAPE  H11R18450   2.894   1.449   7.180  0.3842  0.1256  0.0070
  164SAPE  C21218451   2.951   1.487   7.383 -0.5883 -0.8952  0.1196
  164SAPE  H12R18452   2.880   1.413   7.420  0.5153 -2.7997 -1.4071
  164SAPE  C21318453   3.051   1.564   7.473 -0.7116 -0.4633  0.4190
  164SAPE  H13R18454   3.028   1.673   7.466  1.8050  0.1137  0.0868
  164SAPE  H13S18455   3.151   1.551   7.426 -1.9342 -0.3455 -2.4371
  164SAPE  C21418456   3.052   1.523   7.618 -0.1234  1.1696  0.2737
  164SAPE  H14R18457   2.966   1.562   7.674  0.7009  2.4435  0.7064
  164SAPE  C21518458   3.148   1.445   7.682  0.1887  0.2408  0.0132
  164SAPE  H15R18459   3.146   1.413   7.787  2.2496  1.2311  0.4024
  164SAPE  C21618460   3.266   1.375   7.615  0.6785 -0.3886  0.6446
  164SAPE  H16R18461   3.234   1.338   7.515  0.2291 -1.0426  1.0231
  164SAPE  H16S18462   3.289   1.280   7.668 -1.7952 -0.6893  1.2803
  164SAPE  C21718463   3.388   1.478   7.596  0.5328  0.1000  0.3273
  164SAPE  H17R18464   3.352   1.552   7.522  1.1998 -1.2324 -1.4106
  164SAPE  H17S18465   3.465   1.419   7.541  0.1405 -0.0467 -0.0640
  164SAPE  C21818466   3.446   1.543   7.730 -0.2444  0.3959  0.2483
  164SAPE  H18R18467   3.488   1.464   7.797  2.8121  0.6678 -1.1967
  164SAPE  H18S18468   3.368   1.610   7.772  0.1517  1.3960 -0.5821
  164SAPE  C21918469   3.570   1.633   7.700  0.0300  0.0661 -0.8105
  164SAPE  H19R18470   3.551   1.696   7.610  1.6144  2.4677  0.4139
  164SAPE  H19S18471   3.651   1.562   7.672 -0.8789 -0.9097 -1.0237
  164SAPE  C22018472   3.610   1.744   7.800 -0.7011  0.1621  0.4552
  164SAPE  H20R18473   3.610   1.709   7.906  1.8853 -1.2082  0.0769
  164SAPE  H20S18474   3.541   1.831   7.789 -0.3712  0.2694 -0.9095
  164SAPE  H20T18475   3.713   1.770   7.769 -1.4151  0.6632 -1.6030
  164SAPE   C3318476   3.593   1.383   6.798 -0.4228 -0.0917  0.6775
  164SAPE   H3X18477   3.499   1.371   6.856  0.1404 -1.4360  1.3599
  164SAPE   H3Y18478   3.634   1.484   6.819 -2.2299  0.8898 -0.2815
  164SAPE   C3418479   3.701   1.280   6.840 -0.6577  0.5112  0.3923
  164SAPE   H4X18480   3.781   1.275   6.763  0.4131 -0.1229  1.5074
  164SAPE   H4Y18481   3.679   1.172   6.844  1.9998 -0.0697  1.8683
  164SAPE   C3518482   3.770   1.312   6.974  0.4303  0.0110  0.7404
  164SAPE   H5X18483   3.828   1.404   6.955  1.2200 -0.2563  1.7691
  164SAPE   H5Y18484   3.841   1.229   6.995  1.8160  0.8410 -0.5008
  164SAPE   C3618485   3.668   1.337   7.081  0.5129  0.6779 -0.5450
  164SAPE   H6X18486   3.606   1.245   7.092 -0.4972  1.4252  0.1980
  164SAPE   H6Y18487   3.607   1.426   7.054 -0.5117  1.2534  3.1261
  164SAPE   C3718488   3.731   1.378   7.218  0.0830  0.9110 -0.4212
  164SAPE   H7X18489   3.641   1.396   7.280 -1.0363 -3.7356 -0.3011
  164SAPE   H7Y18490   3.796   1.464   7.192 -0.2858  1.0859 -0.7745
  164SAPE   C3818491   3.816   1.274   7.291  0.0733 -0.3139  0.0431
  164SAPE   H8X18492   3.901   1.247   7.226  1.1475  0.2278  1.1926
  164SAPE   H8Y18493   3.763   1.176   7.288  0.3507 -0.4487 -0.6180
  164SAPE   C3918494   3.862   1.317   7.429  0.1938 -0.3337  0.3219
  164SAPE   H9X18495   3.873   1.427   7.428 -2.6926  0.0444 -0.8935
  164SAPE   H9Y18496   3.954   1.269   7.468  0.5935  0.3013  0.1561
  164SAPE  C31018497   3.769   1.296   7.557 -0.5211  0.3326  0.7013
  164SAPE  H10X18498   3.674   1.347   7.533  1.0830  3.3236  0.2609
  164SAPE  H10Y18499   3.817   1.361   7.633  2.8340 -0.0190 -0.9382
  164SAPE  C31118500   3.760   1.151   7.606 -0.0025 -0.4708  0.6649
  164SAPE  H11X18501   3.863   1.111   7.615  0.3239  0.0538 -0.5763
  164SAPE  H11Y18502   3.696   1.094   7.535 -2.2937 -0.3436  2.5060
  164SAPE  C31218503   3.685   1.145   7.750  0.8453  0.2581  0.0076
  164SAPE  H12X18504   3.679   1.038   7.780 -1.0572  0.6742  1.3218
  164SAPE  H12Y18505   3.586   1.195   7.743  0.1989 -1.1044 -1.0771
  164SAPE  C31318506   3.761   1.223   7.856 -0.3830  0.3846 -0.2325
  164SAPE  H13X18507   3.766   1.329   7.824 -2.0709 -0.1082 -2.3473
  164SAPE  H13Y18508   3.864   1.179   7.855 -0.4426  0.2438 -1.3605
  164SAPE  C31418509   3.711   1.210   7.997 -0.2886 -0.4260 -0.5216
  164SAPE  H14X18510   3.708   1.101   8.015  1.9605 -0.3119  1.0231
  164SAPE  H14Y18511   3.610   1.256   7.999 -0.3628 -0.5531 -1.1693
  164SAPE  C31518512   3.809   1.276   8.094 -0.5010 -0.5751 -0.3356
  164SAPE  H15X18513   3.754   1.365   8.131 -0.1462 -0.1474 -0.8419
  164SAPE  H15Y18514   3.908   1.294   8.047 -0.4114 -2.7903 -1.1139
  164SAPE  C31618515   3.843   1.187   8.225 -0.5696 -0.1533  0.1290
  164SAPE  H16X18516   3.917   1.238   8.289  0.2991 -0.8453 -0.3109
  164SAPE  H16Y18517   3.882   1.092   8.182  0.8269  0.5394 -0.1654
  164SAPE  C31718518   3.726   1.177   8.313  0.8192 -0.5794 -0.3983
  164SAPE  H17X18519   3.642   1.119   8.268  0.2054  0.8240 -1.1115
  164SAPE  H17Y18520   3.695   1.282   8.329  0.7782 -0.9264  2.1019
  164SAPE  C31818521   3.755   1.119   8.450  0.0865 -0.3454  0.9115
  164SAPE  H18X18522   3.849   1.152   8.499  1.2070 -0.4237 -1.0711
  164SAPE  H18Y18523   3.766   1.009   8.446  1.5579 -0.3113  2.8169
  164SAPE  H18Z18524   3.662   1.130   8.510  0.2549 -1.4533  1.3954
  165SAPE     N18525   1.121   5.501   6.183 -0.1153  0.6052  0.5653
  165SAPE   HN118526   1.142   5.596   6.149 -3.0288  0.8121 -0.9914
  165SAPE   HN218527   1.206   5.441   6.189 -2.0671 -2.3102  1.9291
  165SAPE   HN318528   1.069   5.453   6.107  0.2741  0.4862  0.3719
  165SAPE   C1218529   1.027   5.502   6.298 -0.3079  0.5344  0.4593
  165SAPE  H12A18530   1.068   5.566   6.379  1.6020  0.2807 -0.2564
  165SAPE  H12B18531   1.011   5.394   6.320  2.1183  0.3206  1.4678
  165SAPE   C1118532   0.894   5.569   6.260 -0.7902  0.2114  0.1005
  165SAPE  H11A18533   0.828   5.548   6.347  2.5145 -1.3018  2.4603
  165SAPE  H11B18534   0.849   5.529   6.166 -0.6867  2.7999 -1.1379
  165SAPE     P18535   0.857   5.827   6.296  0.0163 -0.0715  0.2061
  165SAPE   O1318536   0.901   5.946   6.220 -0.1778 -0.3123 -0.4620
  165SAPE   O1418537   0.708   5.809   6.309  0.2992  0.1065 -0.1667
  165SAPE   O1218538   0.919   5.706   6.224  0.4549 -0.0970  0.1715
  165SAPE   O1118539   0.934   5.820   6.434  0.0278  0.1405  0.3618
  165SAPE    C118540   1.069   5.859   6.442  0.4636 -0.3473  0.1186
  165SAPE    HA18541   1.138   5.786   6.394  0.6147 -0.0801 -0.0793
  165SAPE    HB18542   1.090   5.961   6.402  2.4227 -0.1962  1.3867
  165SAPE    C218543   1.112   5.876   6.586 -0.2824 -0.5664  0.5029
  165SAPE    HS18544   1.221   5.893   6.600 -0.2899  0.8351 -0.9697
  165SAPE   O2118545   1.060   5.765   6.665 -0.3586 -0.2451 -0.1442
  165SAPE   C2118546   1.149   5.662   6.668  0.3014  0.1846 -0.3816
  165SAPE   O2218547   1.257   5.652   6.608  0.9913 -0.0549  0.3250
  165SAPE   C2218548   1.107   5.558   6.777 -0.1494  0.2101  1.0085
  165SAPE   H2R18549   0.998   5.559   6.798 -0.8450 -0.4835 -2.0808
  165SAPE   H2S18550   1.129   5.462   6.725  0.3807 -0.3554  2.2266
  165SAPE    C318551   1.053   6.006   6.645  0.0809 -0.6713  0.0938
  165SAPE    HX18552   0.945   5.998   6.622 -0.8595 -0.0724  3.7405
  165SAPE    HY18553   1.088   6.095   6.589 -0.3330 -0.8866 -0.5122
  165SAPE   O3118554   1.061   6.017   6.788 -0.2845  0.2361 -0.3176
  165SAPE   C3118555   1.128   6.122   6.837 -0.3734  0.7026 -0.8932
  165SAPE   O3218556   1.196   6.199   6.769  0.5988 -0.2326 -0.7985
  165SAPE   C3218557   1.106   6.126   6.986  0.0862 -0.2275  0.2628
  165SAPE   H2X18558   1.077   6.027   7.028  1.1612  0.5699  3.1605
  165SAPE   H2Y18559   1.018   6.193   6.995  0.1744  0.0391 -0.7428
  165SAPE   C2318560   1.197   5.575   6.906  0.2677  0.1700  0.5250
  165SAPE   H3R18561   1.144   5.651   6.967 -1.7669  0.4891 -1.5054
  165SAPE   H3S18562   1.303   5.604   6.887  1.0638 -2.9028 -0.3612
  165SAPE   C2418563   1.193   5.444   6.984 -0.3977  0.0995 -0.4005
  165SAPE   H4R18564   1.261   5.456   7.071 -0.6145  0.5726 -0.2936
  165SAPE   H4S18565   1.241   5.368   6.918 -1.2816  1.3845 -2.6258
  165SAPE   C2518566   1.060   5.394   7.018  0.3031  0.7888  0.5189
  165SAPE   H5R18567   1.000   5.366   6.931  2.5225  1.1179 -1.2150
  165SAPE   C2618568   1.019   5.387   7.148  0.3605 -0.4109  0.5180
  165SAPE   H6R18569   0.922   5.344   7.175  0.9414 -2.4661 -0.4810
  165SAPE   C2718570   1.097   5.430   7.269 -0.3768 -0.0430  0.6447
  165SAPE   H7R18571   1.018   5.435   7.347 -1.0977  1.9566 -0.1442
  165SAPE   H7S18572   1.140   5.533   7.269 -0.9356  0.2016  1.7087
  165SAPE   C2818573   1.206   5.337   7.334 -0.0239  0.1032  0.6320
  165SAPE   H8R18574   1.234   5.253   7.269  1.4051  0.8377  0.2672
  165SAPE   C2918575   1.261   5.360   7.455  0.1690 -0.0152 -0.1602
  165SAPE   H9R18576   1.351   5.301   7.477 -0.1485 -0.5909 -0.3722
  165SAPE  C21018577   1.228   5.457   7.566  0.7522 -1.1698 -0.7351
  165SAPE  H10R18578   1.120   5.434   7.585  0.7023 -0.9798 -0.7866
  165SAPE  H10S18579   1.233   5.560   7.526  1.0586 -0.3833  1.2014
  165SAPE  C21118580   1.320   5.447   7.692  0.4621 -0.3851  0.1092
  165SAPE  H11R18581   1.425   5.464   7.665  0.3568 -0.0555 -0.0974
  165SAPE  C21218582   1.288   5.442   7.820 -0.6267  0.4176 -0.2642
  165SAPE  H12R18583   1.364   5.446   7.900 -0.6384 -1.0537 -0.1402
  165SAPE  C21318584   1.151   5.434   7.880  0.2094 -0.4550  0.7198
  165SAPE  H13R18585   1.082   5.472   7.802  1.7414  2.3790  0.6101
  165SAPE  H13S18586   1.137   5.510   7.959  1.0173 -0.5984  1.0125
  165SAPE  C21418587   1.116   5.291   7.930 -0.3811  0.0920  0.2046
  165SAPE  H14R18588   1.036   5.248   7.867 -2.0324  0.1754  2.1477
  165SAPE  C21518589   1.174   5.226   8.032  0.6178 -0.6540 -0.1561
  165SAPE  H15R18590   1.125   5.130   8.051 -1.4449 -0.0178 -1.8310
  165SAPE  C21618591   1.277   5.277   8.126  0.2975 -0.6924  0.5715
  165SAPE  H16R18592   1.294   5.385   8.102 -0.3054 -0.8242 -0.5165
  165SAPE  H16S18593   1.366   5.217   8.099 -0.8568 -2.2654  0.1579
  165SAPE  C21718594   1.254   5.270   8.275  0.1377  0.4243 -0.7855
  165SAPE  H17R18595   1.155   5.308   8.308  1.1781  2.0033  0.6591
  165SAPE  H17S18596   1.338   5.328   8.319  0.7363  0.8421 -2.3754
  165SAPE  C21818597   1.255   5.125   8.328 -0.2157  0.2645 -0.0050
  165SAPE  H18R18598   1.359   5.091   8.346 -1.4094 -2.3436  2.9825
  165SAPE  H18S18599   1.190   5.063   8.264 -2.4676  1.0360  1.3845
  165SAPE  C21918600   1.199   5.112   8.476  0.3837 -0.2022 -1.1301
  165SAPE  H19R18601   1.194   5.007   8.511 -0.1610  0.0080 -0.5717
  165SAPE  H19S18602   1.090   5.131   8.475  0.3099 -0.4005 -3.8027
  165SAPE  C22018603   1.278   5.188   8.589 -0.4703  0.4337  0.9644
  165SAPE  H20R18604   1.230   5.166   8.687 -1.0624  0.4493  0.6808
  165SAPE  H20S18605   1.277   5.295   8.559  0.3386  0.1287 -0.2073
  165SAPE  H20T18606   1.382   5.151   8.581  0.1561  2.1419  0.8247
  165SAPE   C3318607   1.227   6.185   7.065 -0.5706 -0.3691 -0.6258
  165SAPE   H3X18608   1.247   6.285   7.022 -0.8029 -1.5383 -3.7092
  165SAPE   H3Y18609   1.321   6.126   7.050  0.0064  0.7634 -1.5952
  165SAPE   C3418610   1.187   6.196   7.217  0.3275  0.2742  0.0311
  165SAPE   H4X18611   1.157   6.093   7.248  1.0346 -1.4883 -4.3808
  165SAPE   H4Y18612   1.101   6.266   7.223 -0.0717 -0.2361  0.4445
  165SAPE   C3518613   1.309   6.246   7.309  0.0438  0.6462 -0.2871
  165SAPE   H5X18614   1.350   6.345   7.278  1.9768  0.1553  0.5802
  165SAPE   H5Y18615   1.384   6.168   7.286 -0.2980  0.7402 -1.8462
  165SAPE   C3618616   1.282   6.259   7.460 -0.0652 -0.5876  0.4846
  165SAPE   H6X18617   1.299   6.166   7.518 -2.2731 -0.6285  1.1587
  165SAPE   H6Y18618   1.174   6.280   7.478  0.2528  0.3238  1.3896
  165SAPE   C3718619   1.378   6.357   7.529 -0.3059  0.3715 -0.5071
  165SAPE   H7X18620   1.359   6.461   7.495 -1.3383  0.4768  0.3258
  165SAPE   H7Y18621   1.484   6.328   7.516 -0.8653 -2.2178  0.2064
  165SAPE   C3818622   1.370   6.348   7.684  0.1204 -0.1417  0.6436
  165SAPE   H8X18623   1.434   6.424   7.732 -2.3556  0.2632  3.6125
  165SAPE   H8Y18624   1.400   6.249   7.725 -0.6707 -0.7953 -0.3034
  165SAPE   C3918625   1.237   6.388   7.748 -0.1693  0.0679 -0.3469
  165SAPE   H9X18626   1.155   6.318   7.723  0.0780 -0.1493 -0.5598
  165SAPE   H9Y18627   1.202   6.484   7.705  1.1684  0.8531  0.2427
  165SAPE  C31018628   1.246   6.402   7.902 -0.0269  0.2965  0.5885
  165SAPE  H10X18629   1.145   6.428   7.942  0.3476  3.6871 -0.3261
  165SAPE  H10Y18630   1.319   6.483   7.923  1.2428  0.6360 -3.9782
  165SAPE  C31118631   1.282   6.273   7.972 -0.4585  0.0973  0.0474
  165SAPE  H11X18632   1.393   6.270   7.972 -0.4645 -1.8597  0.3147
  165SAPE  H11Y18633   1.253   6.178   7.921  3.0757 -2.2689  1.9686
  165SAPE  C31218634   1.218   6.268   8.115 -0.0723 -0.2422  0.7635
  165SAPE  H12X18635   1.114   6.234   8.100 -0.5316  1.0037  0.9743
  165SAPE  H12Y18636   1.215   6.374   8.151 -1.6193 -1.1103  3.4732
  165SAPE  C31318637   1.287   6.187   8.232  0.2944 -0.4425  0.0178
  165SAPE  H13X18638   1.393   6.211   8.255  0.1088  1.3088 -0.8020
  165SAPE  H13Y18639   1.282   6.081   8.200  3.6275 -0.7706  0.2277
  165SAPE  C31418640   1.217   6.215   8.365  0.0829  0.2454  0.2417
  165SAPE  H14X18641   1.234   6.132   8.437 -0.3007  0.8866  1.0865
  165SAPE  H14Y18642   1.108   6.231   8.347 -0.2116  1.5926  2.7323
  165SAPE  C31518643   1.267   6.349   8.438 -0.5400 -0.1398  0.0603
  165SAPE  H15X18644   1.250   6.443   8.382  1.8858  0.6285  0.4910
  165SAPE  H15Y18645   1.376   6.337   8.457 -0.4724 -0.8167 -0.7008
  165SAPE  C31618646   1.205   6.374   8.575  0.0419 -0.4246 -0.0532
  165SAPE  H16X18647   1.232   6.295   8.648  0.6154 -1.7619 -1.6393
  165SAPE  H16Y18648   1.094   6.373   8.568 -0.2895 -0.4007  3.4386
  165SAPE  C31718649   1.249   6.513   8.624 -0.2398  0.2495 -0.5012
  165SAPE  H17X18650   1.243   6.579   8.534  2.7387 -0.3241 -1.2608
  165SAPE  H17Y18651   1.357   6.521   8.648 -0.2786  1.4019 -0.6330
  165SAPE  C31818652   1.157   6.559   8.743  0.0535 -0.2584 -0.0683
  165SAPE  H18X18653   1.052   6.547   8.708  0.0662 -2.0142  0.4083
  165SAPE  H18Y18654   1.171   6.666   8.770 -0.6563  0.0370 -0.8156
  165SAPE  H18Z18655   1.167   6.493   8.832 -0.2481  0.7038  0.6969
  166SAPE     N18656   2.323   3.021   5.909 -0.0218 -0.5132  0.4412
  166SAPE   HN118657   2.358   2.938   5.857 -0.3543 -0.8701  0.7860
  166SAPE   HN218658   2.235   3.053   5.865  0.4359 -1.5865 -1.3464
  166SAPE   HN318659   2.394   3.097   5.903  1.2850 -1.7400 -0.2701
  166SAPE   C1218660   2.290   2.979   6.047 -0.3388 -0.0469  0.4484
  166SAPE  H12A18661   2.239   3.062   6.099  1.1774  0.8709  0.5393
  166SAPE  H12B18662   2.386   2.944   6.090 -0.9626 -0.8475  1.2309
  166SAPE   C1118663   2.195   2.859   6.043 -0.0089 -0.0809  0.0732
  166SAPE  H11A18664   2.091   2.884   6.011  0.1438 -2.0721 -2.3356
  166SAPE  H11B18665   2.177   2.810   6.142 -3.0555 -1.1986 -0.9020
  166SAPE     P18666   2.367   2.667   5.984 -0.1051  0.2059  0.4801
  166SAPE   O1318667   2.341   2.535   5.922 -0.2732  1.0064  0.5707
  166SAPE   O1418668   2.486   2.734   5.927 -1.0470  0.5118  0.0395
  166SAPE   O1218669   2.242   2.762   5.944 -0.2225 -0.2091  0.2298
  166SAPE   O1118670   2.368   2.655   6.143  0.0809  0.2285 -0.1058
  166SAPE    C118671   2.317   2.535   6.208  0.0576  0.2255  0.4084
  166SAPE    HA18672   2.210   2.508   6.195 -0.3627  1.7872  0.4105
  166SAPE    HB18673   2.371   2.450   6.163  0.8675  0.7212  0.4190
  166SAPE    C218674   2.341   2.531   6.364  0.1406 -0.6731  0.0090
  166SAPE    HS18675   2.448   2.556   6.383 -0.3914 -0.0165  2.5491
  166SAPE   O2118676   2.305   2.400   6.417 -0.1546 -0.1140 -0.7736
  166SAPE   C2118677   2.378   2.358   6.523 -0.7075 -0.2319  0.1978
  166SAPE   O2218678   2.474   2.421   6.567 -0.1444  0.2405 -0.3977
  166SAPE   C2218679   2.307   2.239   6.581 -0.6049  0.2053 -0.1014
  166SAPE   H2R18680   2.197   2.230   6.564 -0.2351 -1.0967 -2.2187
  166SAPE   H2S18681   2.334   2.150   6.520 -0.3363 -2.1277  3.1794
  166SAPE    C318682   2.265   2.647   6.439 -0.7526  0.0243  0.2112
  166SAPE    HX18683   2.154   2.637   6.436 -0.8789  1.3299  0.0360
  166SAPE    HY18684   2.290   2.741   6.386  0.9783 -0.8792 -0.6576
  166SAPE   O3118685   2.306   2.656   6.575 -0.1061 -0.1307  0.2637
  166SAPE   C3118686   2.244   2.752   6.646  0.5033  0.4833  0.3906
  166SAPE   O3218687   2.176   2.844   6.608  0.2846 -0.0311  0.3355
  166SAPE   C3218688   2.273   2.728   6.790 -0.1437  0.3668  0.1747
  166SAPE   H2X18689   2.383   2.713   6.792 -0.3540 -1.1891  0.9135
  166SAPE   H2Y18690   2.218   2.637   6.821 -0.2750 -1.0837 -3.7341
  166SAPE   C2318691   2.345   2.207   6.729 -0.2069  0.0666  0.3849
  166SAPE   H3R18692   2.454   2.192   6.744 -0.0273  3.2403  3.4195
  166SAPE   H3S18693   2.299   2.109   6.756 -0.0593 -0.5549 -1.4268
  166SAPE   C2418694   2.313   2.324   6.829 -0.4430  0.0993  0.7828
  166SAPE   H4R18695   2.353   2.415   6.779  1.0292 -1.5050 -1.1345
  166SAPE   H4S18696   2.376   2.313   6.919  1.1294  2.8500  0.1112
  166SAPE   C2518697   2.162   2.333   6.843  0.9203 -0.8464  0.4460
  166SAPE   H5R18698   2.111   2.331   6.746  1.4348  0.0699  0.1382
  166SAPE   C2618699   2.097   2.336   6.963 -0.1687  0.1735  0.6147
  166SAPE   H6R18700   1.989   2.318   6.959 -0.0311 -0.4874 -1.7548
  166SAPE   C2718701   2.161   2.330   7.095 -0.2094  0.1501 -0.5013
  166SAPE   H7R18702   2.214   2.232   7.093  0.4659  0.5192 -1.1103
  166SAPE   H7S18703   2.090   2.326   7.180  0.7608 -1.8821  0.3050
  166SAPE   C2818704   2.260   2.431   7.135 -0.7909 -0.4844 -0.2930
  166SAPE   H8R18705   2.317   2.481   7.056  0.3724  2.2311  2.0835
  166SAPE   C2918706   2.294   2.459   7.260  0.1155 -0.0753  0.4694
  166SAPE   H9R18707   2.357   2.547   7.276  1.4127 -0.9655  0.3943
  166SAPE  C21018708   2.233   2.403   7.385  0.3287 -0.0300 -0.5722
  166SAPE  H10R18709   2.145   2.339   7.363  0.1398 -0.5352  1.4399
  166SAPE  H10S18710   2.190   2.491   7.438  2.1909  0.6785 -0.1544
  166SAPE  C21118711   2.318   2.310   7.470 -0.4088  0.0747  0.0440
  166SAPE  H11R18712   2.404   2.267   7.417 -0.4301  0.1420 -0.0462
  166SAPE  C21218713   2.298   2.307   7.599 -0.6867  0.1884  0.6691
  166SAPE  H12R18714   2.364   2.245   7.661  0.6282  1.7050  0.8553
  166SAPE  C21318715   2.181   2.377   7.675 -0.1788  0.2950  0.3306
  166SAPE  H13R18716   2.169   2.318   7.768  0.3544 -0.2456  0.0629
  166SAPE  H13S18717   2.091   2.372   7.610  0.4644  1.6297 -0.7212
  166SAPE  C21418718   2.217   2.521   7.709 -0.2372 -0.0632 -0.3447
  166SAPE  H14R18719   2.254   2.584   7.627 -0.1776  4.4899  2.8509
  166SAPE  C21518720   2.209   2.577   7.829 -0.8715  0.4636 -0.6057
  166SAPE  H15R18721   2.224   2.686   7.834  1.2759  0.1384  2.0442
  166SAPE  C21618722   2.174   2.518   7.965  0.2705  0.4981  0.4579
  166SAPE  H16R18723   2.248   2.436   7.980  2.0744  2.0552  0.4947
  166SAPE  H16S18724   2.079   2.464   7.949  1.0928 -0.5645 -1.0248
  166SAPE  C21718725   2.178   2.617   8.073  0.2174 -0.3250 -0.2357
  166SAPE  H17R18726   2.260   2.690   8.055  1.0502 -1.0993  0.2945
  166SAPE  H17S18727   2.190   2.563   8.170 -0.6921 -0.0818  0.0216
  166SAPE  C21818728   2.040   2.686   8.077 -0.5237 -0.0698  0.5949
  166SAPE  H18R18729   1.976   2.609   8.126 -0.7243  1.0567  2.2016
  166SAPE  H18S18730   1.991   2.701   7.979 -0.5419 -0.1416  0.5926
  166SAPE  C21918731   2.038   2.813   8.167 -0.2222  0.5783  0.5256
  166SAPE  H19R18732   1.929   2.825   8.184  0.0526  0.7846  2.4237
  166SAPE  H19S18733   2.075   2.907   8.122  2.9271  0.0849  1.7793
  166SAPE  C22018734   2.107   2.789   8.303 -0.0669 -0.2412 -0.2519
  166SAPE  H20R18735   2.216   2.768   8.294 -0.0999 -0.1077 -0.9529
  166SAPE  H20S18736   2.046   2.714   8.358 -1.7365  1.2823  0.0902
  166SAPE  H20T18737   2.099   2.884   8.360  1.3751 -0.6869  0.7598
  166SAPE   C3318738   2.234   2.846   6.875 -0.4035  0.1152  0.2618
  166SAPE   H3X18739   2.124   2.857   6.883 -0.1963  2.3399  0.6485
  166SAPE   H3Y18740   2.273   2.940   6.829 -0.6030 -0.8583 -2.0192
  166SAPE   C3418741   2.284   2.836   7.014  0.3490  1.2607 -0.3850
  166SAPE   H4X18742   2.393   2.816   7.014 -0.3528 -4.0531 -0.8683
  166SAPE   H4Y18743   2.233   2.750   7.064  0.2549  1.3142 -0.3879
  166SAPE   C3518744   2.264   2.969   7.083  0.6228  0.0806 -0.8663
  166SAPE   H5X18745   2.160   3.004   7.066  0.3481  0.3453  1.0876
  166SAPE   H5Y18746   2.325   3.045   7.031  0.7750 -0.1672 -1.0540
  166SAPE   C3618747   2.287   2.952   7.231 -0.3999  0.2697  0.1214
  166SAPE   H6X18748   2.377   2.890   7.249 -0.8393  0.0860  1.9197
  166SAPE   H6Y18749   2.197   2.899   7.269 -0.2800  0.4500  0.6738
  166SAPE   C3718750   2.316   3.088   7.299 -0.1752  0.0619 -0.2378
  166SAPE   H7X18751   2.218   3.138   7.319 -0.0648  0.3990 -0.5265
  166SAPE   H7Y18752   2.379   3.155   7.238  1.2040  1.0301  2.1250
  166SAPE   C3818753   2.378   3.080   7.442  0.0688  0.3031  0.7830
  166SAPE   H8X18754   2.421   3.177   7.474 -0.0687  0.8674 -0.6873
  166SAPE   H8Y18755   2.463   3.009   7.443  0.1858  0.4360  0.1351
  166SAPE   C3918756   2.290   3.028   7.557  0.3926 -0.3012  0.3766
  166SAPE   H9X18757   2.239   2.934   7.528 -0.8217  0.2839  0.5422
  166SAPE   H9Y18758   2.204   3.097   7.573  1.2151  1.3895 -1.9576
  166SAPE  C31018759   2.359   3.021   7.689 -0.1845  0.3495 -0.2140
  166SAPE  H10X18760   2.418   3.112   7.713 -1.6162  1.0349  0.7976
  166SAPE  H10Y18761   2.442   2.946   7.689 -0.5032 -0.0734  1.8451
  166SAPE  C31118762   2.267   2.975   7.799 -0.2575  0.3555 -0.1314
  166SAPE  H11X18763   2.222   2.875   7.781  0.7943 -0.6865  2.5029
  166SAPE  H11Y18764   2.187   3.050   7.821  0.3897  0.8308  0.6829
  166SAPE  C31218765   2.351   2.959   7.925  0.0622  0.6054  0.1154
  166SAPE  H12X18766   2.443   2.899   7.911 -0.4220 -0.5737  1.6876
  166SAPE  H12Y18767   2.289   2.898   7.995 -0.4299  2.4642  1.3726
  166SAPE  C31318768   2.366   3.092   8.004 -0.1335  0.0415  0.1268
  166SAPE  H13X18769   2.270   3.138   8.035  0.4627  1.1581  0.3397
  166SAPE  H13Y18770   2.417   3.160   7.933  2.2313 -1.9376 -0.2325
  166SAPE  C31418771   2.458   3.083   8.128  0.9056 -0.3648  0.1369
  166SAPE  H14X18772   2.480   3.180   8.178 -0.6818  0.1271 -0.0408
  166SAPE  H14Y18773   2.554   3.031   8.107  0.9409  0.1766 -1.1454
  166SAPE  C31518774   2.387   3.005   8.235  0.1981 -0.0208  0.1607
  166SAPE  H15X18775   2.338   2.916   8.190  0.4401  0.3050 -0.7681
  166SAPE  H15Y18776   2.294   3.056   8.268 -0.8922 -0.6091 -1.8321
  166SAPE  C31618777   2.463   2.964   8.358  0.4408  0.1426  0.5335
  166SAPE  H16X18778   2.497   2.859   8.349  0.3664  0.0766  1.0403
  166SAPE  H16Y18779   2.393   2.948   8.442  0.7882  0.1674  0.8287
  166SAPE  C31718780   2.573   3.049   8.424  0.3302  0.4204 -0.6180
  166SAPE  H17X18781   2.532   3.148   8.453 -1.5144 -0.8773  1.5056
  166SAPE  H17Y18782   2.644   3.060   8.339  0.1825 -0.5708 -0.8825
  166SAPE  C31818783   2.639   2.990   8.545  0.3578  0.2254 -0.8524
  166SAPE  H18X18784   2.716   2.914   8.518  1.5717 -0.2874  3.3460
  166SAPE  H18Y18785   2.561   2.936   8.603  0.4153  0.6253 -0.4003
  166SAPE  H18Z18786   2.691   3.072   8.598  0.0453  0.3551 -0.7445
  167SAPE     N18787   2.197   1.784   5.736 -0.0770 -0.3435 -0.2109
  167SAPE   HN118788   2.255   1.753   5.655  0.0280  4.1131 -2.0866
  167SAPE   HN218789   2.139   1.866   5.711  3.3576  2.8215  1.2079
  167SAPE   HN318790   2.266   1.830   5.798 -2.3818  3.7156 -0.3674
  167SAPE   C1218791   2.125   1.679   5.807  0.7204  0.3412  0.4226
  167SAPE  H12A18792   2.178   1.666   5.904  1.3483 -0.0820  0.0361
  167SAPE  H12B18793   2.141   1.585   5.750 -0.3999  0.2140  0.3015
  167SAPE   C1118794   1.978   1.706   5.838 -0.0376  0.6730 -0.1652
  167SAPE  H11A18795   1.927   1.627   5.897  0.7303  1.2372  1.3002
  167SAPE  H11B18796   1.924   1.722   5.742  0.9036 -2.4128 -1.3191
  167SAPE     P18797   1.978   1.829   6.068 -0.1338  0.3473 -0.2637
  167SAPE   O1318798   2.116   1.828   6.109  0.4789  0.1274 -0.3371
  167SAPE   O1418799   1.889   1.933   6.120  0.3948  0.1655  0.5015
  167SAPE   O1218800   1.969   1.826   5.914 -0.5415  0.1810 -0.2810
  167SAPE   O1118801   1.918   1.691   6.105 -0.4724  0.0460  1.0069
  167SAPE    C118802   1.781   1.664   6.143  0.4665 -0.4855 -1.3877
  167SAPE    HA18803   1.700   1.728   6.101  1.9359  1.7960 -0.9215
  167SAPE    HB18804   1.758   1.560   6.110 -0.3189 -0.1599 -1.9102
  167SAPE    C218805   1.764   1.655   6.303  0.1972  0.0556  0.2471
  167SAPE    HS18806   1.770   1.761   6.335  0.1217 -0.2272  1.2247
  167SAPE   O2118807   1.871   1.572   6.354  0.6299  0.5965 -0.0214
  167SAPE   C2118808   1.949   1.621   6.447 -0.2762 -0.6093 -0.1570
  167SAPE   O2218809   1.955   1.736   6.479  0.1867 -0.5991 -0.4194
  167SAPE   C2218810   2.038   1.511   6.509 -0.4810  0.3189 -0.7274
  167SAPE   H2R18811   2.034   1.427   6.437 -0.2254  0.3334 -0.7611
  167SAPE   H2S18812   2.146   1.539   6.512 -0.5404  0.9971 -3.1141
  167SAPE    C318813   1.625   1.606   6.346  0.3589  0.0371 -0.0104
  167SAPE    HX18814   1.627   1.495   6.335 -0.0051 -0.0331  0.5788
  167SAPE    HY18815   1.545   1.643   6.277 -2.5121 -0.3044  2.9052
  167SAPE   O3118816   1.589   1.623   6.490  0.3680 -0.5941  0.0851
  167SAPE   C3118817   1.536   1.738   6.525 -0.2828 -0.4902 -0.1028
  167SAPE   O3218818   1.494   1.825   6.447  0.0634 -0.0405 -0.3998
  167SAPE   C3218819   1.536   1.737   6.676 -0.0765 -0.8626 -0.6402
  167SAPE   H2X18820   1.635   1.780   6.705 -0.6569  0.3065 -0.3101
  167SAPE   H2Y18821   1.505   1.646   6.732  0.9223 -0.8960 -0.1113
  167SAPE   C2318822   1.984   1.477   6.649 -0.0718 -0.0380  0.0488
  167SAPE   H3R18823   1.981   1.576   6.700  0.2335  0.9728 -1.8244
  167SAPE   H3S18824   2.061   1.422   6.707 -0.7802  1.7085  2.8754
  167SAPE   C2418825   1.844   1.419   6.634 -0.1181  0.2896 -0.3703
  167SAPE   H4R18826   1.842   1.349   6.548  0.8428 -0.5744  0.2767
  167SAPE   H4S18827   1.769   1.497   6.614 -0.9774 -0.2791  0.5427
  167SAPE   C2518828   1.809   1.343   6.755 -0.5661  0.8600  0.0938
  167SAPE   H5R18829   1.819   1.234   6.744  1.6955  1.2153 -2.6212
  167SAPE   C2618830   1.771   1.390   6.875 -0.4241  0.0758  0.3002
  167SAPE   H6R18831   1.760   1.319   6.958  1.5444  1.9091  2.2486
  167SAPE   C2718832   1.763   1.532   6.924 -0.0635  0.2247 -0.1198
  167SAPE   H7R18833   1.676   1.545   6.992 -0.8129 -0.6420 -0.8868
  167SAPE   H7S18834   1.735   1.586   6.831  0.2375  1.1194  0.3025
  167SAPE   C2818835   1.889   1.580   6.978  0.5677 -0.0962 -0.8685
  167SAPE   H8R18836   1.962   1.617   6.903 -0.3774  0.9268 -1.3168
  167SAPE   C2918837   1.929   1.595   7.103  0.4021 -0.0906  0.3533
  167SAPE   H9R18838   2.032   1.633   7.109 -0.1151  1.6974 -1.2316
  167SAPE  C21018839   1.850   1.573   7.226 -0.1982  0.0411 -1.0677
  167SAPE  H10R18840   1.763   1.510   7.200 -0.5869 -0.6097  1.5088
  167SAPE  H10S18841   1.817   1.671   7.265 -0.7322 -0.6603  0.3393
  167SAPE  C21118842   1.949   1.507   7.324 -0.0145  0.1747 -0.2484
  167SAPE  H11R18843   2.004   1.423   7.280 -0.4096 -1.0695  1.5304
  167SAPE  C21218844   1.971   1.539   7.452 -0.0826 -0.4895 -0.0889
  167SAPE  H12R18845   2.051   1.482   7.502  0.4389 -0.5723 -0.9970
  167SAPE  C21318846   1.907   1.645   7.533  0.2276 -0.2040  0.4072
  167SAPE  H13R18847   1.888   1.735   7.471  0.4097 -0.5587 -0.1688
  167SAPE  H13S18848   1.985   1.680   7.605  0.4158  0.0642  0.0758
  167SAPE  C21418849   1.779   1.590   7.595 -0.2667 -0.2100 -0.2976
  167SAPE  H14R18850   1.696   1.565   7.528 -1.2691 -0.3631  0.9652
  167SAPE  C21518851   1.757   1.579   7.727 -0.0203 -0.6140  0.2776
  167SAPE  H15R18852   1.667   1.522   7.754  0.2683 -0.5674  1.4271
  167SAPE  C21618853   1.848   1.597   7.840 -0.4919 -0.1777  0.2518
  167SAPE  H16R18854   1.947   1.627   7.800  0.7736 -0.7682  2.7307
  167SAPE  H16S18855   1.867   1.498   7.887  0.4915 -0.9095 -1.6003
  167SAPE  C21718856   1.792   1.697   7.948  0.1705  0.0201  0.0628
  167SAPE  H17R18857   1.694   1.660   7.986 -0.8594  1.4224 -1.0931
  167SAPE  H17S18858   1.765   1.796   7.905 -1.2521 -0.8161 -1.0573
  167SAPE  C21818859   1.884   1.728   8.065  0.0101 -0.3413  0.1089
  167SAPE  H18R18860   1.889   1.837   8.087  2.4954 -0.7414  2.0097
  167SAPE  H18S18861   1.987   1.696   8.042  0.3808 -0.9170  2.3018
  167SAPE  C21918862   1.852   1.660   8.197  0.3833 -0.1310 -0.5393
  167SAPE  H19R18863   1.744   1.687   8.205  0.0148 -1.3531 -1.1256
  167SAPE  H19S18864   1.917   1.705   8.274 -1.4955  1.2026  0.3610
  167SAPE  C22018865   1.859   1.503   8.184  0.7700 -0.4769 -0.8216
  167SAPE  H20R18866   1.791   1.458   8.108 -0.2094  1.5015 -1.1865
  167SAPE  H20S18867   1.830   1.455   8.280  2.3652  0.5579  0.2161
  167SAPE  H20T18868   1.962   1.465   8.166  1.8072  1.0828  1.4432
  167SAPE   C3318869   1.445   1.848   6.737 -0.4168  0.3387 -0.2316
  167SAPE   H3X18870   1.343   1.821   6.701  0.4072 -0.2354 -2.2701
  167SAPE   H3Y18871   1.464   1.952   6.703  0.2235  0.7998  1.4666
  167SAPE   C3418872   1.457   1.850   6.895  0.1827  1.0032 -0.1504
  167SAPE   H4X18873   1.452   1.957   6.925 -0.6733  0.5189  1.5580
  167SAPE   H4Y18874   1.551   1.804   6.930 -1.5186 -0.6458  2.5772
  167SAPE   C3518875   1.341   1.775   6.951 -0.8853  0.3233 -0.2766
  167SAPE   H5X18876   1.325   1.685   6.887 -0.0135 -0.0060 -0.0404
  167SAPE   H5Y18877   1.250   1.838   6.936 -0.7894  0.2678 -1.1519
  167SAPE   C3618878   1.377   1.729   7.096 -0.4700 -0.4000 -0.3877
  167SAPE   H6X18879   1.481   1.693   7.096 -0.3323 -0.0602 -1.5152
  167SAPE   H6Y18880   1.317   1.645   7.136 -0.8327 -1.2810 -2.6432
  167SAPE   C3718881   1.373   1.852   7.196 -0.2203 -0.6742  0.4202
  167SAPE   H7X18882   1.270   1.874   7.232 -0.2747  0.5595 -0.4436
  167SAPE   H7Y18883   1.413   1.936   7.137  0.6136 -0.7860  0.8114
  167SAPE   C3818884   1.456   1.840   7.323 -0.1048  0.0457  0.0054
  167SAPE   H8X18885   1.463   1.943   7.362 -2.0921 -0.6154  2.4077
  167SAPE   H8Y18886   1.558   1.806   7.299 -0.8130 -3.7347  1.5659
  167SAPE   C3918887   1.400   1.742   7.430 -0.6791 -0.1582  0.3469
  167SAPE   H9X18888   1.476   1.712   7.506 -0.4857 -1.9018 -0.4766
  167SAPE   H9Y18889   1.365   1.646   7.385  0.3085 -0.5066  0.3024
  167SAPE  C31018890   1.278   1.793   7.507  0.3950 -0.4926 -0.8977
  167SAPE  H10X18891   1.184   1.781   7.449  0.0565  2.3441 -1.0913
  167SAPE  H10Y18892   1.292   1.902   7.524 -1.1641 -0.5809  1.4375
  167SAPE  C31118893   1.243   1.732   7.645 -0.7675 -0.1638  1.2446
  167SAPE  H11X18894   1.252   1.622   7.631  2.4417 -0.3473  3.5310
  167SAPE  H11Y18895   1.135   1.754   7.656 -0.3883  3.0362 -0.2034
  167SAPE  C31218896   1.317   1.780   7.763 -1.0239 -0.5165 -0.2259
  167SAPE  H12X18897   1.425   1.782   7.740 -1.3734 -2.8436 -2.5210
  167SAPE  H12Y18898   1.308   1.698   7.838 -1.0504 -0.8417 -0.5817
  167SAPE  C31318899   1.269   1.911   7.822 -0.1909  0.5639 -0.0432
  167SAPE  H13X18900   1.165   1.887   7.855  0.9410 -2.4140  1.7329
  167SAPE  H13Y18901   1.267   1.989   7.743 -0.8510  0.0188 -0.5861
  167SAPE  C31418902   1.341   1.967   7.951  0.1106 -0.0150 -0.2737
  167SAPE  H14X18903   1.309   2.072   7.968  0.8732  0.0216  1.0391
  167SAPE  H14Y18904   1.449   1.974   7.928  0.4131  0.9283  1.3153
  167SAPE  C31518905   1.318   1.892   8.082 -0.1327  0.2598  0.7522
  167SAPE  H15X18906   1.348   1.787   8.058  1.6679  1.0731 -0.8096
  167SAPE  H15Y18907   1.213   1.892   8.117 -0.1651 -0.6182  0.6832
  167SAPE  C31618908   1.406   1.955   8.197  0.4782 -0.6212  0.1503
  167SAPE  H16X18909   1.504   1.973   8.146 -0.2694 -1.2946 -1.6059
  167SAPE  H16Y18910   1.419   1.898   8.291  0.2303  0.1119  0.6404
  167SAPE  C31718911   1.359   2.095   8.244 -0.9021 -0.6304 -0.2686
  167SAPE  H17X18912   1.277   2.099   8.319 -1.5396  1.1727 -0.9980
  167SAPE  H17Y18913   1.307   2.147   8.161 -1.3391 -0.8386 -0.1268
  167SAPE  C31818914   1.486   2.185   8.284 -0.4910  0.7449  0.1463
  167SAPE  H18X18915   1.519   2.172   8.389  3.4591  0.0848 -0.9949
  167SAPE  H18Y18916   1.454   2.291   8.271 -0.7450  0.5781 -0.7021
  167SAPE  H18Z18917   1.576   2.163   8.222 -1.0591 -0.9271 -0.1488
  168SAPE     N18918   4.588   2.301   5.953 -0.4295 -0.4088  0.1329
  168SAPE   HN118919   4.551   2.392   5.988  1.5610  0.6155 -0.2434
  168SAPE   HN218920   4.688   2.318   5.976 -0.7164  1.4931  0.2004
  168SAPE   HN318921   4.574   2.294   5.850 -2.3905 -0.1185  0.3376
  168SAPE   C1218922   4.536   2.178   6.002  0.2798 -0.1971  1.2743
  168SAPE  H12A18923   4.607   2.094   5.984  0.8718  0.3015  1.2465
  168SAPE  H12B18924   4.440   2.159   5.950  0.0887  1.6286  0.9105
  168SAPE   C1118925   4.511   2.200   6.148  0.4154  0.2685 -0.3053
  168SAPE  H11A18926   4.594   2.255   6.197 -0.1314  1.0864 -0.2677
  168SAPE  H11B18927   4.497   2.098   6.191  0.2377 -0.0547 -1.1159
  168SAPE     P18928   4.291   2.264   6.285 -0.4018 -0.3336  0.1173
  168SAPE   O1318929   4.218   2.384   6.315  0.0404  0.6122  0.0173
  168SAPE   O1418930   4.217   2.138   6.278  0.1583 -0.1418 -0.0660
  168SAPE   O1218931   4.387   2.274   6.157  0.3002 -0.0481  0.1349
  168SAPE   O1118932   4.393   2.261   6.408  0.6622  0.0095  0.2764
  168SAPE    C118933   4.397   2.156   6.506 -0.0484 -0.4883  0.0734
  168SAPE    HA18934   4.296   2.145   6.550 -1.0649 -2.5879 -2.4916
  168SAPE    HB18935   4.423   2.062   6.452  0.4684  0.9282 -2.3027
  168SAPE    C218936   4.493   2.199   6.619  0.5104 -0.5812  0.0616
  168SAPE    HS18937   4.469   2.132   6.704  0.7637 -3.2954 -1.8490
  168SAPE   O2118938   4.477   2.340   6.645  0.3927 -0.3738 -0.3328
  168SAPE   C2118939   4.381   2.377   6.723 -0.1797 -0.2978 -0.1261
  168SAPE   O2218940   4.307   2.304   6.788 -0.0041  0.4990  0.4608
  168SAPE   C2218941   4.361   2.524   6.697 -0.6739  0.7062  0.2976
  168SAPE   H2R18942   4.450   2.572   6.744  0.0660 -2.3177  2.2118
  168SAPE   H2S18943   4.378   2.536   6.588  2.0402  1.4839  0.7384
  168SAPE    C318944   4.642   2.172   6.575 -0.1168 -0.1441  0.0161
  168SAPE    HX18945   4.666   2.234   6.486  0.1865 -0.4136 -0.0929
  168SAPE    HY18946   4.641   2.065   6.544 -0.0346 -0.1686  0.0963
  168SAPE   O3118947   4.737   2.194   6.680 -0.2365  0.2857  0.2033
  168SAPE   C3118948   4.862   2.199   6.639 -0.0574  0.6116  1.0057
  168SAPE   O3218949   4.895   2.175   6.520  0.4477  0.4482 -0.0028
  168SAPE   C3218950   4.964   2.226   6.754 -0.3013 -0.3997  0.1227
  168SAPE   H2X18951   4.926   2.199   6.855  0.0123  2.4267  1.0760
  168SAPE   H2Y18952   4.970   2.336   6.754 -1.3395 -0.3305 -0.5485
  168SAPE   C2318953   4.233   2.587   6.753 -0.0362 -0.1794  0.3749
  168SAPE   H3R18954   4.141   2.540   6.713 -0.2027 -0.2110  0.7821
  168SAPE   H3S18955   4.227   2.689   6.709  1.1986 -0.5617 -0.7547
  168SAPE   C2418956   4.217   2.604   6.906  0.1779 -0.2895 -0.1670
  168SAPE   H4R18957   4.193   2.508   6.956  0.2141 -1.1659 -1.7382
  168SAPE   H4S18958   4.133   2.674   6.923 -0.9840 -1.0456 -2.3700
  168SAPE   C2518959   4.335   2.677   6.960 -0.1961 -0.0933 -0.1121
  168SAPE   H5R18960   4.397   2.736   6.890 -1.2158  0.0032 -0.9634
  168SAPE   C2618961   4.385   2.646   7.077  0.6003  0.1972 -0.7435
  168SAPE   H6R18962   4.480   2.694   7.108  0.6043 -0.3463  0.1275
  168SAPE   C2718963   4.329   2.542   7.172  0.6756  0.6816  0.2635
  168SAPE   H7R18964   4.300   2.449   7.119 -0.3391  0.0783  1.7993
  168SAPE   H7S18965   4.234   2.582   7.215  0.3432 -0.1414  0.3181
  168SAPE   C2818966   4.413   2.500   7.293 -0.5023  1.1530  0.2849
  168SAPE   H8R18967   4.521   2.511   7.275  0.0721 -0.1298  2.6210
  168SAPE   C2918968   4.370   2.457   7.411  0.4822 -0.0181  0.1509
  168SAPE   H9R18969   4.439   2.434   7.493  1.6908  0.4588 -0.7002
  168SAPE  C21018970   4.224   2.443   7.447 -0.3974  0.3854 -0.4894
  168SAPE  H10R18971   4.162   2.447   7.355  0.2655  0.3150 -0.9423
  168SAPE  H10S18972   4.195   2.527   7.514 -1.0336 -0.9448  0.9557
  168SAPE  C21118973   4.195   2.306   7.515 -0.3328  0.6677 -1.0181
  168SAPE  H11R18974   4.264   2.223   7.492  0.6037  1.8013 -2.4867
  168SAPE  C21218975   4.085   2.286   7.597 -0.6760 -0.1765 -0.2818
  168SAPE  H12R18976   4.069   2.186   7.640 -1.0096 -0.4347 -0.9858
  168SAPE  C21318977   3.985   2.393   7.638 -0.4523  0.7912 -0.3810
  168SAPE  H13R18978   3.898   2.337   7.678  0.4272  0.7319  1.6119
  168SAPE  H13S18979   3.954   2.466   7.560 -1.4952  0.1998 -0.5273
  168SAPE  C21418980   4.025   2.465   7.769 -0.1357  0.4464 -0.0237
  168SAPE  H14R18981   4.057   2.394   7.846 -1.6169  0.9676  1.1438
  168SAPE  C21518982   4.008   2.593   7.792  0.0115  0.1393  0.2941
  168SAPE  H15R18983   4.028   2.621   7.897 -0.2055 -3.0599  1.2783
  168SAPE  C21618984   3.964   2.696   7.694 -0.5514 -0.2412 -0.7101
  168SAPE  H16R18985   3.985   2.672   7.588 -1.0778  0.0910 -0.8966
  168SAPE  H16S18986   4.010   2.792   7.727 -1.9147 -0.9449  4.0069
  168SAPE  C21718987   3.813   2.707   7.708 -0.6348 -0.3550  0.2161
  168SAPE  H17R18988   3.790   2.740   7.811 -1.0662  3.2619 -0.8744
  168SAPE  H17S18989   3.771   2.610   7.674  0.5517  0.3279 -3.7152
  168SAPE  C21818990   3.764   2.825   7.622 -0.2686 -0.7585 -0.1671
  168SAPE  H18R18991   3.788   2.809   7.514 -1.1740  0.5743 -0.5812
  168SAPE  H18S18992   3.813   2.922   7.646 -0.0106 -0.8540 -0.2988
  168SAPE  C21918993   3.612   2.841   7.631  0.0593  0.3366  0.6338
  168SAPE  H19R18994   3.566   2.741   7.619  3.0110 -1.1110  0.4704
  168SAPE  H19S18995   3.581   2.916   7.556  0.5387  0.9018  0.9870
  168SAPE  C22018996   3.564   2.893   7.770 -0.2287 -0.1581  0.1882
  168SAPE  H20R18997   3.598   2.998   7.783  3.2529 -1.2949  1.2819
  168SAPE  H20S18998   3.604   2.833   7.854  0.3825  2.1136  1.5959
  168SAPE  H20T18999   3.454   2.902   7.756 -0.0366  0.9748 -0.7104
  168SAPE   C3319000   5.102   2.164   6.721  0.0285  0.3876 -0.8132
  168SAPE   H3X19001   5.158   2.187   6.627  0.4827 -2.9662 -1.4634
  168SAPE   H3Y19002   5.095   2.054   6.735 -0.9987  0.8060  2.9214
  168SAPE   C3419003   5.199   2.218   6.828 -0.2497 -0.2690  0.7422
  168SAPE   H4X19004   5.301   2.182   6.803 -0.8557 -0.8670 -1.0148
  168SAPE   H4Y19005   5.169   2.183   6.929  0.4190 -1.4096  0.5554
  168SAPE   C3519006   5.210   2.373   6.827  0.0264  0.1546 -0.6808
  168SAPE   H5X19007   5.121   2.413   6.880 -0.7472  0.2010 -1.9530
  168SAPE   H5Y19008   5.194   2.411   6.724 -1.7184  2.8283  0.4747
  168SAPE   C3619009   5.337   2.422   6.899  0.7797  0.0965 -0.1094
  168SAPE   H6X19010   5.314   2.531   6.906 -2.3429 -0.4848 -0.1655
  168SAPE   H6Y19011   5.429   2.398   6.842 -0.0816  0.6379 -1.7976
  168SAPE   C3719012   5.360   2.370   7.043 -0.1585  0.7664  0.3774
  168SAPE   H7X19013   5.449   2.412   7.096  0.0526  0.2868  0.4108
  168SAPE   H7Y19014   5.377   2.261   7.041 -2.8331  0.1905  2.5224
  168SAPE   C3819015   5.234   2.382   7.135 -0.1197  0.3875  0.0060
  168SAPE   H8X19016   5.149   2.335   7.080  1.7227 -1.2205 -1.6049
  168SAPE   H8Y19017   5.201   2.485   7.160 -2.8876  0.0794 -1.8836
  168SAPE   C3919018   5.231   2.308   7.266  0.0648 -0.7789 -0.8073
  168SAPE   H9X19019   5.284   2.212   7.253  0.1449 -0.8817  0.2346
  168SAPE   H9Y19020   5.129   2.282   7.302  0.4139  1.5978  2.3262
  168SAPE  C31019021   5.301   2.386   7.381  0.2819 -0.0216 -0.4872
  168SAPE  H10X19022   5.269   2.492   7.376 -1.0185 -0.3700 -0.1670
  168SAPE  H10Y19023   5.411   2.380   7.365  1.0713  0.1502  3.6196
  168SAPE  C31119024   5.267   2.337   7.525 -0.1443  0.3840 -0.3468
  168SAPE  H11X19025   5.254   2.227   7.533  0.8765  0.2399 -0.5011
  168SAPE  H11Y19026   5.174   2.383   7.564 -0.4186  1.0881 -1.7836
  168SAPE  C31219027   5.376   2.380   7.620  0.2041  0.1047  0.3208
  168SAPE  H12X19028   5.414   2.479   7.588 -1.0209  0.9164  1.2594
  168SAPE  H12Y19029   5.455   2.302   7.629 -1.4494 -1.7914 -0.6779
  168SAPE  C31319030   5.324   2.393   7.766  0.3505 -0.3238  0.5600
  168SAPE  H13X19031   5.401   2.389   7.846  0.3783  2.1801  0.7443
  168SAPE  H13Y19032   5.257   2.310   7.800  1.7536 -0.6933  2.6114
  168SAPE  C31419033   5.248   2.522   7.788 -0.1393  0.0629 -0.9102
  168SAPE  H14X19034   5.152   2.516   7.733  0.1826 -1.2314 -1.3796
  168SAPE  H14Y19035   5.310   2.610   7.759  1.2854 -0.2432  0.9694
  168SAPE  C31519036   5.208   2.546   7.936 -0.3653  0.1516  0.2645
  168SAPE  H15X19037   5.300   2.536   7.999 -1.3048  2.0235  2.0406
  168SAPE  H15Y19038   5.137   2.467   7.968 -0.7603  0.1647 -0.5571
  168SAPE  C31619039   5.141   2.680   7.965 -0.4103 -0.3228 -0.1724
  168SAPE  H16X19040   5.038   2.678   7.925 -0.3820  1.3113 -0.4091
  168SAPE  H16Y19041   5.191   2.756   7.900 -0.4936 -0.6032 -0.5659
  168SAPE  C31719042   5.133   2.727   8.115  0.9802  0.0204 -0.6194
  168SAPE  H17X19043   5.092   2.650   8.183  3.2660 -0.1407  0.6800
  168SAPE  H17Y19044   5.056   2.807   8.111  0.5443 -0.4399 -1.8143
  168SAPE  C31819045   5.264   2.770   8.170 -0.2336 -0.6630  0.3730
  168SAPE  H18X19046   5.257   2.839   8.257  0.8566 -0.8190  0.5962
  168SAPE  H18Y19047   5.306   2.830   8.087  1.4235 -3.0432 -0.6455
  168SAPE  H18Z19048   5.323   2.678   8.191  1.1053 -0.1309 -0.9541
  169SAPE     N19049   2.022   4.144   6.077 -0.2124 -0.3651  0.1364
  169SAPE   HN119050   2.074   4.179   5.994 -0.5248 -1.4193 -0.5212
  169SAPE   HN219051   2.000   4.222   6.142 -0.2820  2.6077 -3.1568
  169SAPE   HN319052   2.061   4.057   6.117 -1.4091 -0.0910  2.0479
  169SAPE   C1219053   1.882   4.100   6.035 -0.1522  0.1581  0.0321
  169SAPE  H12A19054   1.885   4.007   5.975  0.2373  0.2244 -0.0530
  169SAPE  H12B19055   1.842   4.179   5.967 -0.2163 -1.5120 -1.9633
  169SAPE   C1119056   1.796   4.083   6.165 -1.3207 -0.1969 -0.3501
  169SAPE  H11A19057   1.700   4.060   6.114 -1.1526 -1.8104  0.0147
  169SAPE  H11B19058   1.774   4.180   6.216 -0.2703  0.3206 -0.8591
  169SAPE     P19059   1.901   3.960   6.384  0.0175 -0.3275  0.2273
  169SAPE   O1319060   1.809   4.017   6.481  0.1114 -0.5640 -0.4500
  169SAPE   O1419061   1.962   3.824   6.400  0.2759 -0.0477  0.5024
  169SAPE   O1219062   1.831   3.965   6.244  0.2489  0.2036 -0.0260
  169SAPE   O1119063   2.014   4.067   6.350 -0.1481  0.1946  0.3020
  169SAPE    C119064   2.155   4.039   6.382  1.1073 -0.3082  0.0921
  169SAPE    HA19065   2.190   3.942   6.341 -0.4108 -1.1677  0.7323
  169SAPE    HB19066   2.205   4.124   6.331  0.5842  0.7029  1.2010
  169SAPE    C219067   2.199   4.056   6.531 -0.3750  0.4338  0.0304
  169SAPE    HS19068   2.309   4.042   6.528 -0.6089 -1.6520 -2.1657
  169SAPE   O2119069   2.142   3.954   6.617 -0.5521  0.6389  0.3368
  169SAPE   C2119070   2.191   3.834   6.594  0.7736  0.1015  0.2696
  169SAPE   O2219071   2.284   3.805   6.520 -0.4109 -0.0034  0.5133
  169SAPE   C2219072   2.130   3.736   6.688  0.2999  0.0530 -0.6605
  169SAPE   H2R19073   2.019   3.735   6.680  0.2505 -2.4090 -0.2240
  169SAPE   H2S19074   2.155   3.636   6.647 -0.3820 -0.2478 -0.3626
  169SAPE    C319075   2.164   4.199   6.591  0.0857 -0.8873  0.3780
  169SAPE    HX19076   2.054   4.211   6.581  0.4523  3.8878 -0.5493
  169SAPE    HY19077   2.216   4.263   6.517  0.8445 -0.1120  1.5345
  169SAPE   O3119078   2.213   4.221   6.723 -0.5730 -0.3789 -0.3822
  169SAPE   C3119079   2.199   4.350   6.758  0.0147  0.7168  0.3597
  169SAPE   O3219080   2.162   4.438   6.681  0.2753 -0.2279 -0.0113
  169SAPE   C3219081   2.222   4.363   6.902 -0.2287  0.3874 -0.2495
  169SAPE   H2X19082   2.327   4.346   6.935 -0.6191  2.4257  2.4237
  169SAPE   H2Y19083   2.153   4.291   6.950  1.1460 -0.2841  0.7897
  169SAPE   C2319084   2.186   3.757   6.832  0.4497 -0.5073 -0.4316
  169SAPE   H3R19085   2.280   3.815   6.818 -0.4706  1.4089  0.7769
  169SAPE   H3S19086   2.213   3.655   6.865  0.3339  0.1127  1.8107
  169SAPE   C2419087   2.093   3.835   6.928 -0.1533 -0.0050 -0.3061
  169SAPE   H4R19088   1.991   3.793   6.940  0.0269 -0.3175  0.1908
  169SAPE   H4S19089   2.082   3.940   6.893 -0.0438  0.4838  1.0668
  169SAPE   C2519090   2.160   3.840   7.067 -0.0414  0.1757 -0.3124
  169SAPE   H5R19091   2.204   3.941   7.075 -0.8404  0.4819  0.3201
  169SAPE   C2619092   2.170   3.750   7.163 -0.4198  0.4113  1.0397
  169SAPE   H6R19093   2.229   3.781   7.250 -1.0163  1.4239  1.1099
  169SAPE   C2719094   2.115   3.609   7.156 -0.1293 -0.2427  0.5442
  169SAPE   H7R19095   2.200   3.538   7.148 -1.2288 -1.6865  1.1728
  169SAPE   H7S19096   2.046   3.585   7.072  0.7619  0.2463 -0.3405
  169SAPE   C2819097   2.047   3.562   7.292 -0.9974 -0.4092 -0.2966
  169SAPE   H8R19098   1.938   3.575   7.295 -0.8826  0.9345 -1.2021
  169SAPE   C2919099   2.097   3.522   7.412 -0.3774  0.4306  0.0701
  169SAPE   H9R19100   2.023   3.500   7.491 -0.8478 -1.7250 -0.8854
  169SAPE  C21019101   2.239   3.512   7.462  0.3139 -0.3028  0.0138
  169SAPE  H10R19102   2.306   3.505   7.374  1.2668 -1.5093  0.7976
  169SAPE  H10S19103   2.260   3.420   7.520  2.6340  0.3336  0.2942
  169SAPE  C21119104   2.276   3.624   7.554 -0.4615 -0.4479 -0.6149
  169SAPE  H11R19105   2.339   3.702   7.508 -0.6143 -0.7253 -1.3177
  169SAPE  C21219106   2.255   3.622   7.687  0.1191 -0.4352 -0.6403
  169SAPE  H12R19107   2.290   3.704   7.751 -0.0597 -0.2115 -0.8284
  169SAPE  C21319108   2.197   3.515   7.780  0.4128  0.2279 -0.0583
  169SAPE  H13R19109   2.145   3.440   7.717  0.6019  0.2617 -0.2544
  169SAPE  H13S19110   2.117   3.551   7.848 -0.4168  1.4768 -1.6205
  169SAPE  C21419111   2.300   3.440   7.857  0.0541  0.5672 -0.0420
  169SAPE  H14R19112   2.300   3.332   7.836 -0.0319  0.4271  0.6462
  169SAPE  C21519113   2.393   3.479   7.944  0.2678  0.0733 -0.3068
  169SAPE  H15R19114   2.456   3.403   7.994  0.3467  0.2797 -0.0919
  169SAPE  C21619115   2.415   3.618   7.996 -0.2158 -0.4096 -0.3003
  169SAPE  H16R19116   2.365   3.696   7.935 -0.2333  0.2581  0.5497
  169SAPE  H16S19117   2.524   3.635   7.995  0.1165 -2.1192 -2.4596
  169SAPE  C21719118   2.364   3.643   8.139  0.0180  0.1843  0.4255
  169SAPE  H17R19119   2.258   3.610   8.144 -0.0051  0.0847 -0.4765
  169SAPE  H17S19120   2.360   3.751   8.163  0.0296  0.3129 -0.1274
  169SAPE  C21819121   2.447   3.577   8.249  0.2456  0.8577  1.4105
  169SAPE  H18R19122   2.549   3.619   8.255  0.4750  0.3488  1.0882
  169SAPE  H18S19123   2.475   3.473   8.223 -0.0503  1.2934 -0.8031
  169SAPE  C21919124   2.378   3.568   8.389 -0.6824 -1.1943 -0.5523
  169SAPE  H19R19125   2.459   3.553   8.463  0.4100  1.8759 -0.9574
  169SAPE  H19S19126   2.299   3.491   8.398 -0.6360 -1.1376  0.4258
  169SAPE  C22019127   2.308   3.701   8.429  0.3875 -0.0541 -0.3720
  169SAPE  H20R19128   2.207   3.702   8.381 -0.6064 -0.7933  1.6095
  169SAPE  H20S19129   2.353   3.799   8.402  1.6623 -0.6155 -0.3471
  169SAPE  H20T19130   2.284   3.699   8.537 -1.2644 -0.9662 -0.7175
  169SAPE   C3319131   2.190   4.507   6.961  0.6289 -0.0620  0.1324
  169SAPE   H3X19132   2.085   4.531   6.934 -0.3977 -3.0386  1.0000
  169SAPE   H3Y19133   2.249   4.584   6.907 -2.4841  2.5632  0.2095
  169SAPE   C3419134   2.203   4.511   7.114 -0.6675 -0.2742 -0.0239
  169SAPE   H4X19135   2.292   4.452   7.142 -1.9428 -1.4501  1.7645
  169SAPE   H4Y19136   2.125   4.444   7.156  0.1519 -1.1582  0.1179
  169SAPE   C3519137   2.185   4.651   7.179 -0.1301  0.0251  0.5350
  169SAPE   H5X19138   2.113   4.710   7.119  1.7597  0.2841 -1.6411
  169SAPE   H5Y19139   2.269   4.724   7.170 -1.3641  1.4850  0.5363
  169SAPE   C3619140   2.144   4.659   7.324 -0.1593 -0.5142  0.0367
  169SAPE   H6X19141   2.051   4.607   7.356  1.3732 -3.0955  0.5301
  169SAPE   H6Y19142   2.121   4.765   7.348 -1.8783 -0.9623  0.5477
  169SAPE   C3719143   2.257   4.601   7.415 -0.0768  0.3476  0.2042
  169SAPE   H7X19144   2.335   4.678   7.399 -0.1092  0.6072  1.1989
  169SAPE   H7Y19145   2.280   4.494   7.393 -0.6793  0.3496 -0.4561
  169SAPE   C3819146   2.227   4.596   7.559 -0.3036 -0.3055 -0.4704
  169SAPE   H8X19147   2.128   4.547   7.569  0.9206 -2.8003  0.3451
  169SAPE   H8Y19148   2.234   4.700   7.596  1.0124 -0.3812 -0.4381
  169SAPE   C3919149   2.331   4.524   7.650  0.4855 -0.2621  1.0490
  169SAPE   H9X19150   2.433   4.567   7.636  0.6505 -0.5529  1.3515
  169SAPE   H9Y19151   2.344   4.422   7.608  0.3901  0.0518  0.2475
  169SAPE  C31019152   2.282   4.519   7.792 -0.0764  0.4927  0.7976
  169SAPE  H10X19153   2.176   4.489   7.804 -0.3071  1.4061  1.1848
  169SAPE  H10Y19154   2.294   4.614   7.849  0.6370  0.3303  0.9346
  169SAPE  C31119155   2.378   4.427   7.870  0.0886  0.6317 -0.0297
  169SAPE  H11X19156   2.481   4.467   7.871  1.3892 -2.2273  3.5317
  169SAPE  H11Y19157   2.366   4.331   7.815  0.2786  1.6891 -1.9806
  169SAPE  C31219158   2.346   4.406   8.017  0.4073  0.0867  0.1455
  169SAPE  H12X19159   2.244   4.364   8.027  0.5819 -0.0766  1.5914
  169SAPE  H12Y19160   2.329   4.508   8.056 -0.4850 -0.0957  0.2506
  169SAPE  C31319161   2.445   4.318   8.095  0.0837  0.3965 -0.4984
  169SAPE  H13X19162   2.542   4.372   8.093  0.3193  0.0082  0.1011
  169SAPE  H13Y19163   2.471   4.218   8.055 -2.4004 -1.1586  1.4416
  169SAPE  C31419164   2.394   4.294   8.239  0.1626 -0.7543  0.6851
  169SAPE  H14X19165   2.306   4.228   8.254  0.3548 -0.7854  1.7113
  169SAPE  H14Y19166   2.380   4.395   8.282 -0.3056  0.2502 -1.6432
  169SAPE  C31519167   2.500   4.215   8.318 -0.0286  0.3565  0.7073
  169SAPE  H15X19168   2.473   4.207   8.425 -2.1318 -0.1990  0.1786
  169SAPE  H15Y19169   2.593   4.273   8.300  0.4742 -0.8557 -0.8013
  169SAPE  C31619170   2.536   4.074   8.269  0.5518  0.7588 -0.2328
  169SAPE  H16X19171   2.587   4.067   8.170 -0.6171 -0.0376 -0.8070
  169SAPE  H16Y19172   2.443   4.016   8.249  0.1784 -0.5879  4.3603
  169SAPE  C31719173   2.637   4.000   8.353 -0.1476  0.2173  0.3657
  169SAPE  H17X19174   2.719   4.070   8.381 -0.6862  0.3146  1.7810
  169SAPE  H17Y19175   2.674   3.910   8.300 -2.1835 -0.6112  0.2769
  169SAPE  C31819176   2.591   3.961   8.493  0.8281 -0.6482  0.5289
  169SAPE  H18X19177   2.530   3.869   8.481 -1.2735  0.7530  0.1221
  169SAPE  H18Y19178   2.540   4.047   8.542 -0.7694 -2.1255  1.5767
  169SAPE  H18Z19179   2.677   3.954   8.563  1.7664  2.8331 -0.1089
  170SAPE     N19180   3.718   1.473   6.314 -0.5473 -0.5480  0.7733
  170SAPE   HN119181   3.783   1.448   6.392  2.1500  0.7169 -0.9118
  170SAPE   HN219182   3.705   1.576   6.321  1.1248 -0.3354  1.5343
  170SAPE   HN319183   3.633   1.415   6.329 -2.8447  2.5272  0.4486
  170SAPE   C1219184   3.792   1.426   6.183 -0.4154 -0.3661 -0.3412
  170SAPE  H12A19185   3.768   1.497   6.101 -1.4725 -0.6367 -0.2776
  170SAPE  H12B19186   3.745   1.330   6.153 -1.1117 -0.8485  2.0231
  170SAPE   C1119187   3.939   1.418   6.215 -0.3276  0.2687 -0.4184
  170SAPE  H11A19188   3.969   1.375   6.118  1.1611  1.2054 -0.4024
  170SAPE  H11B19189   3.959   1.346   6.298  1.9722  1.9291  0.5641
  170SAPE     P19190   4.145   1.557   6.254 -0.0218  0.0849  0.0305
  170SAPE   O1319191   4.203   1.487   6.136  0.0661 -0.1816 -0.0352
  170SAPE   O1419192   4.185   1.694   6.278 -0.2582 -0.1727 -0.2531
  170SAPE   O1219193   3.986   1.550   6.242 -0.4855 -0.7952 -0.3521
  170SAPE   O1119194   4.188   1.464   6.376  0.3405  0.2913  0.7882
  170SAPE    C119195   4.257   1.532   6.482 -0.1257  0.4963 -0.2697
  170SAPE    HA19196   4.304   1.443   6.530 -2.5610 -1.0560 -0.5927
  170SAPE    HB19197   4.336   1.602   6.448  0.2940  1.2060  2.0123
  170SAPE    C219198   4.161   1.601   6.578  0.4319 -0.3247  0.0916
  170SAPE    HS19199   4.115   1.687   6.526  0.8256 -0.3555 -0.3239
  170SAPE   O2119200   4.236   1.651   6.695 -0.0823 -0.4345 -0.0267
  170SAPE   C2119201   4.276   1.777   6.688 -0.0447 -0.1720  0.2456
  170SAPE   O2219202   4.256   1.856   6.599 -0.1335 -0.3947 -0.0680
  170SAPE   C2219203   4.369   1.807   6.810  0.1699 -0.0569 -1.0727
  170SAPE   H2R19204   4.386   1.715   6.870  1.1948  0.3321 -0.7484
  170SAPE   H2S19205   4.467   1.832   6.763 -0.4656 -1.8576 -3.6022
  170SAPE    C319206   4.048   1.503   6.617 -0.4760 -0.6709  0.1573
  170SAPE    HX19207   4.089   1.415   6.671 -0.1440 -0.4684  0.2367
  170SAPE    HY19208   4.004   1.461   6.524  0.7201 -0.9936 -0.2759
  170SAPE   O3119209   3.960   1.559   6.707 -0.3089 -0.2012  0.1765
  170SAPE   C3119210   3.860   1.634   6.652 -0.0656  0.0449  0.1387
  170SAPE   O3219211   3.814   1.619   6.546 -0.3175 -0.4192  0.2828
  170SAPE   C3219212   3.803   1.723   6.766 -0.3080  0.3471  0.8003
  170SAPE   H2X19213   3.882   1.792   6.802  0.4003  0.3953 -0.7738
  170SAPE   H2Y19214   3.785   1.647   6.844 -1.0722  0.6965  0.9740
  170SAPE   C2319215   4.327   1.929   6.903  0.5320  0.2127 -0.3078
  170SAPE   H3R19216   4.236   1.902   6.961  1.2617  2.3521  1.9899
  170SAPE   H3S19217   4.302   2.009   6.830  2.2516  0.5310 -0.5896
  170SAPE   C2419218   4.430   1.971   7.007  0.6477  0.5090  0.0035
  170SAPE   H4R19219   4.526   1.981   6.952  0.4637  2.4975 -0.0434
  170SAPE   H4S19220   4.449   1.887   7.077 -1.0749  2.1046  2.5356
  170SAPE   C2519221   4.382   2.094   7.074 -0.7069 -0.0138 -0.5820
  170SAPE   H5R19222   4.380   2.181   7.007  0.0805  0.5330  0.0674
  170SAPE   C2619223   4.345   2.117   7.198 -0.0789 -0.1690  0.1670
  170SAPE   H6R19224   4.323   2.221   7.227  0.8924 -0.1942  1.0596
  170SAPE   C2719225   4.346   2.010   7.299 -0.3593  0.1197  0.1349
  170SAPE   H7R19226   4.289   1.925   7.256 -4.0458  2.8653 -0.9429
  170SAPE   H7S19227   4.271   2.028   7.379  0.2417  0.2428  0.6737
  170SAPE   C2819228   4.478   1.976   7.355 -0.6333  0.0552 -0.5678
  170SAPE   H8R19229   4.563   1.962   7.286 -1.1007  1.0618 -1.3617
  170SAPE   C2919230   4.502   1.937   7.484 -0.6518 -0.0187 -0.0592
  170SAPE   H9R19231   4.605   1.911   7.511 -1.5491 -3.1705  0.7085
  170SAPE  C21019232   4.404   1.945   7.598 -0.3270 -0.1391 -0.2816
  170SAPE  H10R19233   4.423   1.858   7.665 -1.8577  1.2090  2.0550
  170SAPE  H10S19234   4.298   1.939   7.565  0.4789  0.4522 -3.2249
  170SAPE  C21119235   4.439   2.076   7.672 -0.4998  0.1394 -0.5856
  170SAPE  H11R19236   4.462   2.165   7.612 -0.9358  0.8078  0.2138
  170SAPE  C21219237   4.428   2.093   7.804 -0.3454  0.6809  0.2665
  170SAPE  H12R19238   4.444   2.195   7.841 -0.5084  0.8412 -0.0955
  170SAPE  C21319239   4.380   1.994   7.905 -0.0028 -0.1835  0.5066
  170SAPE  H13R19240   4.377   1.891   7.864  1.5072 -1.5285  3.4425
  170SAPE  H13S19241   4.276   2.016   7.935 -0.2470 -1.7022  0.8632
  170SAPE  C21419242   4.479   2.006   8.020  0.5349 -0.0390 -0.9202
  170SAPE  H14R19243   4.587   2.001   8.003  0.6276 -1.6731 -0.0311
  170SAPE  C21519244   4.449   2.008   8.149 -0.3827 -0.1547 -0.3999
  170SAPE  H15R19245   4.538   2.031   8.209  0.2490 -2.2156 -0.4825
  170SAPE  C21619246   4.313   1.990   8.217  0.5824 -0.3114 -0.7197
  170SAPE  H16R19247   4.317   1.907   8.290 -3.1940 -0.4880 -0.5418
  170SAPE  H16S19248   4.241   1.956   8.139  0.3868 -1.6342  0.0119
  170SAPE  C21719249   4.256   2.117   8.277 -0.6096  0.0970  0.3027
  170SAPE  H17R19250   4.331   2.170   8.340  1.1302 -2.4220  0.5334
  170SAPE  H17S19251   4.169   2.103   8.345 -1.1651  2.6113  0.1934
  170SAPE  C21819252   4.215   2.217   8.165  0.5935 -0.1660 -0.8226
  170SAPE  H18R19253   4.134   2.170   8.106  1.4184 -0.2097 -1.9583
  170SAPE  H18S19254   4.302   2.240   8.100  1.9907  0.4754  1.1601
  170SAPE  C21919255   4.164   2.353   8.230 -0.0219  0.2540  1.2139
  170SAPE  H19R19256   4.240   2.413   8.285 -0.0433  0.9263  0.5390
  170SAPE  H19S19257   4.089   2.334   8.309  0.1380 -0.5886  1.1711
  170SAPE  C22019258   4.095   2.438   8.119 -0.5061  0.2328  0.2316
  170SAPE  H20R19259   4.002   2.397   8.075  0.3694 -1.4967 -0.0983
  170SAPE  H20S19260   4.166   2.450   8.034  0.8157 -0.8450  1.1465
  170SAPE  H20T19261   4.077   2.542   8.156  3.0340  1.2441 -0.5117
  170SAPE   C3319262   3.682   1.803   6.725  0.3114 -0.7314 -0.8117
  170SAPE   H3X19263   3.590   1.742   6.713  0.1279 -0.7020  0.3260
  170SAPE   H3Y19264   3.711   1.846   6.627  2.1757 -0.4428 -0.1835
  170SAPE   C3419265   3.659   1.921   6.813  0.4609  0.5368  0.7883
  170SAPE   H4X19266   3.566   1.975   6.785 -0.6078 -0.8136  1.5606
  170SAPE   H4Y19267   3.735   1.999   6.791 -0.6513  0.8042 -2.7142
  170SAPE   C3519268   3.660   1.870   6.965  0.1309 -0.0483  0.2335
  170SAPE   H5X19269   3.617   1.957   7.018  1.8859  0.2520  1.2207
  170SAPE   H5Y19270   3.764   1.852   6.998  1.3402  1.9429 -2.1286
  170SAPE   C3619271   3.563   1.753   7.005  0.2729 -0.5805 -0.5391
  170SAPE   H6X19272   3.597   1.672   6.936  4.1300  1.2097 -0.9808
  170SAPE   H6Y19273   3.463   1.779   6.964  0.6747 -0.4943 -1.5030
  170SAPE   C3719274   3.548   1.729   7.152  0.0439 -0.0385  0.4592
  170SAPE   H7X19275   3.645   1.716   7.204  0.4102  0.9096  0.0450
  170SAPE   H7Y19276   3.487   1.636   7.152 -0.7392  0.2340 -3.9296
  170SAPE   C3819277   3.474   1.838   7.230 -0.1792  0.3871  0.2167
  170SAPE   H8X19278   3.370   1.851   7.193 -0.6730  0.1384  1.4905
  170SAPE   H8Y19279   3.534   1.930   7.213  0.3953 -0.1938 -1.0470
  170SAPE   C3919280   3.460   1.811   7.375 -0.0892 -0.5975  0.2635
  170SAPE   H9X19281   3.556   1.800   7.430 -0.5281 -0.0570  1.1713
  170SAPE   H9Y19282   3.396   1.723   7.393 -0.4800 -0.0778  1.5278
  170SAPE  C31019283   3.376   1.927   7.431  0.3200 -0.3590  0.3721
  170SAPE  H10X19284   3.291   1.939   7.362  0.4386 -2.1488 -0.1164
  170SAPE  H10Y19285   3.436   2.021   7.427 -0.7076  0.3045  0.1868
  170SAPE  C31119286   3.313   1.897   7.566  0.1332 -0.1753 -0.4479
  170SAPE  H11X19287   3.386   1.924   7.644  0.3816 -0.3009 -0.6353
  170SAPE  H11Y19288   3.299   1.789   7.588 -3.1794 -0.3286 -2.6274
  170SAPE  C31219289   3.175   1.966   7.589 -0.1150  0.0150  1.2543
  170SAPE  H12X19290   3.111   1.941   7.501  0.4748 -0.1029  0.8520
  170SAPE  H12Y19291   3.188   2.076   7.592 -1.3295  0.3788 -2.0333
  170SAPE  C31319292   3.108   1.905   7.716 -0.2266 -0.4456  0.1483
  170SAPE  H13X19293   3.107   1.794   7.711 -0.9074 -0.4004 -1.4462
  170SAPE  H13Y19294   3.006   1.948   7.720 -1.1038 -2.3084 -1.0943
  170SAPE  C31419295   3.184   1.927   7.845 -0.7651 -0.1251  0.5878
  170SAPE  H14X19296   3.223   2.031   7.846  2.3608 -1.1894  2.1176
  170SAPE  H14Y19297   3.277   1.867   7.836  0.0440  1.0565  0.9121
  170SAPE  C31519298   3.102   1.896   7.974  0.7197  0.4169  0.4469
  170SAPE  H15X19299   3.025   1.976   7.969 -1.3536 -1.5351 -0.5050
  170SAPE  H15Y19300   3.170   1.913   8.061  2.0923  2.1533 -0.8887
  170SAPE  C31619301   3.044   1.755   7.988  0.3137 -0.7320  0.3090
  170SAPE  H16X19302   3.123   1.680   8.008  2.2743  1.0519 -0.3511
  170SAPE  H16Y19303   2.993   1.730   7.893  0.6790 -1.4329  0.2930
  170SAPE  C31719304   2.925   1.742   8.089  0.0700 -0.2268 -0.8699
  170SAPE  H17X19305   2.956   1.786   8.186 -1.1177  0.2884 -0.7121
  170SAPE  H17Y19306   2.923   1.635   8.119  2.5012 -0.1797 -0.3412
  170SAPE  C31819307   2.792   1.807   8.056 -0.1847 -0.1074  0.7590
  170SAPE  H18X19308   2.763   1.770   7.956  1.7319 -0.3483  0.2499
  170SAPE  H18Y19309   2.795   1.918   8.052  1.1658 -0.1527  0.0573
  170SAPE  H18Z19310   2.719   1.774   8.133  0.1265  1.2122  1.6529
  171SAPE     N19311   6.506   0.525   6.330 -0.5273  0.5366 -0.3233
  171SAPE   HN119312   6.430   0.595   6.331 -0.2578  0.8272  0.1662
  171SAPE   HN219313   6.540   0.483   6.241  1.4809  1.7025 -0.1582
  171SAPE   HN319314   6.467   0.448   6.388 -1.4299  1.0358 -0.2443
  171SAPE   C1219315   6.622   0.582   6.413  0.3924  0.1475  0.1427
  171SAPE  H12A19316   6.683   0.491   6.429  0.3451 -0.3785 -2.3802
  171SAPE  H12B19317   6.574   0.613   6.509  2.4823  1.7970  0.7296
  171SAPE   C1119318   6.694   0.704   6.352 -0.4553 -0.2557 -0.8214
  171SAPE  H11A19319   6.733   0.677   6.251 -1.0497  1.3178 -1.4988
  171SAPE  H11B19320   6.783   0.732   6.413 -0.6529  1.2231 -1.1832
  171SAPE     P19321   6.617   0.941   6.281  0.0263 -0.2676  0.7258
  171SAPE   O1319322   6.757   0.972   6.254  0.0053  0.0402 -0.0623
  171SAPE   O1419323   6.521   0.949   6.175  0.1156  0.2102  0.0018
  171SAPE   O1219324   6.598   0.806   6.338 -0.3737 -0.6425 -0.5464
  171SAPE   O1119325   6.565   1.032   6.405  0.6588  0.0803 -0.0804
  171SAPE    C119326   6.421   1.027   6.424 -0.1746 -0.4995 -0.2517
  171SAPE    HA19327   6.365   1.087   6.349  0.0040  1.2972  1.0024
  171SAPE    HB19328   6.380   0.923   6.425 -0.2106 -0.4907 -0.7164
  171SAPE    C219329   6.379   1.078   6.563 -0.3457  0.2227  0.5464
  171SAPE    HS19330   6.287   1.134   6.538 -0.7873 -1.2674 -1.4676
  171SAPE   O2119331   6.485   1.161   6.616 -0.0519  0.3291  0.0429
  171SAPE   C2119332   6.490   1.276   6.554 -0.1933 -0.0199  0.4633
  171SAPE   O2219333   6.409   1.327   6.478  0.8026 -0.5957  0.1179
  171SAPE   C2219334   6.629   1.338   6.567 -0.5135  0.6489 -0.1269
  171SAPE   H2R19335   6.700   1.266   6.520 -1.9239 -0.1903 -1.0425
  171SAPE   H2S19336   6.637   1.421   6.493  0.4520  1.0861  0.4456
  171SAPE    C319337   6.348   0.961   6.657 -0.5721  1.1690 -1.2881
  171SAPE    HX19338   6.441   0.902   6.663  0.5407  2.9675  1.2989
  171SAPE    HY19339   6.273   0.897   6.606  0.2274 -0.7528 -0.1752
  171SAPE   O3119340   6.306   1.017   6.790 -0.3415  0.1150 -0.0894
  171SAPE   C3119341   6.397   1.039   6.878 -0.2645  0.0634 -0.7148
  171SAPE   O3219342   6.515   0.999   6.875  0.1823 -0.5741  0.1928
  171SAPE   C3219343   6.328   1.105   7.005  0.5596  0.4358  0.5347
  171SAPE   H2X19344   6.237   1.055   7.043  1.8545 -2.3374  0.2149
  171SAPE   H2Y19345   6.290   1.204   6.969  0.6336 -0.2420 -1.5274
  171SAPE   C2319346   6.659   1.387   6.709  0.0036 -0.0537 -0.0249
  171SAPE   H3R19347   6.643   1.303   6.779  0.6507  0.1417  0.3604
  171SAPE   H3S19348   6.580   1.461   6.736 -0.1058 -0.7513  1.6670
  171SAPE   C2419349   6.787   1.466   6.740  0.2802 -0.5184  1.0036
  171SAPE   H4R19350   6.795   1.461   6.851  1.3972  0.3695  0.9804
  171SAPE   H4S19351   6.780   1.571   6.704 -2.2862 -0.2153  2.1174
  171SAPE   C2519352   6.904   1.403   6.669  0.1362  0.1946  0.7699
  171SAPE   H5R19353   6.932   1.434   6.567 -0.2166 -1.2237  0.2296
  171SAPE   C2619354   6.984   1.306   6.721 -1.9448 -0.2327 -0.7706
  171SAPE   H6R19355   7.055   1.259   6.652 -0.9497 -1.6406  1.1189
  171SAPE   C2719356   6.976   1.237   6.854 -0.7700 -0.3159 -0.0879
  171SAPE   H7R19357   6.920   1.301   6.925  0.7844  0.2127  0.6992
  171SAPE   H7S19358   7.075   1.216   6.900 -1.3879 -1.0565  0.9230
  171SAPE   C2819359   6.887   1.113   6.858 -0.2710  0.5604 -0.4400
  171SAPE   H8R19360   6.862   1.051   6.771 -0.0336 -0.0158 -0.1027
  171SAPE   C2919361   6.836   1.075   6.974  0.2398  0.4920 -0.5839
  171SAPE   H9R19362   6.775   0.983   6.966 -0.9649  1.4529 -3.9567
  171SAPE  C21019363   6.859   1.136   7.113  0.2424 -0.3435  0.1415
  171SAPE  H10R19364   6.762   1.169   7.155 -0.0463 -1.4993  0.4228
  171SAPE  H10S19365   6.921   1.228   7.121 -0.1344 -0.1624  1.1491
  171SAPE  C21119366   6.932   1.026   7.198  0.1376  0.4959  0.4610
  171SAPE  H11R19367   7.018   0.979   7.148 -1.7597 -2.3520 -0.4314
  171SAPE  C21219368   6.907   0.983   7.325  0.3482 -0.1222 -0.6821
  171SAPE  H12R19369   6.997   0.931   7.363  0.2134 -1.1345 -1.6928
  171SAPE  C21319370   6.812   1.024   7.424  0.0953 -0.1164 -0.1072
  171SAPE  H13R19371   6.743   1.103   7.387  0.6569  0.9200  0.9885
  171SAPE  H13S19372   6.851   1.071   7.517  0.0780 -1.8123  0.7865
  171SAPE  C21419373   6.737   0.901   7.462 -0.4134  0.1690 -0.0890
  171SAPE  H14R19374   6.685   0.850   7.379 -1.9204 -0.6000  1.2599
  171SAPE  C21519375   6.716   0.858   7.587 -0.3032 -0.9142  0.4025
  171SAPE  H15R19376   6.666   0.761   7.600 -1.7755 -0.2042  0.2375
  171SAPE  C21619377   6.764   0.919   7.719 -0.0274 -0.1953  0.2797
  171SAPE  H16R19378   6.713   1.016   7.738 -0.4985 -0.3498 -0.1532
  171SAPE  H16S19379   6.872   0.941   7.704  0.3869 -2.7082 -1.0809
  171SAPE  C21719380   6.736   0.826   7.835  0.1610  0.5528  0.1581
  171SAPE  H17R19381   6.627   0.808   7.832  0.0924  0.7222  1.2022
  171SAPE  H17S19382   6.761   0.878   7.930  0.9363 -1.4862  1.1149
  171SAPE  C21819383   6.806   0.691   7.841 -0.0088  0.1468  0.1046
  171SAPE  H18R19384   6.915   0.708   7.825  0.4025 -1.4065  1.1016
  171SAPE  H18S19385   6.772   0.621   7.762  0.6170 -1.4130  1.1602
  171SAPE  C21919386   6.777   0.615   7.968 -0.2592 -0.5779 -0.2609
  171SAPE  H19R19387   6.843   0.526   7.966  2.1249  1.1211 -1.5630
  171SAPE  H19S19388   6.674   0.572   7.964  0.4595 -2.5072  0.7829
  171SAPE  C22019389   6.786   0.684   8.105 -0.2223 -0.2607  0.0205
  171SAPE  H20R19390   6.883   0.739   8.106  0.0415 -0.6232 -2.0025
  171SAPE  H20S19391   6.772   0.615   8.191 -1.3318  0.0110  0.0658
  171SAPE  H20T19392   6.712   0.767   8.104  2.0002  1.9959  2.8549
  171SAPE   C3319393   6.423   1.120   7.126  0.8444 -0.2395  0.3168
  171SAPE   H3X19394   6.507   1.184   7.092  0.8470 -0.3560  0.0966
  171SAPE   H3Y19395   6.467   1.019   7.139  0.2033 -0.7159 -1.0240
  171SAPE   C3419396   6.359   1.174   7.256  0.1486  0.0254  0.1747
  171SAPE   H4X19397   6.251   1.144   7.254  0.2262 -0.3635  1.3200
  171SAPE   H4Y19398   6.364   1.285   7.250 -0.1616 -0.0306 -1.8862
  171SAPE   C3519399   6.421   1.129   7.386 -0.3202 -1.2013  0.6506
  171SAPE   H5X19400   6.529   1.154   7.377 -0.4616 -1.3381 -3.0062
  171SAPE   H5Y19401   6.404   1.023   7.413  0.6206 -1.3847  0.5505
  171SAPE   C3619402   6.365   1.195   7.516  0.3546  0.4318 -0.2085
  171SAPE   H6X19403   6.256   1.175   7.526  0.6548 -0.7700  1.1088
  171SAPE   H6Y19404   6.380   1.305   7.521  0.6231  0.4399 -1.0413
  171SAPE   C3719405   6.433   1.118   7.636 -0.1964  0.3265 -0.0782
  171SAPE   H7X19406   6.540   1.138   7.613 -0.7134  0.7319 -2.3314
  171SAPE   H7Y19407   6.406   1.010   7.634  0.7420  0.0799 -0.1663
  171SAPE   C3819408   6.412   1.186   7.779  0.1332  0.1509  0.3441
  171SAPE   H8X19409   6.303   1.188   7.795  0.4450  0.5974  2.7242
  171SAPE   H8Y19410   6.447   1.292   7.784  0.6467 -0.0598  1.6897
  171SAPE   C3919411   6.471   1.101   7.887  0.4165 -0.4826 -0.3966
  171SAPE   H9X19412   6.581   1.117   7.884  0.1702  2.1473  1.6058
  171SAPE   H9Y19413   6.457   0.993   7.866  0.1812 -0.4160 -0.5848
  171SAPE  C31019414   6.426   1.139   8.026  0.6389 -0.0715 -0.1715
  171SAPE  H10X19415   6.320   1.105   8.023 -0.8822  4.0917 -0.0926
  171SAPE  H10Y19416   6.423   1.249   8.043 -0.4537  0.2407 -2.0302
  171SAPE  C31119417   6.498   1.074   8.148  0.0906 -0.6342  0.1938
  171SAPE  H11X19418   6.595   1.121   8.173 -0.0910 -0.5725  0.7943
  171SAPE  H11Y19419   6.519   0.966   8.139 -0.2594 -0.8626  1.8502
  171SAPE  C31219420   6.416   1.090   8.270 -0.1986 -0.1468 -0.0527
  171SAPE  H12X19421   6.318   1.046   8.243  1.0890 -2.5398 -1.1124
  171SAPE  H12Y19422   6.406   1.195   8.306  1.1319  0.2554 -0.7739
  171SAPE  C31319423   6.472   1.008   8.390 -0.1962 -0.1248 -0.0442
  171SAPE  H13X19424   6.574   1.048   8.410  0.1679  0.2112 -2.3361
  171SAPE  H13Y19425   6.482   0.901   8.363 -1.3849  0.3289 -2.4877
  171SAPE  C31419426   6.386   1.032   8.517 -0.2448  0.4352 -0.3618
  171SAPE  H14X19427   6.290   0.983   8.489  0.7881 -0.8408 -1.8231
  171SAPE  H14Y19428   6.357   1.138   8.535 -1.1336  0.3382 -1.1342
  171SAPE  C31519429   6.462   0.978   8.645  0.4196 -0.3687  0.3216
  171SAPE  H15X19430   6.506   0.880   8.617  0.5807  0.1788 -1.4787
  171SAPE  H15Y19431   6.387   0.968   8.725  0.2997 -1.0184  0.1328
  171SAPE  C31619432   6.582   1.060   8.696  0.2305  0.1239  0.2028
  171SAPE  H16X19433   6.654   1.060   8.611 -0.6464 -0.6210 -0.5565
  171SAPE  H16Y19434   6.632   0.995   8.772 -0.5201 -1.9278 -0.9921
  171SAPE  C31719435   6.547   1.202   8.758 -0.2388  0.7583  0.3417
  171SAPE  H17X19436   6.466   1.214   8.832 -1.3243  2.1290 -1.0086
  171SAPE  H17Y19437   6.509   1.266   8.676 -0.1613  3.0401  2.0046
  171SAPE  C31819438   6.673   1.275   8.805  0.0985 -0.3680  0.3412
  171SAPE  H18X19439   6.736   1.220   8.879 -0.7631 -1.1164  0.5326
  171SAPE  H18Y19440   6.648   1.369   8.860  3.3591 -0.2117  1.8634
  171SAPE  H18Z19441   6.733   1.294   8.713  0.3820  1.4832  0.8669
  172SAPE     N19442   4.395   1.284   6.107  0.1748  0.4015  0.0383
  172SAPE   HN119443   4.326   1.362   6.109  0.5392  0.7064  1.2549
  172SAPE   HN219444   4.372   1.226   6.190 -0.2276  1.4075  0.6445
  172SAPE   HN319445   4.486   1.332   6.115  0.0208  0.4237  1.9404
  172SAPE   C1219446   4.374   1.196   5.988 -0.4314  0.4250 -0.0369
  172SAPE  H12A19447   4.401   1.252   5.896  0.3638 -0.8593 -0.6163
  172SAPE  H12B19448   4.270   1.157   5.989  0.5658 -2.6950 -1.9078
  172SAPE   C1119449   4.460   1.073   5.992  0.1007  0.1359  0.5281
  172SAPE  H11A19450   4.568   1.100   5.981  0.2109 -0.6090 -0.4113
  172SAPE  H11B19451   4.435   1.014   5.901 -0.4330  1.1126  0.0256
  172SAPE     P19452   4.499   0.840   6.107 -0.0102 -0.2919  0.0309
  172SAPE   O1319453   4.452   0.761   5.989 -0.1167 -0.0677 -0.9180
  172SAPE   O1419454   4.646   0.840   6.134 -0.1191  0.3831  0.0172
  172SAPE   O1219455   4.436   0.986   6.102 -0.2868  0.1483 -0.4720
  172SAPE   O1119456   4.428   0.784   6.237  0.4468  0.0106  0.1136
  172SAPE    C119457   4.351   0.872   6.318  0.8113  0.2318  0.2750
  172SAPE    HA19458   4.426   0.949   6.347  1.5011  0.0700 -0.9828
  172SAPE    HB19459   4.276   0.920   6.253 -0.0701 -0.6021  0.6559
  172SAPE    C219460   4.281   0.811   6.443  0.3218  0.6241 -0.0408
  172SAPE    HS19461   4.242   0.898   6.500  1.1626  1.0809 -0.1539
  172SAPE   O2119462   4.378   0.735   6.515 -0.0638 -0.0987  0.3261
  172SAPE   C2119463   4.449   0.809   6.603  0.0887 -0.2876  0.1987
  172SAPE   O2219464   4.416   0.922   6.641 -0.0072  0.4239  0.5134
  172SAPE   C2219465   4.573   0.734   6.659 -0.9758  0.5970 -0.3802
  172SAPE   H2R19466   4.541   0.663   6.738  0.1954 -0.1835 -0.5734
  172SAPE   H2S19467   4.597   0.666   6.574 -0.2219  0.2396  0.1137
  172SAPE    C319468   4.167   0.715   6.392  0.3162 -0.1400 -0.3267
  172SAPE    HX19469   4.208   0.658   6.307  0.6916 -2.0295  1.0592
  172SAPE    HY19470   4.080   0.771   6.352  1.1676  1.0327 -0.5921
  172SAPE   O3119471   4.121   0.630   6.494 -0.3158 -0.0026 -0.4304
  172SAPE   C3119472   4.025   0.674   6.580 -0.0589  0.1165 -0.2238
  172SAPE   O3219473   3.971   0.780   6.572 -0.3171  0.0184 -0.3654
  172SAPE   C3219474   4.002   0.577   6.700 -0.0520  0.2108  0.9131
  172SAPE   H2X19475   4.072   0.493   6.682  0.8861  1.3194 -0.9651
  172SAPE   H2Y19476   3.900   0.534   6.701  0.1736 -0.3180  1.1656
  172SAPE   C2319477   4.695   0.823   6.693  0.2659 -0.6669  0.3395
  172SAPE   H3R19478   4.676   0.894   6.777  0.5804 -0.1003 -0.0648
  172SAPE   H3S19479   4.714   0.876   6.598  0.4642  1.4189  1.4714
  172SAPE   C2419480   4.814   0.739   6.738 -0.5258  0.1527 -0.3667
  172SAPE   H4R19481   4.834   0.662   6.660  1.1196 -0.7228  0.8524
  172SAPE   H4S19482   4.788   0.698   6.837  1.8486  2.1312  1.1903
  172SAPE   C2519483   4.935   0.827   6.742 -0.0366  0.2159  0.2470
  172SAPE   H5R19484   4.921   0.919   6.684  1.8737 -0.0269 -0.6728
  172SAPE   C2619485   5.030   0.828   6.836 -0.1783 -0.1539 -0.2728
  172SAPE   H6R19486   5.112   0.900   6.823 -0.9807  0.7056 -0.7164
  172SAPE   C2719487   5.039   0.733   6.950 -0.3436  0.6625 -0.3539
  172SAPE   H7R19488   4.945   0.746   7.008  0.0120 -2.6030  1.1838
  172SAPE   H7S19489   5.124   0.753   7.019 -0.3516 -0.7084  0.0895
  172SAPE   C2819490   5.055   0.580   6.932 -0.0007 -0.0251  0.1611
  172SAPE   H8R19491   5.042   0.546   6.829  1.5659  0.6525 -0.2787
  172SAPE   C2919492   5.075   0.494   7.029 -0.5312  0.2357  0.2061
  172SAPE   H9R19493   5.073   0.386   7.005 -1.2498 -0.0161  1.3059
  172SAPE  C21019494   5.094   0.525   7.178  0.1097  0.2857  0.6866
  172SAPE  H10R19495   5.010   0.473   7.230  1.0042  0.6585  2.5853
  172SAPE  H10S19496   5.062   0.630   7.196 -1.9056  0.3258 -2.3320
  172SAPE  C21119497   5.234   0.491   7.227  0.6222  0.2873  0.6984
  172SAPE  H11R19498   5.293   0.435   7.154  0.1583  0.7253 -0.0250
  172SAPE  C21219499   5.270   0.525   7.347  0.0688 -0.9588 -0.3292
  172SAPE  H12R19500   5.367   0.499   7.392 -0.1500  0.7800  1.3050
  172SAPE  C21319501   5.171   0.586   7.449 -0.0966  0.0017  0.2751
  172SAPE  H13R19502   5.106   0.513   7.502  2.0422 -0.3286  2.6536
  172SAPE  H13S19503   5.101   0.661   7.407 -0.0061 -0.8994 -1.5802
  172SAPE  C21419504   5.255   0.655   7.561  0.4710 -0.1052  0.7429
  172SAPE  H14R19505   5.316   0.740   7.528 -0.1794  0.7616  1.6844
  172SAPE  C21519506   5.280   0.620   7.685  0.4565  0.8638 -0.0433
  172SAPE  H15R19507   5.328   0.692   7.752 -0.1921  0.2438  1.1221
  172SAPE  C21619508   5.239   0.494   7.758 -0.6046  0.6181  0.4893
  172SAPE  H16R19509   5.307   0.462   7.840  0.5794  2.4051  0.2714
  172SAPE  H16S19510   5.250   0.412   7.685 -2.3641  0.9988 -0.2594
  172SAPE  C21719511   5.093   0.494   7.804  0.2333  0.4597  0.1214
  172SAPE  H17R19512   5.056   0.390   7.814 -0.0188  0.3819 -1.3940
  172SAPE  H17S19513   5.031   0.548   7.729  1.9249  0.0959 -1.6012
  172SAPE  C21819514   5.068   0.557   7.936  0.7146 -0.8229 -0.2376
  172SAPE  H18R19515   5.106   0.661   7.930  1.9643 -0.9721  2.9381
  172SAPE  H18S19516   5.124   0.506   8.018  1.5582 -2.3106 -1.6696
  172SAPE  C21919517   4.919   0.559   7.974 -0.6520  0.5471 -0.2775
  172SAPE  H19R19518   4.865   0.610   7.891  1.6960  1.4687 -1.3022
  172SAPE  H19S19519   4.901   0.622   8.064 -3.3291 -1.7354  0.9509
  172SAPE  C22019520   4.853   0.430   8.007  0.4517  0.2302  0.2256
  172SAPE  H20R19521   4.853   0.362   7.920  0.4995 -2.1996  2.0109
  172SAPE  H20S19522   4.747   0.453   8.030  1.1587  1.8117  2.1936
  172SAPE  H20T19523   4.894   0.384   8.100 -0.9533  0.2081  0.8527
  172SAPE   C3319524   4.033   0.635   6.838  0.3702  0.5447 -0.1329
  172SAPE   H3X19525   4.037   0.544   6.902 -0.6241  2.2489  2.5185
  172SAPE   H3Y19526   3.951   0.695   6.882  0.3589 -0.0747  0.7428
  172SAPE   C3419527   4.167   0.695   6.873  0.3665  0.4089  0.2940
  172SAPE   H4X19528   4.229   0.704   6.781 -1.3096 -2.1877 -1.2529
  172SAPE   H4Y19529   4.224   0.630   6.942  1.5729  0.9183 -0.1935
  172SAPE   C3519530   4.152   0.827   6.938  0.0037 -0.1827  0.5756
  172SAPE   H5X19531   4.087   0.902   6.890 -0.1670 -1.4538 -1.2691
  172SAPE   H5Y19532   4.245   0.888   6.934  0.4826 -0.9117  0.4654
  172SAPE   C3619533   4.126   0.814   7.090 -0.5739  0.3099 -0.2752
  172SAPE   H6X19534   4.218   0.762   7.123  0.2087  1.0761 -1.1801
  172SAPE   H6Y19535   4.033   0.754   7.093 -0.3428 -0.3012 -2.8179
  172SAPE   C3719536   4.103   0.945   7.165 -0.4720 -0.3542 -0.4775
  172SAPE   H7X19537   3.997   0.977   7.159 -2.0392 -4.5779  1.1045
  172SAPE   H7Y19538   4.175   1.028   7.147 -3.8842  3.4729  1.7382
  172SAPE   C3819539   4.136   0.917   7.316  0.2701  1.1085 -0.9825
  172SAPE   H8X19540   4.243   0.886   7.315 -0.3130 -1.0777 -0.9718
  172SAPE   H8Y19541   4.075   0.832   7.352  1.6839 -0.2234 -1.5972
  172SAPE   C3919542   4.110   1.036   7.409 -0.2093  0.3792 -0.5143
  172SAPE   H9X19543   4.011   1.080   7.382 -0.8692 -0.6503  0.1285
  172SAPE   H9Y19544   4.183   1.119   7.399  1.8293 -1.1488  0.8823
  172SAPE  C31019545   4.133   1.010   7.558 -0.1281 -0.0127 -0.2643
  172SAPE  H10X19546   4.054   0.948   7.606 -0.7165  0.9376  0.0089
  172SAPE  H10Y19547   4.135   1.108   7.609  1.0686 -1.4297  2.6709
  172SAPE  C31119548   4.276   0.943   7.583  0.6175  0.1576  0.0043
  172SAPE  H11X19549   4.366   1.002   7.556  0.6034  0.2818  0.2285
  172SAPE  H11Y19550   4.280   0.841   7.539  3.8138 -0.8473  2.1949
  172SAPE  C31219551   4.289   0.889   7.724  0.0430  0.7726 -0.2379
  172SAPE  H12X19552   4.376   0.822   7.732 -0.9906 -0.8052 -1.5171
  172SAPE  H12Y19553   4.203   0.829   7.761  1.1606 -0.3758  0.5356
  172SAPE  C31319554   4.320   0.998   7.832 -0.0122  0.6816 -0.5418
  172SAPE  H13X19555   4.234   1.069   7.836 -0.4930  0.0326  1.1974
  172SAPE  H13Y19556   4.410   1.049   7.792  0.8369 -1.2850 -1.2967
  172SAPE  C31419557   4.348   0.938   7.972  0.1966 -0.3395 -0.7856
  172SAPE  H14X19558   4.253   0.888   8.001 -0.2712  0.5561 -0.7445
  172SAPE  H14Y19559   4.382   1.018   8.040  1.5399 -0.0908 -1.7005
  172SAPE  C31519560   4.468   0.842   7.974  0.7021 -0.1917 -0.2237
  172SAPE  H15X19561   4.555   0.887   7.922  2.3486 -1.3362  1.4115
  172SAPE  H15Y19562   4.442   0.751   7.917 -1.1406 -1.5774  2.5588
  172SAPE  C31619563   4.487   0.792   8.117  0.0399  0.3023 -0.3298
  172SAPE  H16X19564   4.390   0.764   8.163 -0.5753 -2.1830 -2.9033
  172SAPE  H16Y19565   4.524   0.876   8.181  0.8099 -0.2904  0.0186
  172SAPE  C31719566   4.575   0.673   8.125 -0.2676  0.5569 -1.1541
  172SAPE  H17X19567   4.668   0.693   8.069 -0.2760  3.1214 -0.4299
  172SAPE  H17Y19568   4.530   0.588   8.070 -1.7814  2.4339 -3.0361
  172SAPE  C31819569   4.610   0.632   8.279  0.0865 -0.2962  0.1280
  172SAPE  H18X19570   4.639   0.723   8.336  1.5292 -0.6489 -0.0074
  172SAPE  H18Y19571   4.697   0.563   8.283  0.8235  0.6229  0.1435
  172SAPE  H18Z19572   4.527   0.579   8.331  0.3759 -0.0785  0.8337
  173SOPE     N19573   3.266   5.928  11.288  0.1848 -0.5758  0.1790
  173SOPE   HN119574   3.225   5.869  11.363 -1.0413  0.4336  0.3502
  173SOPE   HN219575   3.235   6.026  11.302 -1.1613 -1.0731  0.8441
  173SOPE   HN319576   3.228   5.892  11.198 -0.7655  2.8327 -0.9703
  173SOPE   C1219577   3.411   5.932  11.294 -0.6937  0.2556  0.6252
  173SOPE  H12A19578   3.455   5.834  11.320  1.3083  1.1061  0.6010
  173SOPE  H12B19579   3.423   5.996  11.384  1.6357  0.1324  0.4464
  173SOPE   C1119580   3.478   5.997  11.168 -0.3384  0.5819  0.5589
  173SOPE  H11A19581   3.494   5.921  11.089  0.8167  2.9927 -1.6625
  173SOPE  H11B19582   3.582   6.022  11.196  0.2228 -0.4277 -0.5191
  173SOPE     P19583   3.325   6.124  10.992 -0.2117 -0.3234  0.0180
  173SOPE   O1319584   3.359   6.256  10.940  0.0248 -0.3485 -1.1052
  173SOPE   O1419585   3.182   6.106  11.030  0.2593 -0.0755 -0.2094
  173SOPE   O1219586   3.407   6.107  11.117 -0.4290  0.0612  0.1759
  173SOPE   O1119587   3.369   6.007  10.894 -0.0261 -0.3418 -0.1617
  173SOPE    C119588   3.479   6.029  10.801 -0.1008  0.5711  1.2431
  173SOPE    HA19589   3.521   5.929  10.778 -1.6612 -0.4054  2.3944
  173SOPE    HB19590   3.560   6.088  10.850 -0.7229  1.1278  1.6326
  173SOPE    C219591   3.428   6.104  10.669  0.3423 -0.2505 -0.6676
  173SOPE    HS19592   3.381   6.202  10.693 -0.2917 -0.2167 -1.9762
  173SOPE   O2119593   3.340   6.015  10.590 -0.2429 -0.4045  0.1835
  173SOPE   C2119594   3.256   6.080  10.513  0.2316  0.0468  0.3782
  173SOPE   O2219595   3.241   6.204  10.507  0.2926 -0.8909 -1.2166
  173SOPE   C2219596   3.187   5.978  10.431  0.2061 -0.3418 -0.0926
  173SOPE   H2R19597   3.133   5.918  10.507  1.8365  0.8525  2.1821
  173SOPE   H2S19598   3.264   5.918  10.378  1.6200 -0.1115  1.5848
  173SOPE    C319599   3.565   6.152  10.591 -0.3458  0.1422  0.4755
  173SOPE    HX19600   3.605   6.074  10.523 -3.1764 -0.7907 -0.2854
  173SOPE    HY19601   3.633   6.174  10.676 -2.0572  2.3205  1.3884
  173SOPE   O3119602   3.547   6.280  10.523  0.0442 -0.7595 -0.2364
  173SOPE   C3119603   3.517   6.269  10.391 -0.1460  0.3330 -0.3449
  173SOPE   O3219604   3.509   6.163  10.335 -0.1382  0.5396  0.2801
  173SOPE   C3219605   3.509   6.402  10.316  0.0671  0.0112 -0.6566
  173SOPE   H2X19606   3.536   6.489  10.380 -0.6459 -0.1988 -0.0591
  173SOPE   H2Y19607   3.401   6.417  10.297 -0.0262  1.6384  0.8097
  173SOPE   C2319608   3.099   6.033  10.319  0.1671 -0.1679 -0.0124
  173SOPE   H3R19609   3.038   6.123  10.344 -1.5181 -0.7219 -1.8431
  173SOPE   H3S19610   3.023   5.956  10.294 -0.7286  0.0170  1.9201
  173SOPE   C2419611   3.173   6.066  10.185 -0.3686  0.1369  0.0722
  173SOPE   H4R19612   3.258   6.134  10.206  0.3910 -0.7118 -0.1487
  173SOPE   H4S19613   3.230   5.977  10.149  0.1253 -0.0687  1.2934
  173SOPE   C2519614   3.096   6.118  10.066 -0.8437  0.6239 -0.3646
  173SOPE   H5R19615   2.997   6.068  10.060 -1.0512  0.9473  0.2330
  173SOPE   H5S19616   3.080   6.225  10.091 -0.6964  0.2624  1.3908
  173SOPE   C2619617   3.188   6.113   9.943  0.3272  0.3955  0.8822
  173SOPE   H6R19618   3.281   6.173   9.954  0.8490 -0.5303  1.7250
  173SOPE   H6S19619   3.224   6.008   9.938 -1.2419 -0.3044  2.8620
  173SOPE   C2719620   3.104   6.145   9.817 -0.0049 -0.6605 -0.2367
  173SOPE   H7R19621   3.026   6.070   9.792  0.5123 -0.8049 -1.4799
  173SOPE   H7S19622   3.038   6.233   9.832  0.6145 -0.5370  2.4186
  173SOPE   C2819623   3.206   6.164   9.690  0.5304  0.1861 -0.2834
  173SOPE   H8R19624   3.293   6.226   9.717 -0.2158  0.6122  1.2505
  173SOPE   H8S19625   3.245   6.064   9.662  1.2335  1.1470 -3.0759
  173SOPE   C2919626   3.141   6.228   9.573 -0.0550 -0.1692 -0.2130
  173SOPE   H9119627   3.107   6.330   9.594  0.7790  0.1677 -0.4646
  173SOPE  C21019628   3.124   6.170   9.451  0.1125  0.3433  0.5394
  173SOPE  H10119629   3.071   6.231   9.376 -0.0194  1.3056  1.4045
  173SOPE  C21119630   3.169   6.035   9.405 -0.0864  0.0413  0.5417
  173SOPE  H11R19631   3.096   5.996   9.331 -1.1063 -0.8105  1.9639
  173SOPE  H11S19632   3.183   5.962   9.488  0.9285 -1.5674 -0.9812
  173SOPE  C21219633   3.307   6.040   9.342 -0.3801 -0.1371  0.0701
  173SOPE  H12R19634   3.345   5.937   9.322  0.5437  0.4965 -1.6737
  173SOPE  H12S19635   3.385   6.083   9.408 -1.0619 -1.4185  1.7932
  173SOPE  C21319636   3.305   6.111   9.209  0.2432  0.3203  0.3932
  173SOPE  H13R19637   3.399   6.171   9.205 -1.2811  2.8557  0.1768
  173SOPE  H13S19638   3.230   6.193   9.208  1.5446  1.5565  0.5567
  173SOPE  C21419639   3.292   6.023   9.080 -0.0414  0.0329  0.0921
  173SOPE  H14R19640   3.190   5.982   9.065  0.5778 -1.4427 -0.2966
  173SOPE  H14S19641   3.354   5.931   9.088 -0.8479 -0.8737 -2.9177
  173SOPE  C21519642   3.312   6.111   8.955 -0.5664  0.6640  0.3590
  173SOPE  H15R19643   3.415   6.149   8.971 -1.1343  2.1747  0.6554
  173SOPE  H15S19644   3.233   6.189   8.959 -0.5800  0.8708 -2.3952
  173SOPE  C21619645   3.291   6.020   8.827 -0.6317  0.3663  0.8350
  173SOPE  H16R19646   3.198   5.960   8.833  0.2254 -0.8760  2.1456
  173SOPE  H16S19647   3.370   5.943   8.820 -1.5232 -0.5280  0.3649
  173SOPE  C21719648   3.312   6.106   8.697 -0.2525 -0.0795  0.2906
  173SOPE  H17R19649   3.406   6.164   8.715 -1.8391  2.5999  0.5268
  173SOPE  H17S19650   3.227   6.176   8.682  0.2737  0.8156  1.3153
  173SOPE  C21819651   3.335   6.023   8.575 -0.3483  0.1747 -0.3530
  173SOPE  H18R19652   3.435   5.975   8.577 -0.4237  0.0537  1.0595
  173SOPE  H18S19653   3.329   6.075   8.477 -0.7834  0.3251 -0.2484
  173SOPE  H18T19654   3.268   5.937   8.555 -1.1238  0.9291 -1.0984
  173SOPE   C3319655   3.584   6.404  10.185 -0.4966 -0.5109 -0.1909
  173SOPE   H3X19656   3.547   6.483  10.115  2.3371  0.8635 -0.2602
  173SOPE   H3Y19657   3.568   6.310  10.128  2.0648 -0.6758 -0.7497
  173SOPE   C3419658   3.741   6.419  10.205 -0.3375 -0.3409  0.1033
  173SOPE   H4X19659   3.783   6.334  10.263  1.2219 -0.9725 -1.8199
  173SOPE   H4Y19660   3.762   6.513  10.260  1.3969 -0.4698 -0.2736
  173SOPE   C3519661   3.809   6.432  10.070  0.6934  0.0646  0.3437
  173SOPE   H5X19662   3.769   6.513  10.005  3.2684 -0.6195 -2.3111
  173SOPE   H5Y19663   3.779   6.341  10.014 -0.8721 -1.1287  2.9399
  173SOPE   C3619664   3.965   6.441  10.073 -0.2553 -0.3773  0.3840
  173SOPE   H6X19665   3.996   6.340  10.106 -1.0411 -1.4018 -1.7922
  173SOPE   H6Y19666   4.006   6.514  10.146 -0.1378  2.4465 -2.2742
  173SOPE   C3719667   4.020   6.482   9.939 -0.3674 -0.1403  1.1776
  173SOPE   H7X19668   4.012   6.592   9.926 -2.0107 -0.5873 -3.1888
  173SOPE   H7Y19669   3.964   6.429   9.860 -0.6155 -2.2088  2.6559
  173SOPE   C3819670   4.169   6.448   9.923  0.2906  0.6293  0.3416
  173SOPE   H8X19671   4.168   6.342   9.891 -0.5001  0.3672  1.1852
  173SOPE   H8Y19672   4.227   6.465  10.017 -1.3254  4.4148  0.8299
  173SOPE   C3919673   4.234   6.516   9.809  0.1845 -0.4925 -0.6403
  173SOPE   H9X19674   4.212   6.624   9.807 -3.0111 -1.0036  1.0587
  173SOPE   H9Y19675   4.188   6.478   9.715 -0.7414  1.2798 -0.9459
  173SOPE  C31019676   4.392   6.513   9.834 -0.2219  0.1208  0.1265
  173SOPE  H10X19677   4.413   6.406   9.856  0.7884  0.6812  2.2186
  173SOPE  H10Y19678   4.426   6.578   9.917  0.1786  0.8307 -0.5833
  173SOPE  C31119679   4.473   6.553   9.715 -0.1201 -1.0692  0.0835
  173SOPE  H11X19680   4.580   6.566   9.741 -0.3485  0.1333  0.4862
  173SOPE  H11Y19681   4.447   6.658   9.691  1.1654 -0.4668  1.1764
  173SOPE  C31219682   4.470   6.465   9.591  0.2472 -0.2833  0.0887
  173SOPE  H12X19683   4.365   6.454   9.556  1.0303 -4.3151 -1.5914
  173SOPE  H12Y19684   4.512   6.366   9.618  1.5436  0.8659  2.6608
  173SOPE  C31319685   4.535   6.536   9.476 -0.0344 -0.2997 -0.0301
  173SOPE  H13X19686   4.641   6.566   9.494 -0.8400  1.4852  2.2360
  173SOPE  H13Y19687   4.480   6.625   9.441  0.5457  0.4739  0.9641
  173SOPE  C31419688   4.530   6.450   9.351  0.2579  1.0446  0.1588
  173SOPE  H14X19689   4.420   6.442   9.338 -0.0268  1.4773  2.0589
  173SOPE  H14Y19690   4.572   6.351   9.379  1.7500  1.6176  0.0398
  173SOPE  C31519691   4.605   6.513   9.230  0.2106 -0.7308 -0.5450
  173SOPE  H15X19692   4.694   6.571   9.264 -1.8084  1.8685  0.6191
  173SOPE  H15Y19693   4.543   6.593   9.185 -0.4158  0.4155  2.1848
  173SOPE  C31619694   4.655   6.408   9.124 -0.2050  0.0541  0.0224
  173SOPE  H16X19695   4.567   6.365   9.071  0.4598 -2.1908  0.6290
  173SOPE  H16Y19696   4.714   6.326   9.171 -0.8794 -0.5172 -0.1072
  173SOPE  C31719697   4.736   6.462   9.004 -0.2435 -0.3353  0.0240
  173SOPE  H17X19698   4.839   6.488   9.036 -0.6191 -1.4280  2.3141
  173SOPE  H17Y19699   4.687   6.557   8.973  1.6022  1.2780  1.7751
  173SOPE  C31819700   4.757   6.366   8.884  0.0477  0.1852 -0.5016
  173SOPE  H18X19701   4.661   6.332   8.839  0.2773 -0.4067 -0.5493
  173SOPE  H18Y19702   4.820   6.282   8.922 -0.5300 -0.0658 -0.0816
  173SOPE  H18Z19703   4.812   6.414   8.801  0.2934 -2.1451 -1.7612
  174SOPE     N19704   3.008   6.283  10.868  0.2741  0.6332 -0.2404
  174SOPE   HN119705   3.031   6.385  10.874  0.8387  0.5128 -0.3788
  174SOPE   HN219706   2.904   6.275  10.873  0.2494  1.3992  0.9898
  174SOPE   HN319707   3.059   6.227  10.939  0.1065  1.2036  0.3460
  174SOPE   C1219708   3.057   6.226  10.739 -0.2279  0.4529 -0.1500
  174SOPE  H12A19709   3.168   6.237  10.734  0.3490 -4.1891 -1.8156
  174SOPE  H12B19710   3.022   6.275  10.646  1.6069  0.0868 -1.0825
  174SOPE   C1119711   3.020   6.075  10.729 -0.2982 -0.6977 -0.0749
  174SOPE  H11A19712   3.097   6.009  10.776 -0.4169 -0.3658  0.5798
  174SOPE  H11B19713   3.017   6.068  10.618 -2.2860 -0.3045 -0.0720
  174SOPE     P19714   2.832   5.922  10.839 -0.2998  0.1827 -0.1755
  174SOPE   O1319715   2.735   5.968  10.939  0.1066 -0.3980  0.1597
  174SOPE   O1419716   2.933   5.831  10.896  0.2238  0.0697  0.2133
  174SOPE   O1219717   2.889   6.049  10.766  0.0396 -0.0658 -0.6247
  174SOPE   O1119718   2.746   5.850  10.715  0.2943  0.4582 -0.1466
  174SOPE    C119719   2.802   5.822  10.592 -0.3299  0.0322 -0.4332
  174SOPE    HA19720   2.904   5.778  10.600  0.3209  1.4256 -0.6737
  174SOPE    HB19721   2.808   5.918  10.536 -0.9091  0.0954 -0.3916
  174SOPE    C219722   2.705   5.729  10.515 -0.2812  0.9523  0.5711
  174SOPE    HS19723   2.663   5.651  10.581  4.7289 -2.1696  0.6036
  174SOPE   O2119724   2.781   5.656  10.413 -0.0013 -0.2350  0.0949
  174SOPE   C2119725   2.842   5.549  10.459 -0.2078 -0.1067  0.2435
  174SOPE   O2219726   2.834   5.508  10.572 -0.4316  0.2459  0.1523
  174SOPE   C2219727   2.922   5.485  10.342 -0.6297  0.1913  0.4363
  174SOPE   H2R19728   2.846   5.438  10.276  0.7053 -0.9482 -0.3286
  174SOPE   H2S19729   2.982   5.399  10.378 -0.7844 -0.1944 -0.2045
  174SOPE    C319730   2.588   5.815  10.458 -0.4051  0.2307  0.1660
  174SOPE    HX19731   2.558   5.878  10.545  2.2284  0.0265  1.3035
  174SOPE    HY19732   2.504   5.748  10.431  0.4627 -0.7374 -0.1891
  174SOPE   O3119733   2.621   5.902  10.347 -0.0164  0.2090  0.1219
  174SOPE   C3119734   2.624   5.841  10.220  0.1050 -0.4236  0.0599
  174SOPE   O3219735   2.564   5.740  10.196  0.2501  0.0761 -0.7448
  174SOPE   C3219736   2.700   5.927  10.126 -0.5432 -0.2323  0.1945
  174SOPE   H2X19737   2.749   5.862  10.051  0.3039 -2.5445  2.5913
  174SOPE   H2Y19738   2.770   5.983  10.192  0.4541 -2.8977  1.5411
  174SOPE   C2319739   3.034   5.580  10.282 -0.1033  0.6195  0.8605
  174SOPE   H3R19740   3.117   5.510  10.258 -0.5842  0.6453 -1.0966
  174SOPE   H3S19741   3.067   5.655  10.357 -0.0771  0.4636  1.0039
  174SOPE   C2419742   3.003   5.642  10.149  0.5403  0.1356  0.1618
  174SOPE   H4R19743   2.937   5.570  10.097 -1.7073  2.0996  0.1214
  174SOPE   H4S19744   2.941   5.733  10.165  1.1530  0.8908 -1.5615
  174SOPE   C2519745   3.128   5.690  10.072 -0.7735 -0.1835  0.4429
  174SOPE   H5R19746   3.177   5.781  10.113  0.3173 -0.3203 -0.5152
  174SOPE   H5S19747   3.212   5.619  10.085  1.8558  2.1480 -2.2399
  174SOPE   C2619748   3.115   5.706   9.925  0.1836 -0.1066  0.0526
  174SOPE   H6R19749   3.016   5.754   9.908 -0.4047 -1.3931 -0.3418
  174SOPE   H6S19750   3.200   5.761   9.879  0.3252  0.0767  0.5278
  174SOPE   C2719751   3.110   5.583   9.848 -0.6009 -0.0210 -0.2192
  174SOPE   H7R19752   3.199   5.525   9.882 -0.5166 -0.8492 -1.7714
  174SOPE   H7S19753   3.024   5.518   9.874 -1.4291  0.3418 -1.8753
  174SOPE   C2819754   3.114   5.613   9.698  0.2311 -0.3868  0.1112
  174SOPE   H8R19755   3.196   5.677   9.660  0.1763 -1.6355 -2.3829
  174SOPE   H8S19756   3.130   5.511   9.656 -0.7066 -1.2725  1.8246
  174SOPE   C2919757   2.981   5.665   9.643 -0.3146 -0.1372 -0.3089
  174SOPE   H9119758   2.915   5.718   9.715  1.8241  1.0779  0.8696
  174SOPE  C21019759   2.934   5.641   9.518  0.8246  0.2360  0.4185
  174SOPE  H10119760   2.839   5.690   9.493 -0.3959 -1.5368  1.3343
  174SOPE  C21119761   3.005   5.571   9.410 -0.2259 -0.2802  0.1173
  174SOPE  H11R19762   2.934   5.496   9.370  1.0935 -1.6707  0.3142
  174SOPE  H11S19763   3.085   5.506   9.452 -0.0798 -0.6358 -0.6824
  174SOPE  C21219764   3.074   5.666   9.304 -0.2316  0.2539 -0.7647
  174SOPE  H12R19765   3.129   5.748   9.355 -1.2187  0.6235 -0.2627
  174SOPE  H12S19766   2.990   5.710   9.245 -1.7696 -1.3574  0.1053
  174SOPE  C21319767   3.171   5.588   9.217 -0.3728  0.1896  0.2172
  174SOPE  H13R19768   3.112   5.504   9.175  0.6960 -1.5807  2.0816
  174SOPE  H13S19769   3.243   5.543   9.289 -2.0733 -1.4338  0.9890
  174SOPE  C21419770   3.229   5.674   9.093 -0.6356 -0.9456 -0.7122
  174SOPE  H14R19771   3.299   5.744   9.144 -0.5390 -1.3681 -0.2552
  174SOPE  H14S19772   3.154   5.733   9.036 -0.0508 -0.3428 -0.8761
  174SOPE  C21519773   3.293   5.583   8.993  0.5874 -0.1729 -0.6415
  174SOPE  H15R19774   3.217   5.514   8.951 -1.3744  1.6586 -0.2797
  174SOPE  H15S19775   3.370   5.518   9.040 -1.1337 -0.3058  2.2482
  174SOPE  C21619776   3.360   5.657   8.881 -0.0909 -0.0104  0.4263
  174SOPE  H16R19777   3.419   5.734   8.935  1.3017 -1.2184  0.7002
  174SOPE  H16S19778   3.279   5.712   8.828  0.2270  0.7338  0.7001
  174SOPE  C21719779   3.433   5.567   8.777  0.1167 -0.4507 -0.1373
  174SOPE  H17R19780   3.354   5.505   8.729 -0.0207  2.5535 -4.3043
  174SOPE  H17S19781   3.511   5.505   8.826  0.6504  0.9115  0.7791
  174SOPE  C21819782   3.483   5.654   8.650 -0.8363  0.1826  0.5616
  174SOPE  H18R19783   3.564   5.726   8.674  0.1033 -0.5281 -0.3620
  174SOPE  H18S19784   3.390   5.692   8.602 -2.2608 -1.9683  1.4332
  174SOPE  H18T19785   3.525   5.582   8.576 -0.7921  0.0157  0.7477
  174SOPE   C3319786   2.599   6.019  10.057 -0.4888 -0.8170 -0.0352
  174SOPE   H3X19787   2.574   6.106  10.121 -1.3865  0.8253 -2.4827
  174SOPE   H3Y19788   2.515   5.954  10.025 -0.5430 -1.9410  2.1369
  174SOPE   C3419789   2.659   6.077   9.931  0.1717 -0.7724  0.2627
  174SOPE   H4X19790   2.752   6.133   9.956  0.3318 -1.6948  1.8687
  174SOPE   H4Y19791   2.587   6.144   9.880  0.7460 -1.4608 -1.5171
  174SOPE   C3519792   2.689   5.977   9.819  0.3246 -0.1835  0.0286
  174SOPE   H5X19793   2.601   5.922   9.782 -0.0778  1.8642 -2.3161
  174SOPE   H5Y19794   2.772   5.908   9.846 -1.1945 -1.2374  2.3031
  174SOPE   C3619795   2.742   6.056   9.698  0.4683 -0.3640  0.4783
  174SOPE   H6X19796   2.831   6.119   9.720  0.0920  0.8250 -1.1516
  174SOPE   H6Y19797   2.662   6.126   9.666 -0.0158 -1.0439  0.2004
  174SOPE   C3719798   2.782   5.972   9.579 -0.3076  1.0468 -0.6144
  174SOPE   H7X19799   2.707   5.890   9.587 -0.6610  1.5027  0.9852
  174SOPE   H7Y19800   2.884   5.932   9.592 -1.1620 -1.3874 -0.8369
  174SOPE   C3819801   2.772   6.042   9.445  0.3739  0.1623  0.1829
  174SOPE   H8X19802   2.852   6.119   9.435  1.7577 -1.4422 -1.8861
  174SOPE   H8Y19803   2.672   6.092   9.450  0.7808  1.0756 -0.4217
  174SOPE   C3919804   2.763   5.945   9.328 -0.5044  0.0546  1.2304
  174SOPE   H9X19805   2.677   5.876   9.344  0.6664 -1.3510  1.6855
  174SOPE   H9Y19806   2.855   5.885   9.312 -0.9716  0.0614 -2.2435
  174SOPE  C31019807   2.730   6.017   9.191 -0.3950  0.2713 -1.1443
  174SOPE  H10X19808   2.825   6.064   9.159  1.2661 -0.0713  2.7177
  174SOPE  H10Y19809   2.655   6.098   9.209 -0.6662 -0.0104 -0.9994
  174SOPE  C31119810   2.699   5.921   9.069  0.6157  0.0024 -0.3716
  174SOPE  H11X19811   2.595   5.881   9.063  0.6977 -0.1280 -1.1210
  174SOPE  H11Y19812   2.759   5.829   9.087 -2.0326 -2.0585 -1.2924
  174SOPE  C31219813   2.727   5.987   8.937  0.5846  0.5405 -0.8750
  174SOPE  H12X19814   2.720   5.906   8.863 -1.6299 -0.7328  0.6083
  174SOPE  H12Y19815   2.833   6.019   8.947  0.7946 -0.6792  1.8228
  174SOPE  C31319816   2.626   6.094   8.897 -1.3285 -0.9643 -0.2153
  174SOPE  H13X19817   2.608   6.146   8.993 -1.8569  1.2575 -1.4574
  174SOPE  H13Y19818   2.526   6.054   8.869 -1.7826  0.9446 -1.5520
  174SOPE  C31419819   2.668   6.185   8.784  0.6221 -0.1825 -0.2146
  174SOPE  H14X19820   2.633   6.131   8.693  0.4463 -0.9792  0.3209
  174SOPE  H14Y19821   2.776   6.206   8.777  0.9027 -1.5136 -0.0350
  174SOPE  C31519822   2.581   6.316   8.790 -0.0311  0.0973  0.6500
  174SOPE  H15X19823   2.606   6.371   8.883  1.8759 -0.7164  0.6627
  174SOPE  H15Y19824   2.472   6.294   8.783  0.0384  0.1743 -1.0936
  174SOPE  C31619825   2.598   6.403   8.662 -0.2636  0.3880 -0.4913
  174SOPE  H16X19826   2.545   6.500   8.672 -0.4996  0.0709  1.9587
  174SOPE  H16Y19827   2.535   6.354   8.584  0.6913 -0.3058 -0.8439
  174SOPE  C31719828   2.740   6.411   8.609 -0.8835  0.2297 -0.2311
  174SOPE  H17X19829   2.775   6.314   8.567 -1.3487  0.2400 -0.6522
  174SOPE  H17Y19830   2.805   6.438   8.695  1.5234 -3.1084 -0.8071
  174SOPE  C31819831   2.750   6.518   8.496 -0.2324 -0.6280 -0.5613
  174SOPE  H18X19832   2.700   6.474   8.407 -0.2872 -1.4381 -0.1348
  174SOPE  H18Y19833   2.858   6.532   8.479 -0.2447  1.9414  0.9544
  174SOPE  H18Z19834   2.700   6.613   8.527  2.5896 -0.2175  3.4045
  175SOPE     N19835   3.898   0.131  11.012 -0.1927 -0.1043  0.3876
  175SOPE   HN119836   4.001   0.124  11.024 -0.3082 -1.9208  0.6161
  175SOPE   HN219837   3.861   0.214  11.063 -0.9846  0.5502 -1.1941
  175SOPE   HN319838   3.859   0.041  11.047 -0.0721  0.1968  1.3346
  175SOPE   C1219839   3.858   0.135  10.869 -0.9630  0.5236  0.3702
  175SOPE  H12A19840   3.747   0.126  10.859 -0.7703 -1.4057 -0.3850
  175SOPE  H12B19841   3.902   0.044  10.823  2.5545  1.8543  0.7932
  175SOPE   C1119842   3.920   0.248  10.795  0.0551  0.0990 -0.1136
  175SOPE  H11A19843   3.886   0.347  10.833 -0.2118  0.5733 -1.5233
  175SOPE  H11B19844   3.895   0.252  10.687  0.5084  2.9557 -0.1859
  175SOPE     P19845   4.155   0.355  10.766  0.3394  0.0168  0.4880
  175SOPE   O1319846   4.287   0.303  10.724  0.0560 -0.1585 -0.0013
  175SOPE   O1419847   4.161   0.445  10.883  0.1226  0.3904  0.1740
  175SOPE   O1219848   4.061   0.230  10.803 -0.1228  0.4210  0.5944
  175SOPE   O1119849   4.087   0.430  10.634 -0.0234  0.0542  0.2645
  175SOPE    C119850   4.104   0.379  10.500 -0.0645  0.4949 -0.3600
  175SOPE    HA19851   4.030   0.298  10.480 -0.6628  1.6756 -3.5121
  175SOPE    HB19852   4.206   0.341  10.478 -0.7887 -1.8821  0.0573
  175SOPE    C219853   4.082   0.494  10.404 -0.3122  0.3186  1.0499
  175SOPE    HS19854   4.168   0.564  10.412  0.4030  0.2019 -3.5214
  175SOPE   O2119855   3.962   0.558  10.435  0.1820  0.5038  0.6896
  175SOPE   C2119856   3.956   0.681  10.399 -0.2248  0.0227  0.0211
  175SOPE   O2219857   4.042   0.755  10.359  0.3955  0.1738  0.3804
  175SOPE   C2219858   3.813   0.730  10.409  0.1130  0.6116  0.1102
  175SOPE   H2R19859   3.810   0.841  10.402  0.5743  0.7849  2.0636
  175SOPE   H2S19860   3.770   0.708  10.508 -1.1178  0.2749 -0.4838
  175SOPE    C319861   4.080   0.452  10.254  0.4252  0.2548 -0.4267
  175SOPE    HX19862   3.985   0.398  10.234  0.4068  0.8049 -1.9021
  175SOPE    HY19863   4.156   0.373  10.236 -2.4040 -3.3690  2.0106
  175SOPE   O3119864   4.107   0.570  10.168 -0.2688  0.8192 -0.4590
  175SOPE   C3119865   4.232   0.616  10.162 -0.7016 -1.1117 -0.6663
  175SOPE   O3219866   4.331   0.559  10.207  0.3924  0.2826 -0.1401
  175SOPE   C3219867   4.236   0.756  10.083  0.2097 -0.0842  0.6779
  175SOPE   H2X19868   4.343   0.764  10.054 -0.0871 -0.8247 -0.7533
  175SOPE   H2Y19869   4.211   0.836  10.156 -2.6354 -0.4702  0.2709
  175SOPE   C2319870   3.712   0.680  10.303  0.1727  0.6418 -0.2120
  175SOPE   H3R19871   3.615   0.734  10.309 -0.9465 -1.0012 -2.1596
  175SOPE   H3S19872   3.688   0.573  10.325  0.3208  0.3285 -1.4803
  175SOPE   C2419873   3.780   0.687  10.164 -0.0284  0.5840  0.5058
  175SOPE   H4R19874   3.865   0.758  10.167  0.1652  0.3385  1.0398
  175SOPE   H4S19875   3.821   0.585  10.149 -1.5695 -0.0185  0.1084
  175SOPE   C2519876   3.678   0.707  10.057 -0.3232  0.0421  0.3226
  175SOPE   H5R19877   3.606   0.625  10.079 -0.6602  1.0616  3.4404
  175SOPE   H5S19878   3.622   0.801  10.075 -1.7026 -0.4279 -1.1987
  175SOPE   C2619879   3.727   0.706   9.913  0.3205  0.3357 -0.3570
  175SOPE   H6R19880   3.642   0.734   9.849  0.1739 -0.2496 -0.4294
  175SOPE   H6S19881   3.809   0.779   9.900  1.8262 -0.9753  1.1540
  175SOPE   C2719882   3.778   0.571   9.855  0.6108  0.0960  0.6082
  175SOPE   H7R19883   3.878   0.547   9.898 -0.5717 -0.8322  2.9841
  175SOPE   H7S19884   3.708   0.495   9.896 -1.0060  1.3860  0.3177
  175SOPE   C2819885   3.772   0.572   9.695  0.6203  0.6433  0.3613
  175SOPE   H8R19886   3.669   0.607   9.672  1.7566  2.8656 -1.8632
  175SOPE   H8S19887   3.838   0.653   9.656 -0.7938  1.0475 -1.3055
  175SOPE   C2919888   3.831   0.447   9.621 -0.2596  0.5298 -0.3237
  175SOPE   H9119889   3.862   0.366   9.688 -1.6830 -0.4386 -0.8031
  175SOPE  C21019890   3.835   0.427   9.486  0.1318  0.8363 -0.0459
  175SOPE  H10119891   3.878   0.334   9.446 -0.6384 -0.1581  1.3626
  175SOPE  C21119892   3.783   0.521   9.377 -0.3417 -0.0828  0.0937
  175SOPE  H11R19893   3.746   0.619   9.414 -1.7212  0.2826 -2.0641
  175SOPE  H11S19894   3.691   0.479   9.330 -1.4699  2.2676  0.0468
  175SOPE  C21219895   3.884   0.555   9.272  0.2324 -0.2728  0.2046
  175SOPE  H12R19896   3.910   0.466   9.211 -1.2013 -0.9826  0.5784
  175SOPE  H12S19897   3.979   0.584   9.321  0.7789  0.0140 -0.9909
  175SOPE  C21319898   3.832   0.657   9.169  0.0408  0.1630 -0.2431
  175SOPE  H13R19899   3.915   0.671   9.097  0.2369  2.1812  0.3279
  175SOPE  H13S19900   3.818   0.761   9.204 -0.3455  0.5826 -1.5995
  175SOPE  C21419901   3.706   0.614   9.091 -0.3631  0.5968  0.0664
  175SOPE  H14R19902   3.683   0.686   9.010  2.1233  0.3790 -0.9283
  175SOPE  H14S19903   3.617   0.595   9.155  0.1597  0.5934  0.7960
  175SOPE  C21519904   3.727   0.494   8.999 -0.2028  0.3075  0.2489
  175SOPE  H15R19905   3.625   0.471   8.960 -0.5408 -2.1421  2.3282
  175SOPE  H15S19906   3.758   0.410   9.064 -1.7005  0.3643  1.0661
  175SOPE  C21619907   3.821   0.516   8.876  0.5020  0.4380  0.1173
  175SOPE  H16R19908   3.920   0.470   8.894 -0.2436 -0.1957  3.0654
  175SOPE  H16S19909   3.833   0.626   8.867  1.3320  0.2637 -1.2470
  175SOPE  C21719910   3.772   0.449   8.743  0.8025 -0.0429  0.0112
  175SOPE  H17R19911   3.662   0.450   8.726  0.3721 -2.1606  2.1102
  175SOPE  H17S19912   3.795   0.340   8.741 -0.6857 -0.4221  1.3870
  175SOPE  C21819913   3.839   0.511   8.620  0.4557 -0.3684 -0.6184
  175SOPE  H18R19914   3.950   0.504   8.621  0.3546 -2.6980  0.0533
  175SOPE  H18S19915   3.807   0.617   8.615 -2.9426 -1.2261 -0.0328
  175SOPE  H18T19916   3.799   0.461   8.529  1.0773 -1.5114 -0.2874
  175SOPE   C3319917   4.161   0.757   9.950  0.5643 -0.1925  0.8488
  175SOPE   H3X19918   4.152   0.859   9.907 -1.8197 -0.5865  0.3193
  175SOPE   H3Y19919   4.058   0.716   9.954 -0.7397  2.0658 -3.3087
  175SOPE   C3419920   4.229   0.662   9.853 -0.8107  0.1141 -0.7455
  175SOPE   H4X19921   4.212   0.563   9.899  2.2428 -0.0614  0.2360
  175SOPE   H4Y19922   4.339   0.676   9.848 -0.7787  0.3828  0.4003
  175SOPE   C3519923   4.181   0.673   9.702  0.2479 -0.2224  0.3009
  175SOPE   H5X19924   4.191   0.779   9.670  0.5647 -0.1994  0.4643
  175SOPE   H5Y19925   4.081   0.629   9.681  1.0196 -1.4101 -1.0579
  175SOPE   C3619926   4.275   0.599   9.607  0.0213  0.6320 -0.3943
  175SOPE   H6X19927   4.226   0.499   9.604 -0.7818  0.9948  0.1147
  175SOPE   H6Y19928   4.381   0.585   9.637 -0.3828 -2.3571 -0.0998
  175SOPE   C3719929   4.265   0.665   9.467  0.1845 -0.5525 -0.4854
  175SOPE   H7X19930   4.289   0.773   9.478 -1.9515 -0.0789 -0.1068
  175SOPE   H7Y19931   4.155   0.665   9.452 -0.1317 -1.6982  1.5195
  175SOPE   C3819932   4.360   0.589   9.372  0.0911 -0.0931 -0.7179
  175SOPE   H8X19933   4.343   0.483   9.403 -0.0617  0.3904  0.9764
  175SOPE   H8Y19934   4.466   0.604   9.403 -0.2920  1.2053  0.0352
  175SOPE   C3919935   4.321   0.601   9.228  0.4974 -0.5181  0.1200
  175SOPE   H9X19936   4.322   0.706   9.192  1.7156  0.4656  2.7598
  175SOPE   H9Y19937   4.215   0.570   9.227  0.0524  0.8928  0.6048
  175SOPE  C31019938   4.401   0.513   9.131 -0.0570 -0.0001  0.2075
  175SOPE  H10X19939   4.416   0.416   9.183  1.8638  0.7375  1.1330
  175SOPE  H10Y19940   4.502   0.559   9.130 -0.9409  2.3223  2.7599
  175SOPE  C31119941   4.340   0.489   8.992  0.4120  0.0138 -0.3772
  175SOPE  H11X19942   4.335   0.579   8.927 -2.4983 -0.5722 -1.1187
  175SOPE  H11Y19943   4.233   0.458   8.998  0.2464 -0.0715 -2.7056
  175SOPE  C31219944   4.410   0.370   8.926  0.2037 -0.5118  0.5937
  175SOPE  H12X19945   4.400   0.296   9.008  1.7041  0.5833  1.8428
  175SOPE  H12Y19946   4.517   0.400   8.916 -0.5652  3.2043  1.8313
  175SOPE  C31319947   4.327   0.318   8.802 -0.0138  0.9443 -0.4745
  175SOPE  H13X19948   4.220   0.313   8.829  0.7638  0.1876  2.8895
  175SOPE  H13Y19949   4.357   0.212   8.792 -0.2912  0.7713  0.4771
  175SOPE  C31419950   4.342   0.395   8.680  1.0076  0.0815  0.1237
  175SOPE  H14X19951   4.449   0.381   8.655  0.7912  0.1270 -0.8961
  175SOPE  H14Y19952   4.323   0.502   8.702  0.2034  0.6470 -2.8312
  175SOPE  C31519953   4.248   0.359   8.561  0.0471 -0.3173  0.3983
  175SOPE  H15X19954   4.152   0.409   8.585  0.0904  0.4585 -0.9399
  175SOPE  H15Y19955   4.226   0.250   8.555 -0.7874 -0.1838  0.9269
  175SOPE  C31619956   4.296   0.433   8.429  0.0535  0.1559 -0.6258
  175SOPE  H16X19957   4.382   0.377   8.387 -0.3821 -0.9928 -0.0261
  175SOPE  H16Y19958   4.321   0.539   8.449  0.0447  0.2942 -1.3257
  175SOPE  C31719959   4.187   0.426   8.332  0.6242  0.7029 -0.1412
  175SOPE  H17X19960   4.091   0.466   8.372  0.0389 -1.1566  0.3919
  175SOPE  H17Y19961   4.164   0.320   8.309  1.0054  0.4371  0.6637
  175SOPE  C31819962   4.222   0.508   8.205 -0.2922 -0.0772  0.6389
  175SOPE  H18X19963   4.304   0.465   8.145 -1.1070  0.0122 -0.5813
  175SOPE  H18Y19964   4.236   0.618   8.216  0.3546  0.0295 -1.0227
  175SOPE  H18Z19965   4.132   0.505   8.139  1.2236  0.9960 -1.6197
  176SOPE     N19966   2.914   5.385  10.791  0.3982 -0.1505  0.1991
  176SOPE   HN119967   2.818   5.383  10.832  0.3196  0.2097  0.0418
  176SOPE   HN219968   2.987   5.420  10.857 -1.3090  1.3319  1.4026
  176SOPE   HN319969   2.904   5.446  10.708  0.1477 -1.5507 -0.8357
  176SOPE   C1219970   2.938   5.252  10.725 -0.4435  0.2277 -0.3755
  176SOPE  H12A19971   2.863   5.224  10.649 -1.0972  0.2056  0.2704
  176SOPE  H12B19972   2.947   5.168  10.798 -0.5024  0.5292 -0.0206
  176SOPE   C1119973   3.084   5.255  10.668 -0.1607 -0.5007 -0.4766
  176SOPE  H11A19974   3.095   5.352  10.614  0.9478 -0.4567 -0.2023
  176SOPE  H11B19975   3.090   5.173  10.593 -1.0563 -1.5321  0.5517
  176SOPE     P19976   3.260   5.328  10.853  0.4782  0.2347  0.2462
  176SOPE   O1319977   3.371   5.261  10.924  0.3470  0.4169  0.6731
  176SOPE   O1419978   3.158   5.404  10.929 -0.3873  0.0031 -0.0542
  176SOPE   O1219979   3.179   5.220  10.777 -0.5296 -0.8987  0.2493
  176SOPE   O1119980   3.317   5.399  10.728  0.6352 -0.2294  0.2829
  176SOPE    C119981   3.404   5.330  10.635 -0.0949 -0.2955 -0.3848
  176SOPE    HA19982   3.375   5.350  10.530 -5.5454  0.6503  1.0095
  176SOPE    HB19983   3.389   5.221  10.646  0.0985 -0.1450  1.7514
  176SOPE    C219984   3.556   5.377  10.651 -0.3040 -0.7112 -0.0718
  176SOPE    HS19985   3.582   5.385  10.759  3.1953  1.3704 -0.9339
  176SOPE   O2119986   3.574   5.499  10.577 -0.0665 -0.4232  0.1454
  176SOPE   C2119987   3.533   5.604  10.642  0.6055 -0.8967  0.3522
  176SOPE   O2219988   3.505   5.609  10.761 -0.3191  0.1181 -0.0427
  176SOPE   C2219989   3.525   5.726  10.548 -0.1713  0.6608 -0.0084
  176SOPE   H2R19990   3.612   5.793  10.559  0.2493 -0.0048  0.9198
  176SOPE   H2S19991   3.438   5.787  10.582 -0.8036 -1.0795  1.6893
  176SOPE    C319992   3.647   5.277  10.574 -0.2161 -0.0016  0.4405
  176SOPE    HX19993   3.655   5.176  10.621 -1.3135 -0.6216 -0.6231
  176SOPE    HY19994   3.752   5.307  10.591  0.8318 -3.1283  0.1441
  176SOPE   O3119995   3.611   5.265  10.434 -0.1082  0.3504 -0.4756
  176SOPE   C3119996   3.688   5.321  10.347 -1.3295  0.1358 -0.6277
  176SOPE   O3219997   3.786   5.393  10.373 -0.2824  0.2335 -0.1895
  176SOPE   C3219998   3.632   5.297  10.209  0.0120  0.4890  0.3889
  176SOPE   H2X19999   3.530   5.252  10.220  0.3533 -0.4121  0.0177
  176SOPE   H2Y20000   3.696   5.217  10.164  0.8173  1.1679  0.3155
  176SOPE   C2320001   3.522   5.706  10.396 -0.1523 -0.5834 -0.0047
  176SOPE   H3R20002   3.419   5.678  10.364 -0.0184 -1.5907  0.3949
  176SOPE   H3S20003   3.586   5.625  10.355 -1.5594 -0.5983 -2.3389
  176SOPE   C2420004   3.565   5.826  10.314  0.6649 -1.2518  0.7640
  176SOPE   H4R20005   3.498   5.912  10.338 -0.6250 -1.5601 -1.4641
  176SOPE   H4S20006   3.665   5.865  10.343 -0.4536  1.7038  1.0082
  176SOPE   C2520007   3.557   5.792  10.163 -0.2315 -0.8813  0.5926
  176SOPE   H5R20008   3.644   5.732  10.127  0.4057 -0.4239  1.3362
  176SOPE   H5S20009   3.461   5.738  10.152 -0.3871 -0.4813 -0.1369
  176SOPE   C2620010   3.565   5.916  10.071 -0.0793  0.4096 -0.1041
  176SOPE   H6R20011   3.480   5.985  10.090 -1.6479 -1.8380  1.6216
  176SOPE   H6S20012   3.654   5.980  10.086 -1.1281  1.7918  0.5302
  176SOPE   C2720013   3.583   5.890   9.916 -0.2095  0.0660 -0.5294
  176SOPE   H7R20014   3.661   5.811   9.904  0.0465  0.5940 -2.8706
  176SOPE   H7S20015   3.488   5.848   9.877  0.7086 -0.0974 -2.7279
  176SOPE   C2820016   3.630   6.010   9.834 -0.2053  0.3761 -1.0008
  176SOPE   H8R20017   3.551   6.088   9.840 -1.3222 -0.8129  0.4991
  176SOPE   H8S20018   3.723   6.051   9.879 -1.9872  2.3183  1.1222
  176SOPE   C2920019   3.649   5.972   9.693  0.3127  0.3308  0.6195
  176SOPE   H9120020   3.682   5.869   9.670 -3.1727 -0.5656 -1.1056
  176SOPE  C21020021   3.618   6.050   9.582 -0.3232 -0.3157 -0.0102
  176SOPE  H10120022   3.648   6.019   9.481 -0.0511 -0.2629  0.0566
  176SOPE  C21120023   3.570   6.193   9.590 -0.5691  0.5150 -0.0864
  176SOPE  H11R20024   3.628   6.233   9.677 -0.9414 -0.7598  0.7715
  176SOPE  H11S20025   3.461   6.196   9.612 -0.1697 -0.1658  2.3187
  176SOPE  C21220026   3.594   6.277   9.461 -0.2260  0.8644 -0.3445
  176SOPE  H12R20027   3.517   6.249   9.386 -0.9354 -0.4480  0.8202
  176SOPE  H12S20028   3.700   6.269   9.430  0.7544  1.8203  2.4382
  176SOPE  C21320029   3.581   6.426   9.493 -0.0306  0.2848 -0.2198
  176SOPE  H13R20030   3.615   6.479   9.402 -0.0169  0.9779  0.1831
  176SOPE  H13S20031   3.644   6.466   9.574 -0.8222  0.8678  0.1182
  176SOPE  C21420032   3.436   6.475   9.509 -0.0083 -0.0579  0.3904
  176SOPE  H14R20033   3.450   6.581   9.541  1.7107  0.6729 -2.4103
  176SOPE  H14S20034   3.376   6.420   9.584 -1.6662 -0.5125 -1.2054
  176SOPE  C21520035   3.362   6.479   9.372 -0.1238  0.8511  0.0318
  176SOPE  H15R20036   3.336   6.376   9.341  1.6213  0.7547 -1.1909
  176SOPE  H15S20037   3.435   6.515   9.297  1.5574 -1.2163  0.5864
  176SOPE  C21620038   3.241   6.575   9.372 -0.1311  0.4797  0.1807
  176SOPE  H16R20039   3.278   6.678   9.355  1.3113  0.3217  1.9829
  176SOPE  H16S20040   3.193   6.577   9.472  1.7641 -1.1650  1.1952
  176SOPE  C21720041   3.139   6.523   9.270 -0.4354  0.0803  0.2051
  176SOPE  H17R20042   3.048   6.586   9.278 -1.1402 -1.0562  1.4376
  176SOPE  H17S20043   3.100   6.423   9.297 -2.8964  0.9824  0.2628
  176SOPE  C21820044   3.185   6.516   9.126 -0.1996 -0.7003  0.1424
  176SOPE  H18R20045   3.267   6.443   9.109 -0.7845 -1.6439  1.2740
  176SOPE  H18S20046   3.227   6.613   9.093 -1.9210  0.0298 -0.0339
  176SOPE  H18T20047   3.107   6.490   9.052 -0.9804 -2.9623  1.6605
  176SOPE   C3320048   3.644   5.423  10.121  0.6853 -0.7438  0.9477
  176SOPE   H3X20049   3.747   5.461  10.104  0.5433 -0.3180  1.0363
  176SOPE   H3Y20050   3.589   5.512  10.158  0.0116  0.3698 -2.4116
  176SOPE   C3420051   3.582   5.398   9.981  0.2663 -0.7474 -0.3727
  176SOPE   H4X20052   3.480   5.361  10.009 -0.1863 -0.5581 -1.6866
  176SOPE   H4Y20053   3.623   5.308   9.930  0.5499 -0.7287 -0.1781
  176SOPE   C3520054   3.580   5.521   9.889  0.2356 -0.7842 -0.6379
  176SOPE   H5X20055   3.686   5.545   9.865  0.1412 -0.6565 -0.9241
  176SOPE   H5Y20056   3.535   5.612   9.935  0.2758  0.8940 -3.6682
  176SOPE   C3620057   3.506   5.494   9.758  0.4856  0.2353 -0.3719
  176SOPE   H6X20058   3.399   5.506   9.786  0.6236  1.1883 -0.2252
  176SOPE   H6Y20059   3.523   5.392   9.719 -0.7603 -0.8129  1.7011
  176SOPE   C3720060   3.541   5.596   9.648  0.5971  0.5660 -0.2495
  176SOPE   H7X20061   3.651   5.591   9.630  0.7759  1.5059  0.4940
  176SOPE   H7Y20062   3.521   5.705   9.660 -0.1292  0.5788 -1.4152
  176SOPE   C3820063   3.472   5.569   9.519  0.2897  0.0136  0.3468
  176SOPE   H8X20064   3.362   5.575   9.536  0.3849 -0.3162  1.1510
  176SOPE   H8Y20065   3.486   5.462   9.492 -2.5697 -0.5897  0.8924
  176SOPE   C3920066   3.520   5.656   9.397 -0.6032  0.8273  0.1550
  176SOPE   H9X20067   3.518   5.760   9.437 -0.8471  0.9123 -0.0715
  176SOPE   H9Y20068   3.443   5.650   9.316  0.3893 -0.8346 -0.7094
  176SOPE  C31020069   3.657   5.615   9.342 -0.4948  0.2550 -0.1474
  176SOPE  H10X20070   3.647   5.507   9.322  0.0574  0.1281  0.2160
  176SOPE  H10Y20071   3.727   5.624   9.428 -0.1793 -1.9368 -0.1405
  176SOPE  C31120072   3.713   5.686   9.221 -0.3380  0.0033 -0.1119
  176SOPE  H11X20073   3.641   5.689   9.137  1.6104  0.6006 -1.8379
  176SOPE  H11Y20074   3.795   5.626   9.176 -0.3379  0.8624 -1.3116
  176SOPE  C31220075   3.765   5.824   9.262 -0.2350 -0.0426  0.2402
  176SOPE  H12X20076   3.848   5.826   9.336 -0.3699 -1.9461  0.4807
  176SOPE  H12Y20077   3.678   5.874   9.310  0.7247 -0.3917  2.4669
  176SOPE  C31320078   3.798   5.917   9.148  0.6349 -0.0773  0.3822
  176SOPE  H13X20079   3.726   5.892   9.066  1.4893  1.0414 -0.7464
  176SOPE  H13Y20080   3.898   5.892   9.105  0.7209  1.3424 -0.3015
  176SOPE  C31420081   3.779   6.068   9.181  0.6419 -0.4072  0.8685
  176SOPE  H14X20082   3.865   6.107   9.240  0.5192 -0.3994  1.0403
  176SOPE  H14Y20083   3.687   6.093   9.238  0.6767  3.4984 -0.4616
  176SOPE  C31520084   3.763   6.150   9.055  0.0584 -0.2792  1.0360
  176SOPE  H15X20085   3.715   6.085   8.979 -0.2152  1.0261  0.0737
  176SOPE  H15Y20086   3.861   6.167   9.006 -0.3411 -0.7046  0.0778
  176SOPE  C31620087   3.687   6.287   9.064 -0.3939 -0.4385 -0.4923
  176SOPE  H16X20088   3.743   6.362   9.124  0.4303 -0.5434 -1.1195
  176SOPE  H16Y20089   3.588   6.261   9.106 -1.4325  0.2130 -2.4199
  176SOPE  C31720090   3.648   6.349   8.933  0.7068  0.2117 -0.5682
  176SOPE  H17X20091   3.595   6.276   8.868 -2.3695  2.1095 -0.4158
  176SOPE  H17Y20092   3.734   6.371   8.867  1.1736 -1.2433 -0.4751
  176SOPE  C31820093   3.563   6.475   8.941  0.2957  0.0804 -0.0560
  176SOPE  H18X20094   3.542   6.515   8.840 -0.3336 -0.0462  0.0239
  176SOPE  H18Y20095   3.626   6.554   8.988  0.1621  1.4538 -2.0764
  176SOPE  H18Z20096   3.471   6.467   9.002 -0.9250  0.0034 -1.8389
  177SOPE     N20097   3.886   3.826  10.842 -0.4943  0.5775 -0.0190
  177SOPE   HN120098   3.822   3.773  10.779 -1.0815  2.4877 -1.1183
  177SOPE   HN220099   3.974   3.773  10.848 -0.3497  0.9250  1.7021
  177SOPE   HN320100   3.849   3.819  10.939  1.6620  0.8243  0.8786
  177SOPE   C1220101   3.906   3.973  10.800  0.0017  0.5585 -0.1158
  177SOPE  H12A20102   3.998   3.976  10.737  0.2313  1.4572  0.2490
  177SOPE  H12B20103   3.915   4.033  10.893 -0.6290 -1.1078  1.0572
  177SOPE   C1120104   3.782   4.033  10.721  0.3457  0.6044  0.3680
  177SOPE  H11A20105   3.762   3.981  10.625 -2.8241  0.7979  0.8203
  177SOPE  H11B20106   3.805   4.139  10.697  0.1073  0.8585  1.2374
  177SOPE     P20107   3.607   4.117  10.897 -0.3213  0.2231  0.1241
  177SOPE   O1320108   3.710   4.118  11.004 -0.0055 -0.1247  0.2399
  177SOPE   O1420109   3.464   4.096  10.931  0.3660  0.4473 -0.3799
  177SOPE   O1220110   3.657   4.012  10.789  0.3976  0.3548 -0.4575
  177SOPE   O1120111   3.619   4.253  10.812 -0.3645  0.5440 -0.4430
  177SOPE    C120112   3.490   4.306  10.765 -0.0625  0.3058 -0.6986
  177SOPE    HA20113   3.501   4.410  10.729 -1.5100  0.3088 -1.1806
  177SOPE    HB20114   3.412   4.315  10.843 -1.6350  1.5768 -2.3381
  177SOPE    C220115   3.423   4.217  10.658  0.1890  0.2599 -0.3370
  177SOPE    HS20116   3.421   4.114  10.698 -1.4462  0.9619  1.5239
  177SOPE   O2120117   3.495   4.227  10.540 -0.3547  0.0954 -0.3866
  177SOPE   C2120118   3.484   4.131  10.451  0.0345 -0.1500 -0.0022
  177SOPE   O2220119   3.410   4.035  10.461 -0.0422 -0.3867 -0.2968
  177SOPE   C2220120   3.559   4.170  10.327  1.0121 -0.1098 -0.4653
  177SOPE   H2R20121   3.633   4.091  10.302  0.2109 -1.6213  1.6512
  177SOPE   H2S20122   3.602   4.272  10.332  2.1204 -0.4455 -2.1692
  177SOPE    C320123   3.279   4.263  10.648  0.1418 -0.1653  0.4144
  177SOPE    HX20124   3.222   4.234  10.739 -2.2815 -1.9941 -1.5452
  177SOPE    HY20125   3.227   4.205  10.570  0.3138 -1.2887  1.1140
  177SOPE   O3120126   3.268   4.401  10.617 -0.1808  0.2286 -0.7966
  177SOPE   C3120127   3.241   4.434  10.490 -0.3718  0.2973  0.4728
  177SOPE   O3220128   3.235   4.351  10.399  0.1873 -0.3028  0.4697
  177SOPE   C3220129   3.218   4.585  10.484 -0.2904 -0.2254 -0.5009
  177SOPE   H2X20130   3.289   4.625  10.409 -0.0040  2.7219  1.1423
  177SOPE   H2Y20131   3.249   4.621  10.585  0.5868 -0.1290 -0.7944
  177SOPE   C2320132   3.455   4.171  10.215  0.2230  0.0594  0.1973
  177SOPE   H3R20133   3.362   4.226  10.242 -0.6633 -0.9930 -0.6701
  177SOPE   H3S20134   3.416   4.068  10.200  1.2555 -0.7563  2.5370
  177SOPE   C2420135   3.528   4.228  10.086  0.3128  0.0273 -0.8678
  177SOPE   H4R20136   3.536   4.338  10.097 -2.2725  0.1741  0.3071
  177SOPE   H4S20137   3.632   4.189  10.078  0.0806 -0.8101 -0.0379
  177SOPE   C2520138   3.454   4.197   9.956 -0.5970 -0.4017  0.0885
  177SOPE   H5R20139   3.431   4.088   9.950  0.6003 -0.6639  0.0669
  177SOPE   H5S20140   3.354   4.244   9.951 -0.8604 -1.0524 -2.7836
  177SOPE   C2620141   3.541   4.240   9.834  0.3190  0.8281 -0.6576
  177SOPE   H6R20142   3.544   4.351   9.822 -0.5149  0.8555 -0.6785
  177SOPE   H6S20143   3.644   4.206   9.856  0.4286  1.2932 -0.4399
  177SOPE   C2720144   3.486   4.185   9.704  0.2446 -0.6600 -0.2472
  177SOPE   H7R20145   3.463   4.077   9.712 -1.2676 -0.3890 -0.4988
  177SOPE   H7S20146   3.388   4.237   9.690 -0.1793 -1.7163 -1.3184
  177SOPE   C2820147   3.557   4.211   9.575  0.2416 -0.4960 -0.2063
  177SOPE   H8R20148   3.606   4.310   9.580 -1.4305  0.3285  1.9381
  177SOPE   H8S20149   3.630   4.128   9.576  1.3546  0.4380  1.6627
  177SOPE   C2920150   3.484   4.207   9.442 -0.0200  0.2431  0.0091
  177SOPE   H9120151   3.375   4.217   9.452  0.1059  0.4832  1.4564
  177SOPE  C21020152   3.533   4.202   9.315 -0.6254 -0.7997  0.0607
  177SOPE  H10120153   3.466   4.190   9.229  1.0729 -0.6562 -1.3341
  177SOPE  C21120154   3.679   4.196   9.285 -0.2802 -0.0828  0.2056
  177SOPE  H11R20155   3.738   4.207   9.378  0.4359 -0.0726 -0.2397
  177SOPE  H11S20156   3.722   4.268   9.212  0.3076 -0.7044 -0.0673
  177SOPE  C21220157   3.722   4.059   9.226 -0.0993  0.4494  0.4191
  177SOPE  H12R20158   3.676   3.983   9.293  0.9922 -0.9554 -0.3840
  177SOPE  H12S20159   3.833   4.054   9.230 -0.0362  1.9017  0.9380
  177SOPE  C21320160   3.671   4.038   9.082  0.3984 -0.8693  0.7377
  177SOPE  H13R20161   3.702   4.127   9.025 -0.3509 -0.7901  0.4387
  177SOPE  H13S20162   3.560   4.041   9.077  0.4019 -0.7806  0.7209
  177SOPE  C21420163   3.717   3.912   9.012  0.1689 -0.0335  0.8207
  177SOPE  H14R20164   3.693   3.824   9.076 -2.5511 -0.1396 -0.1966
  177SOPE  H14S20165   3.828   3.905   9.004  0.1966  1.7451 -1.4839
  177SOPE  C21520166   3.647   3.884   8.878  0.1475  0.3865 -0.3308
  177SOPE  H15R20167   3.541   3.862   8.900 -0.1089  1.6131 -0.2859
  177SOPE  H15S20168   3.695   3.797   8.827  0.8754 -0.3278  1.4853
  177SOPE  C21620169   3.648   4.013   8.791 -0.1662  0.2068 -0.8207
  177SOPE  H16R20170   3.752   4.053   8.789  0.7596 -1.9958 -0.0933
  177SOPE  H16S20171   3.576   4.090   8.826 -1.2124 -1.7881  1.7742
  177SOPE  C21720172   3.606   3.980   8.647 -0.0813 -0.3440  0.2001
  177SOPE  H17R20173   3.501   3.946   8.660 -0.5585  1.7284  2.4336
  177SOPE  H17S20174   3.670   3.896   8.614  1.2398  0.8595 -0.3735
  177SOPE  C21820175   3.624   4.094   8.538 -0.0411 -0.5703  0.0517
  177SOPE  H18R20176   3.603   4.195   8.578 -0.5766 -0.2319 -1.0732
  177SOPE  H18S20177   3.557   4.080   8.451 -1.3582  0.7282  0.8010
  177SOPE  H18T20178   3.732   4.090   8.515  0.6538  0.4730  2.6888
  177SOPE   C3320179   3.072   4.628  10.455 -0.1888  0.3930 -0.0896
  177SOPE   H3X20180   3.064   4.739  10.455 -0.9854  0.3396  0.3566
  177SOPE   H3Y20181   3.016   4.600  10.546  0.3567  1.4385  0.5933
  177SOPE   C3420182   3.021   4.574  10.324  0.0992  0.1799 -0.4064
  177SOPE   H4X20183   2.917   4.612  10.312 -0.3316 -0.6675  0.4739
  177SOPE   H4Y20184   3.015   4.464  10.338 -0.1804  0.0110 -1.6780
  177SOPE   C3520185   3.097   4.592  10.197  0.1547  0.3805  0.1239
  177SOPE   H5X20186   3.197   4.553  10.223 -1.3984 -1.0644  4.9058
  177SOPE   H5Y20187   3.105   4.701  10.177  2.6400 -0.1129 -2.0675
  177SOPE   C3620188   3.033   4.514  10.079 -0.3634 -0.5432  0.1600
  177SOPE   H6X20189   2.924   4.536  10.079 -0.3608 -0.4840 -0.6102
  177SOPE   H6Y20190   3.055   4.408  10.103  1.7008 -0.2038 -0.0911
  177SOPE   C3720191   3.085   4.551   9.937  0.7138  0.0003  0.1618
  177SOPE   H7X20192   3.195   4.544   9.918  0.4548 -1.5994 -1.0287
  177SOPE   H7Y20193   3.052   4.656   9.923  1.4989  0.3685  0.9480
  177SOPE   C3820194   3.020   4.455   9.823  0.9895  0.1076 -0.7251
  177SOPE   H8X20195   2.923   4.505   9.803 -0.3549  0.3666  4.9124
  177SOPE   H8Y20196   2.995   4.354   9.863  0.0256  0.2984 -0.8351
  177SOPE   C3920197   3.105   4.447   9.696 -0.2781 -0.1290  0.3111
  177SOPE   H9X20198   3.194   4.380   9.705  0.2677  0.5840  0.3148
  177SOPE   H9Y20199   3.147   4.546   9.668  3.5582 -1.4155  0.8815
  177SOPE  C31020200   3.034   4.387   9.570  0.1787  0.1099 -0.5806
  177SOPE  H10X20201   2.930   4.424   9.564 -0.5530 -1.4265  1.4331
  177SOPE  H10Y20202   3.012   4.282   9.600 -2.1673  0.9427  0.8857
  177SOPE  C31120203   3.116   4.394   9.447  0.1515  0.1612 -0.0596
  177SOPE  H11X20204   3.193   4.319   9.473 -0.0098  0.6682  2.0584
  177SOPE  H11Y20205   3.154   4.498   9.437 -0.1527  0.1856 -1.0936
  177SOPE  C31220206   3.037   4.342   9.327 -0.0814  0.0367 -0.6815
  177SOPE  H12X20207   2.956   4.415   9.311 -0.3419 -0.5453 -2.2387
  177SOPE  H12Y20208   2.990   4.243   9.346 -0.1150 -0.0710 -1.3003
  177SOPE  C31320209   3.126   4.327   9.200 -0.8888 -0.8518 -0.0829
  177SOPE  H13X20210   3.195   4.243   9.227 -1.9871 -1.0663  2.3905
  177SOPE  H13Y20211   3.185   4.421   9.193  0.0920 -1.3142  1.4031
  177SOPE  C31420212   3.060   4.280   9.069 -0.1206 -0.7070 -0.4399
  177SOPE  H14X20213   2.997   4.365   9.035  0.2831  0.4199  1.5225
  177SOPE  H14Y20214   2.992   4.193   9.080 -1.5682  0.2064 -1.7452
  177SOPE  C31520215   3.173   4.237   8.968 -0.8609 -0.3502  0.5226
  177SOPE  H15X20216   3.209   4.132   8.978 -0.3559 -0.3509 -1.0017
  177SOPE  H15Y20217   3.252   4.314   8.971 -1.9144  0.8087 -0.5199
  177SOPE  C31620218   3.120   4.260   8.825  0.1344  0.5970 -0.6120
  177SOPE  H16X20219   3.080   4.363   8.833 -2.4271 -0.4739  2.5599
  177SOPE  H16Y20220   3.033   4.194   8.805 -2.6222  3.3029  1.5634
  177SOPE  C31720221   3.234   4.237   8.728  0.3426 -0.8000 -0.0966
  177SOPE  H17X20222   3.333   4.272   8.764  2.0679 -2.7713 -2.5568
  177SOPE  H17Y20223   3.204   4.279   8.629 -1.0745  0.0965  0.6733
  177SOPE  C31820224   3.244   4.090   8.689 -0.5624 -0.2858  0.3867
  177SOPE  H18X20225   3.150   4.073   8.633 -0.2056 -0.9086 -0.0416
  177SOPE  H18Y20226   3.220   4.019   8.770 -1.8281 -1.9130 -1.3354
  177SOPE  H18Z20227   3.341   4.057   8.645 -0.3344 -0.9810  1.3975
  178SOPE     N20228   0.229   2.473  10.863 -0.2444  0.3670 -0.3138
  178SOPE   HN120229   0.149   2.521  10.909 -0.9184 -0.7493 -0.2648
  178SOPE   HN220230   0.261   2.392  10.920 -0.0417  1.1598  0.7207
  178SOPE   HN320231   0.310   2.538  10.865  0.5656 -0.6431  0.6053
  178SOPE   C1220232   0.186   2.437  10.719  0.1430  0.3477  0.0850
  178SOPE  H12A20233   0.113   2.516  10.691  1.9046  1.6685 -1.0527
  178SOPE  H12B20234   0.140   2.337  10.731  1.3298 -0.1719  0.4842
  178SOPE   C1120235   0.306   2.438  10.627 -0.6690  0.2578  0.2397
  178SOPE  H11A20236   0.336   2.544  10.614  2.7002 -0.7489 -1.3771
  178SOPE  H11B20237   0.264   2.398  10.532 -0.0198 -1.8894  0.7925
  178SOPE     P20238   0.420   2.195  10.615 -0.2517  0.0785  0.6083
  178SOPE   O1320239   0.285   2.147  10.594  0.5522 -0.3342  0.0537
  178SOPE   O1420240   0.515   2.119  10.698  0.1056  0.3758  0.3708
  178SOPE   O1220241   0.418   2.345  10.679  0.6827 -0.4019 -0.0627
  178SOPE   O1120242   0.485   2.222  10.478 -0.2563  0.9088  0.0234
  178SOPE    C120243   0.588   2.309  10.442  0.3679 -0.1662  0.2861
  178SOPE    HA20244   0.649   2.247  10.372 -0.4477  0.9190 -1.4697
  178SOPE    HB20245   0.662   2.330  10.523  3.3701 -0.9291 -2.0442
  178SOPE    C220246   0.546   2.438  10.373 -1.3546  0.0892 -0.9062
  178SOPE    HS20247   0.495   2.494  10.454  0.9916 -0.5952  1.1393
  178SOPE   O2120248   0.455   2.409  10.265  0.3596 -0.2931 -0.1131
  178SOPE   C2120249   0.349   2.476  10.247  0.7925 -0.3208  0.4743
  178SOPE   O2220250   0.317   2.574  10.313 -0.4487  0.2674  0.0070
  178SOPE   C2220251   0.260   2.411  10.146 -0.3362 -0.2502  0.5091
  178SOPE   H2R20252   0.153   2.428  10.169 -0.7424 -1.2091 -0.6050
  178SOPE   H2S20253   0.279   2.302  10.147  0.3865 -0.1288  0.7032
  178SOPE    C320254   0.665   2.527  10.317 -0.1259  0.5901 -1.0348
  178SOPE    HX20255   0.730   2.471  10.246  2.1107  0.9757  0.5866
  178SOPE    HY20256   0.730   2.552  10.403 -1.9334  0.4803  0.4229
  178SOPE   O3120257   0.622   2.644  10.248  0.2494 -0.0279 -0.7580
  178SOPE   C3120258   0.606   2.760  10.310  0.5551 -0.6940  0.6643
  178SOPE   O3220259   0.625   2.780  10.429 -0.4864  0.5867  0.2133
  178SOPE   C3220260   0.571   2.872  10.210 -0.2305 -0.7324  0.3940
  178SOPE   H2X20261   0.657   2.943  10.204  0.5753 -1.5544  1.5962
  178SOPE   H2Y20262   0.488   2.929  10.256 -0.1903 -0.2842 -0.0812
  178SOPE   C2320263   0.281   2.474  10.002  0.3504 -0.1194  0.4622
  178SOPE   H3R20264   0.388   2.466   9.973  0.2315  0.9186 -0.3466
  178SOPE   H3S20265   0.260   2.583   9.990 -0.5211 -0.2290  0.9106
  178SOPE   C2420266   0.205   2.401   9.886 -0.2154 -0.4506 -0.9855
  178SOPE   H4R20267   0.212   2.296   9.921  1.1128  0.5190  2.0749
  178SOPE   H4S20268   0.099   2.433   9.887  0.2730  1.2967  0.6565
  178SOPE   C2520269   0.276   2.433   9.755  0.9951 -0.8078 -0.6855
  178SOPE   H5R20270   0.267   2.542   9.736  0.8935 -0.8061 -0.6309
  178SOPE   H5S20271   0.386   2.422   9.765  0.9778  0.1914  0.9491
  178SOPE   C2620272   0.219   2.351   9.639 -0.1020 -0.6166 -0.6109
  178SOPE   H6R20273   0.221   2.240   9.649 -0.4381 -0.6836 -1.2601
  178SOPE   H6S20274   0.115   2.388   9.631  0.3541  1.2000  1.0802
  178SOPE   C2720275   0.273   2.382   9.496 -0.0781  0.3642 -0.2854
  178SOPE   H7R20276   0.221   2.471   9.455 -2.3595 -0.3403  0.8912
  178SOPE   H7S20277   0.382   2.395   9.512  0.0246  0.0563 -0.7352
  178SOPE   C2820278   0.253   2.260   9.403 -0.0940 -0.1954 -0.0352
  178SOPE   H8R20279   0.338   2.252   9.331  0.6193  1.4606  0.5704
  178SOPE   H8S20280   0.273   2.166   9.460  0.2919 -1.6547 -2.4226
  178SOPE   C2920281   0.116   2.254   9.345 -1.0802 -0.2552 -0.0366
  178SOPE   H9120282   0.039   2.229   9.419 -0.1394 -0.4653  0.8970
  178SOPE  C21020283   0.071   2.262   9.215  0.4590 -0.1379 -0.5279
  178SOPE  H10120284  -0.035   2.239   9.195 -0.3336  0.2827  2.7373
  178SOPE  C21120285   0.154   2.269   9.096  0.5112 -0.5918  1.1957
  178SOPE  H11R20286   0.127   2.179   9.037  0.3623 -0.4543  1.0542
  178SOPE  H11S20287   0.262   2.258   9.120  1.1661 -3.2003 -2.2011
  178SOPE  C21220288   0.119   2.394   9.013 -1.1338 -0.1579  0.2324
  178SOPE  H12R20289   0.123   2.485   9.077 -0.3063  0.0700 -0.1352
  178SOPE  H12S20290   0.013   2.395   8.979 -1.2234  0.5941  0.5108
  178SOPE  C21320291   0.200   2.415   8.877  0.2640 -0.1286 -0.8714
  178SOPE  H13R20292   0.304   2.422   8.916  0.0426  1.3163 -0.4933
  178SOPE  H13S20293   0.163   2.513   8.841  1.5542  0.4581 -0.6405
  178SOPE  C21420294   0.199   2.294   8.781 -0.2098  0.6536  0.4894
  178SOPE  H14R20295   0.094   2.263   8.760  0.2709 -0.5118 -0.2861
  178SOPE  H14S20296   0.251   2.215   8.838 -1.5926 -1.5851 -1.1930
  178SOPE  C21520297   0.253   2.334   8.643  0.4165 -0.0995  0.5430
  178SOPE  H15R20298   0.277   2.238   8.593  1.0032  0.6912 -0.7584
  178SOPE  H15S20299   0.346   2.394   8.657  0.3242  0.0879  0.3524
  178SOPE  C21620300   0.147   2.423   8.569  1.1831 -0.2058 -0.2601
  178SOPE  H16R20301   0.109   2.489   8.650 -0.6650  0.4722 -1.6112
  178SOPE  H16S20302   0.065   2.355   8.539  0.3188  1.7662 -2.7312
  178SOPE  C21720303   0.194   2.504   8.444 -0.2067  0.0267  0.2060
  178SOPE  H17R20304   0.221   2.441   8.357 -2.4748 -1.7656  0.6826
  178SOPE  H17S20305   0.279   2.570   8.472 -0.7266  0.8652 -0.1563
  178SOPE  C21820306   0.077   2.595   8.403 -0.1697 -0.3138 -0.5817
  178SOPE  H18R20307  -0.020   2.542   8.393  0.6168 -1.8818 -0.1370
  178SOPE  H18S20308   0.112   2.638   8.307  0.4122  0.8343  0.1228
  178SOPE  H18T20309   0.057   2.679   8.473  0.1320 -1.3443  0.7764
  178SOPE   C3320310   0.511   2.820  10.070  0.5111 -0.5142  0.9114
  178SOPE   H3X20311   0.442   2.735  10.088 -0.3562 -0.5788 -2.1719
  178SOPE   H3Y20312   0.597   2.779  10.013 -1.1203 -1.8185 -0.7121
  178SOPE   C3420313   0.446   2.938   9.993 -0.4894  0.3021 -0.0788
  178SOPE   H4X20314   0.524   3.011   9.961 -1.1383  0.6122 -0.9900
  178SOPE   H4Y20315   0.384   2.981  10.074  0.7813 -0.5269  1.4005
  178SOPE   C3520316   0.361   2.902   9.876 -0.5257  0.2224  0.3390
  178SOPE   H5X20317   0.339   2.995   9.819 -0.7888  1.5531  2.5002
  178SOPE   H5Y20318   0.260   2.871   9.910 -1.8038  3.7035  0.1162
  178SOPE   C3620319   0.428   2.803   9.780 -0.5545 -0.5044 -0.0219
  178SOPE   H6X20320   0.407   2.696   9.801 -2.9850 -0.3639 -1.3507
  178SOPE   H6Y20321   0.537   2.822   9.773 -0.9833  2.0389 -0.4539
  178SOPE   C3720322   0.374   2.831   9.634  0.7902 -0.2886 -0.4081
  178SOPE   H7X20323   0.407   2.928   9.590  0.2971 -0.8000 -2.0053
  178SOPE   H7Y20324   0.263   2.843   9.639  0.7225 -1.1470  0.3864
  178SOPE   C3820325   0.406   2.727   9.525 -0.3301  0.1139 -0.5917
  178SOPE   H8X20326   0.382   2.627   9.569 -2.3366 -0.4183 -2.7426
  178SOPE   H8Y20327   0.514   2.733   9.499 -0.3187  1.7490 -0.2380
  178SOPE   C3920328   0.326   2.766   9.392 -1.2323  0.1075 -0.5608
  178SOPE   H9X20329   0.340   2.870   9.356 -1.1736  1.2624  2.4979
  178SOPE   H9Y20330   0.216   2.753   9.399 -1.0461 -1.8311 -0.6429
  178SOPE  C31020331   0.366   2.670   9.287 -0.1686  0.5778 -0.2847
  178SOPE  H10X20332   0.362   2.562   9.311  2.8383 -0.1257 -2.4219
  178SOPE  H10Y20333   0.469   2.680   9.248 -1.2216  2.4230 -2.9223
  178SOPE  C31120334   0.270   2.682   9.160  0.4087  0.4321 -0.1863
  178SOPE  H11X20335   0.165   2.660   9.191  0.3624  0.6825 -0.1603
  178SOPE  H11Y20336   0.302   2.603   9.089 -2.0153  1.1760 -2.2409
  178SOPE  C31220337   0.248   2.817   9.087  0.4379 -0.4891 -0.7069
  178SOPE  H12X20338   0.349   2.853   9.055  0.1474  1.5473  0.4362
  178SOPE  H12Y20339   0.201   2.897   9.149 -0.7502 -1.0384 -0.8802
  178SOPE  C31320340   0.154   2.799   8.963 -0.2715  0.2012  0.4889
  178SOPE  H13X20341   0.212   2.727   8.901  0.3758 -1.5133  2.8874
  178SOPE  H13Y20342   0.160   2.896   8.910  1.7724 -1.1570 -1.9885
  178SOPE  C31420343   0.012   2.753   8.980 -0.5436  0.3901  0.1384
  178SOPE  H14X20344  -0.035   2.808   9.063  0.3277  0.4788  0.5891
  178SOPE  H14Y20345   0.010   2.643   8.998 -1.8173  0.6463  1.7519
  178SOPE  C31520346  -0.072   2.767   8.847  0.9109 -0.2271 -0.0018
  178SOPE  H15X20347  -0.023   2.727   8.755 -1.9130  2.4596 -2.9257
  178SOPE  H15Y20348  -0.086   2.876   8.833  0.6332  0.2327  3.1323
  178SOPE  C31620349  -0.210   2.696   8.843  0.0827 -0.0322 -0.6324
  178SOPE  H16X20350  -0.282   2.757   8.784  0.8618  2.1678  0.5684
  178SOPE  H16Y20351  -0.244   2.679   8.947 -0.9788  2.3667 -0.5156
  178SOPE  C31720352  -0.196   2.567   8.768 -0.1040 -0.2721  0.1570
  178SOPE  H17X20353  -0.130   2.498   8.824  0.5844  0.3388  0.1144
  178SOPE  H17Y20354  -0.143   2.588   8.673  0.8752  2.1433  1.1502
  178SOPE  C31820355  -0.334   2.506   8.728  0.3005  0.3850  0.0491
  178SOPE  H18X20356  -0.324   2.396   8.714  0.6599 -0.5669  5.4179
  178SOPE  H18Y20357  -0.374   2.554   8.636  0.7296 -0.6451 -0.6872
  178SOPE  H18Z20358  -0.406   2.521   8.812  1.7220 -1.6334  1.7144
  179SOPE     N20359   1.421   3.704   6.088  0.0562 -0.1999 -0.6577
  179SOPE   HN120360   1.342   3.758   6.046  0.4631 -0.5303 -1.8865
  179SOPE   HN220361   1.476   3.758   6.157  0.2469 -1.0342 -0.1356
  179SOPE   HN320362   1.485   3.662   6.018 -0.0687 -2.0277  0.2562
  179SOPE   C1220363   1.374   3.584   6.157  0.0738 -0.2444 -0.5356
  179SOPE  H12A20364   1.317   3.518   6.088 -0.6532 -1.2214  0.9419
  179SOPE  H12B20365   1.304   3.621   6.235 -0.3146 -1.3729 -0.3256
  179SOPE   C1120366   1.499   3.509   6.212 -0.7904 -0.1649  0.5547
  179SOPE  H11A20367   1.581   3.498   6.138 -0.1873  2.3062  0.7542
  179SOPE  H11B20368   1.477   3.410   6.255 -1.1991  1.1515  3.6274
  179SOPE     P20369   1.537   3.556   6.474  0.0903 -0.5674 -0.1599
  179SOPE   O1320370   1.460   3.436   6.501 -0.2212  0.2927 -0.3448
  179SOPE   O1420371   1.482   3.685   6.523 -0.3134  0.3145 -0.5057
  179SOPE   O1220372   1.569   3.578   6.323  0.0528  0.2200 -0.3818
  179SOPE   O1120373   1.689   3.533   6.525 -0.2169  0.1761 -0.3923
  179SOPE    C120374   1.741   3.582   6.648  0.1871  0.6219 -0.6298
  179SOPE    HA20375   1.693   3.670   6.695 -0.2790 -0.0817  0.2316
  179SOPE    HB20376   1.846   3.617   6.636  0.3679  0.1000 -0.6024
  179SOPE    C220377   1.733   3.464   6.749  0.1766 -0.0592 -0.4660
  179SOPE    HS20378   1.802   3.382   6.719  1.2059 -0.7800  3.3673
  179SOPE   O2120379   1.601   3.432   6.781  0.4400  0.3233 -0.1949
  179SOPE   C2120380   1.563   3.306   6.784 -0.1965  0.2808 -0.0079
  179SOPE   O2220381   1.637   3.212   6.757 -0.3550 -0.4001  0.2614
  179SOPE   C2220382   1.423   3.307   6.816  0.2421  0.5170 -0.1681
  179SOPE   H2R20383   1.371   3.344   6.725  1.2619  0.0959 -0.9438
  179SOPE   H2S20384   1.401   3.375   6.902 -0.4410  0.9596 -0.6774
  179SOPE    C320385   1.801   3.519   6.879 -0.4926  0.3894  0.0789
  179SOPE    HX20386   1.752   3.619   6.886 -1.0342  0.0364  1.8558
  179SOPE    HY20387   1.909   3.544   6.874 -0.9308  3.5130  2.6825
  179SOPE   O3120388   1.779   3.448   7.003 -0.3292 -0.2388  0.6729
  179SOPE   C3120389   1.851   3.334   7.014  0.6251  0.6104  0.0662
  179SOPE   O3220390   1.934   3.297   6.932  0.3399 -0.0495 -0.1417
  179SOPE   C3220391   1.814   3.259   7.140  0.0320 -0.6993 -0.1022
  179SOPE   H2X20392   1.709   3.223   7.129 -0.1540 -0.1316 -0.2470
  179SOPE   H2Y20393   1.810   3.335   7.221  3.4971  1.0054 -1.3260
  179SOPE   C2320394   1.357   3.163   6.823  0.1834 -0.0597  0.0550
  179SOPE   H3R20395   1.378   3.119   6.723 -0.9549 -0.4949 -0.0021
  179SOPE   H3S20396   1.249   3.188   6.820  0.0719 -0.2337  1.7490
  179SOPE   C2420397   1.399   3.078   6.942 -0.1124  0.1615  0.0505
  179SOPE   H4R20398   1.344   2.981   6.942 -0.3049  0.2660  0.6218
  179SOPE   H4S20399   1.507   3.052   6.943  0.4723  2.3758 -0.0408
  179SOPE   C2520400   1.364   3.139   7.073  0.2036  0.4776  0.6933
  179SOPE   H5R20401   1.431   3.227   7.086  0.9762  0.2699 -1.3676
  179SOPE   H5S20402   1.260   3.175   7.064  0.5664  1.2208 -1.1557
  179SOPE   C2620403   1.385   3.040   7.190 -0.4839  0.6674 -0.0637
  179SOPE   H6R20404   1.338   3.088   7.278 -1.6226  1.7480 -1.2292
  179SOPE   H6S20405   1.332   2.943   7.175  0.0449  0.0282  1.9896
  179SOPE   C2720406   1.530   3.010   7.225  0.7066 -0.1579 -0.2928
  179SOPE   H7R20407   1.565   2.947   7.140 -0.7717 -2.3522  0.6215
  179SOPE   H7S20408   1.590   3.103   7.227 -1.3228  1.2391 -1.6585
  179SOPE   C2820409   1.536   2.929   7.361 -0.3589 -0.3879  0.0503
  179SOPE   H8R20410   1.453   2.856   7.357 -0.5476 -0.1920  0.3818
  179SOPE   H8S20411   1.633   2.874   7.353 -0.6431 -1.1048  1.2588
  179SOPE   C2920412   1.534   3.013   7.487 -0.2677 -0.5179 -0.1895
  179SOPE   H9120413   1.602   3.099   7.483 -0.6514  0.0357  2.7962
  179SOPE  C21020414   1.465   2.995   7.601  0.5817  0.3590 -0.2637
  179SOPE  H10120415   1.458   3.073   7.679  1.0960 -0.3400  0.5045
  179SOPE  C21120416   1.366   2.880   7.621 -0.1363 -0.4167 -0.2139
  179SOPE  H11R20417   1.409   2.780   7.599  0.5431 -0.0384 -0.6821
  179SOPE  H11S20418   1.287   2.909   7.549 -0.0666  0.2583 -0.0242
  179SOPE  C21220419   1.293   2.896   7.758 -0.7310  0.5077  0.0699
  179SOPE  H12R20420   1.217   2.816   7.769  0.3620 -0.5100  0.4571
  179SOPE  H12S20421   1.232   2.989   7.759  1.4962  2.0518 -0.0536
  179SOPE  C21320422   1.380   2.891   7.881  0.0126  0.4164 -1.0684
  179SOPE  H13R20423   1.433   2.988   7.890  0.3473  0.1954 -0.6260
  179SOPE  H13S20424   1.459   2.812   7.878 -0.3288 -0.0147  0.4060
  179SOPE  C21420425   1.310   2.875   8.012  0.1397  0.0188 -0.7755
  179SOPE  H14R20426   1.207   2.837   7.996  0.0034  0.1246 -0.1513
  179SOPE  H14S20427   1.290   2.979   8.045  1.8870  0.2024 -0.1813
  179SOPE  C21520428   1.393   2.789   8.112  0.5958  0.0080  0.2687
  179SOPE  H15R20429   1.491   2.841   8.106  0.1089  1.1057  1.3598
  179SOPE  H15S20430   1.410   2.687   8.070  2.8351  0.7503 -0.7653
  179SOPE  C21620431   1.353   2.788   8.262  0.6314  0.1905 -0.0756
  179SOPE  H16R20432   1.416   2.712   8.312 -1.5369 -0.6939  1.4463
  179SOPE  H16S20433   1.246   2.766   8.280  0.3137  2.1690  0.7061
  179SOPE  C21720434   1.373   2.927   8.324  0.2695  0.2888  0.3048
  179SOPE  H17R20435   1.319   2.998   8.258 -0.0372 -0.4775 -0.2866
  179SOPE  H17S20436   1.479   2.958   8.322 -0.1442  1.8102  0.2402
  179SOPE  C21820437   1.318   2.949   8.468 -0.2535 -0.1284  0.0125
  179SOPE  H18R20438   1.329   2.860   8.534 -0.3533  1.5042  2.3578
  179SOPE  H18S20439   1.208   2.964   8.462 -0.2301 -0.5020 -1.7287
  179SOPE  H18T20440   1.370   3.031   8.522 -0.0877 -0.2678  0.0665
  179SOPE   C3320441   1.916   3.152   7.173  0.4689 -0.3824  0.4368
  179SOPE   H3X20442   2.019   3.194   7.176  0.3108 -0.0257  1.5161
  179SOPE   H3Y20443   1.922   3.066   7.102  2.2752  0.3679 -0.3898
  179SOPE   C3420444   1.892   3.086   7.312  0.5500  1.4335  0.1951
  179SOPE   H4X20445   1.966   3.004   7.328 -0.4366  0.1338 -1.5089
  179SOPE   H4Y20446   1.791   3.040   7.310  1.4637 -0.7270 -0.8675
  179SOPE   C3520447   1.896   3.183   7.433  0.8127  0.0843 -0.0990
  179SOPE   H5X20448   1.823   3.267   7.430  0.9981  0.2399 -0.3631
  179SOPE   H5Y20449   1.998   3.227   7.445  0.3847  0.4940  2.6892
  179SOPE   C3620450   1.886   3.087   7.557  0.0082  0.2849 -0.0576
  179SOPE   H6X20451   1.982   3.033   7.569  0.4600  1.1849  0.5922
  179SOPE   H6Y20452   1.811   3.006   7.548  0.0561  0.1202  0.8819
  179SOPE   C3720453   1.855   3.160   7.691  0.2581  0.1682  0.4915
  179SOPE   H7X20454   1.767   3.222   7.662 -0.2451 -0.9269 -0.3837
  179SOPE   H7Y20455   1.932   3.231   7.730 -0.4408  1.9405 -1.1624
  179SOPE   C3820456   1.814   3.071   7.816 -0.5460 -0.0475 -0.9133
  179SOPE   H8X20457   1.860   2.974   7.786  0.4523  1.3998 -4.7780
  179SOPE   H8Y20458   1.703   3.067   7.819 -0.7103  2.8392  0.2042
  179SOPE   C3920459   1.874   3.115   7.961 -0.0822 -0.3658  0.5713
  179SOPE   H9X20460   1.984   3.124   7.950 -0.3150  0.6750 -1.3920
  179SOPE   H9Y20461   1.860   3.024   8.022 -1.9283 -1.1115 -0.8594
  179SOPE  C31020462   1.817   3.241   8.016  0.1110  0.6345 -0.6834
  179SOPE  H10X20463   1.710   3.234   8.043  0.1249 -0.6381 -0.9209
  179SOPE  H10Y20464   1.836   3.317   7.936 -0.5833  0.3800 -1.0980
  179SOPE  C31120465   1.887   3.292   8.147 -0.0786 -0.0662 -0.0602
  179SOPE  H11X20466   1.992   3.324   8.131 -0.6372  2.5540  0.9039
  179SOPE  H11Y20467   1.864   3.229   8.236 -1.6431 -0.2834 -0.5776
  179SOPE  C31220468   1.832   3.431   8.192  0.0025 -1.0446 -0.4189
  179SOPE  H12X20469   1.727   3.414   8.224  0.7051 -2.5904  1.2462
  179SOPE  H12Y20470   1.829   3.509   8.113 -2.1210  2.5237  2.7949
  179SOPE  C31320471   1.914   3.486   8.305 -0.3876 -0.2963  0.4254
  179SOPE  H13X20472   2.014   3.498   8.259 -1.2103 -1.2190 -1.7118
  179SOPE  H13Y20473   1.923   3.405   8.381 -2.0535  1.0090  2.0929
  179SOPE  C31420474   1.865   3.621   8.364  0.0125  0.0119  0.2905
  179SOPE  H14X20475   1.791   3.664   8.293 -0.8619 -2.2610 -0.2597
  179SOPE  H14Y20476   1.948   3.695   8.373 -0.4265  0.6285 -0.5635
  179SOPE  C31520477   1.791   3.593   8.497  0.3896  0.0577  0.0294
  179SOPE  H15X20478   1.724   3.506   8.482  0.0458  0.0314  1.5450
  179SOPE  H15Y20479   1.717   3.671   8.521  1.0726  0.2254  1.7365
  179SOPE  C31620480   1.881   3.562   8.620  0.0724  0.7933 -0.0253
  179SOPE  H16X20481   1.943   3.648   8.655  1.6622  0.1570 -1.1855
  179SOPE  H16Y20482   1.953   3.483   8.591 -0.2515  0.6288 -0.3927
  179SOPE  C31720483   1.794   3.528   8.743  0.0607 -0.2591 -0.4309
  179SOPE  H17X20484   1.732   3.617   8.768  2.5305  1.4145  0.1398
  179SOPE  H17Y20485   1.874   3.520   8.820 -0.9978 -0.9560  0.6295
  179SOPE  C31820486   1.713   3.391   8.741  0.4028  0.0519 -0.7085
  179SOPE  H18X20487   1.779   3.302   8.745 -0.4549 -0.6423 -1.4668
  179SOPE  H18Y20488   1.641   3.378   8.657 -3.1244 -0.5047  2.1786
  179SOPE  H18Z20489   1.648   3.404   8.830  0.2532 -1.9563 -0.4873
  180SOPE     N20490   0.309   4.958   6.221  0.0576  0.2152  0.9807
  180SOPE   HN120491   0.294   5.054   6.185  3.5784 -0.0266 -1.7185
  180SOPE   HN220492   0.260   4.885   6.165 -0.2131 -1.2447  3.0089
  180SOPE   HN320493   0.267   4.947   6.315 -1.4222  2.1811  0.5939
  180SOPE   C1220494   0.459   4.929   6.228  0.3131 -0.7975  0.2382
  180SOPE  H12A20495   0.505   4.955   6.131  2.0712 -0.3000  1.1727
  180SOPE  H12B20496   0.480   4.822   6.249  1.8968 -0.6110 -0.2702
  180SOPE   C1120497   0.539   5.014   6.331  0.0354 -0.9377  0.2711
  180SOPE  H11A20498   0.499   4.977   6.427 -0.1787  0.1306  0.6161
  180SOPE  H11B20499   0.509   5.121   6.317 -0.9418 -1.2592 -0.1742
  180SOPE     P20500   0.795   5.092   6.310  0.0456  0.1027 -0.2413
  180SOPE   O1320501   0.744   5.228   6.298  0.2732 -0.0145  0.3822
  180SOPE   O1420502   0.892   5.055   6.210  0.0416 -0.4863 -0.0655
  180SOPE   O1220503   0.677   4.991   6.316  0.1931 -0.4579 -0.0204
  180SOPE   O1120504   0.863   5.074   6.450  0.0576  0.0669 -0.0416
  180SOPE    C120505   0.921   4.951   6.487  0.0955  0.0705  0.0288
  180SOPE    HA20506   1.030   4.969   6.500  0.4016 -1.7537  0.2258
  180SOPE    HB20507   0.907   4.878   6.405  1.3496 -0.1148 -0.0358
  180SOPE    C220508   0.864   4.883   6.613  0.3398  0.1787 -0.3266
  180SOPE    HS20509   0.920   4.788   6.630 -3.2787 -2.0032  0.4773
  180SOPE   O2120510   0.723   4.857   6.585 -0.1712 -0.1531 -0.3162
  180SOPE   C2120511   0.668   4.758   6.650 -0.7090  0.1525  0.1286
  180SOPE   O2220512   0.728   4.678   6.717  0.0621  0.7771  0.1363
  180SOPE   C2220513   0.521   4.753   6.627 -0.5905  0.4126 -0.5955
  180SOPE   H2R20514   0.482   4.649   6.638  3.7730 -1.5656 -1.6595
  180SOPE   H2S20515   0.501   4.770   6.520  1.1636  0.6803 -0.9066
  180SOPE    C320516   0.876   4.981   6.734 -0.0322  0.6080 -0.1357
  180SOPE    HX20517   0.800   5.059   6.716 -0.0979  0.5152 -0.2677
  180SOPE    HY20518   0.974   5.033   6.742  2.0842 -2.9050 -0.7033
  180SOPE   O3120519   0.840   4.912   6.858  0.2502  0.2236 -0.2365
  180SOPE   C3120520   0.932   4.845   6.914 -0.6834  0.1673 -0.2404
  180SOPE   O3220521   1.049   4.836   6.881  0.3221 -0.6094  0.0676
  180SOPE   C3220522   0.873   4.764   7.035 -0.9640 -0.3394  0.1748
  180SOPE   H2X20523   0.944   4.682   7.056  0.0950  0.1767 -1.1971
  180SOPE   H2Y20524   0.771   4.729   7.007 -1.0257 -0.6879  0.8273
  180SOPE   C2320525   0.442   4.849   6.721 -0.0179  0.1906  0.0492
  180SOPE   H3R20526   0.334   4.849   6.695 -0.2913  2.1510  0.9495
  180SOPE   H3S20527   0.481   4.952   6.707 -0.1771  0.3658  0.8432
  180SOPE   C2420528   0.450   4.809   6.869  0.1701 -0.1960 -0.5603
  180SOPE   H4R20529   0.411   4.707   6.892  0.4027 -0.8770 -2.9758
  180SOPE   H4S20530   0.558   4.809   6.896 -0.0262  0.5715  0.3174
  180SOPE   C2520531   0.380   4.910   6.954  0.4296 -0.3726 -0.3009
  180SOPE   H5R20532   0.414   5.012   6.929 -0.3011  0.7946  2.9678
  180SOPE   H5S20533   0.269   4.908   6.940  0.7389 -1.9607 -3.1152
  180SOPE   C2620534   0.411   4.900   7.101  0.3560  0.0447  0.9193
  180SOPE   H6R20535   0.515   4.866   7.120  0.6615  0.3303 -0.1534
  180SOPE   H6S20536   0.397   5.000   7.147  2.9382  0.0499  1.8293
  180SOPE   C2720537   0.316   4.802   7.176 -0.9944 -0.2134 -0.4541
  180SOPE   H7R20538   0.214   4.835   7.149 -0.7050 -0.8904 -2.5765
  180SOPE   H7S20539   0.326   4.697   7.141 -1.6199 -0.9924  1.5267
  180SOPE   C2820540   0.356   4.774   7.319  0.5419 -0.5036 -0.3903
  180SOPE   H8R20541   0.289   4.690   7.349 -0.1388  0.2255  0.1998
  180SOPE   H8S20542   0.463   4.745   7.322  0.9229  0.9223  1.1915
  180SOPE   C2920543   0.338   4.886   7.413 -0.1310  0.1646  1.3234
  180SOPE   H9120544   0.378   4.980   7.372 -1.9765 -0.0375 -1.2245
  180SOPE  C21020545   0.268   4.877   7.531 -0.6401  0.0454  0.1612
  180SOPE  H10120546   0.253   4.971   7.586  1.1418  0.4669 -0.0335
  180SOPE  C21120547   0.201   4.752   7.579  0.0482  0.0181 -0.5511
  180SOPE  H11R20548   0.148   4.701   7.495  0.2330 -0.6237 -0.2869
  180SOPE  H11S20549   0.133   4.774   7.663  2.4823  0.4485  1.4304
  180SOPE  C21220550   0.297   4.656   7.644 -0.4431 -0.1976  0.0733
  180SOPE  H12R20551   0.369   4.696   7.719  2.1039 -1.6032 -1.4527
  180SOPE  H12S20552   0.363   4.603   7.572  0.3190  0.6035  0.1616
  180SOPE  C21320553   0.234   4.532   7.721 -0.0559  0.0711  0.1920
  180SOPE  H13R20554   0.321   4.471   7.753 -0.8629 -0.3894  1.6642
  180SOPE  H13S20555   0.173   4.474   7.648  1.0447  0.0537 -0.7331
  180SOPE  C21420556   0.153   4.568   7.844 -0.6720  0.0373 -0.2055
  180SOPE  H14R20557   0.085   4.491   7.887 -0.5447 -0.0992 -0.2485
  180SOPE  H14S20558   0.095   4.663   7.844  2.6887  2.2564 -1.3181
  180SOPE  C21520559   0.258   4.588   7.966  0.6445 -0.9827  0.2884
  180SOPE  H15R20560   0.349   4.649   7.946 -0.0335 -0.0911 -0.0866
  180SOPE  H15S20561   0.292   4.485   7.993  0.9694 -0.6507  1.1682
  180SOPE  C21620562   0.189   4.639   8.093  0.4674 -0.1712 -0.8122
  180SOPE  H16R20563   0.115   4.574   8.144  0.1246  2.0441  1.7755
  180SOPE  H16S20564   0.137   4.736   8.076 -3.1226 -1.7861  0.0492
  180SOPE  C21720565   0.293   4.663   8.216  0.1620  0.0037  0.1607
  180SOPE  H17R20566   0.377   4.725   8.178 -0.9262  1.6674  0.3883
  180SOPE  H17S20567   0.335   4.566   8.250 -1.1260 -1.0131 -1.0288
  180SOPE  C21820568   0.233   4.747   8.327 -0.9051 -0.4434  0.3621
  180SOPE  H18R20569   0.149   4.688   8.369 -0.7211  0.2009  1.6936
  180SOPE  H18S20570   0.195   4.844   8.287 -0.2681 -0.6533 -0.7801
  180SOPE  H18T20571   0.300   4.769   8.414  0.9576 -0.8142 -0.9235
  180SOPE   C3320572   0.854   4.854   7.162 -0.0789 -0.1428  0.1761
  180SOPE   H3X20573   0.783   4.805   7.232 -2.6155  1.0292 -1.4518
  180SOPE   H3Y20574   0.805   4.953   7.149 -0.9627 -0.7847 -1.6480
  180SOPE   C3420575   0.989   4.873   7.239  0.4833 -0.0189 -0.3055
  180SOPE   H4X20576   1.076   4.903   7.178  0.6376  0.6090  0.2170
  180SOPE   H4Y20577   1.009   4.776   7.290  1.7122  0.1043 -0.5145
  180SOPE   C3520578   0.968   4.975   7.353  0.1571  0.1480 -0.4887
  180SOPE   H5X20579   0.869   4.961   7.402  0.5878  2.6957  1.3288
  180SOPE   H5Y20580   0.969   5.078   7.312  3.1912  0.0924 -0.7684
  180SOPE   C3620581   1.076   4.967   7.461 -0.3297  0.2966 -0.3097
  180SOPE   H6X20582   1.173   4.995   7.415 -0.2036  2.4019  1.0524
  180SOPE   H6Y20583   1.080   4.860   7.490  0.6008  0.2557 -0.5774
  180SOPE   C3720584   1.049   5.057   7.584  0.4246  0.1803  0.2911
  180SOPE   H7X20585   1.028   5.160   7.549  0.6328 -0.1158 -0.7364
  180SOPE   H7Y20586   1.147   5.052   7.637  0.1232 -1.5505  0.7594
  180SOPE   C3820587   0.933   5.014   7.680  0.1470 -0.8523 -0.2258
  180SOPE   H8X20588   0.834   5.001   7.632  0.8693 -2.8595 -1.3077
  180SOPE   H8Y20589   0.928   5.083   7.767  0.9211  0.8768 -1.4899
  180SOPE   C3920590   0.964   4.882   7.754  1.0126  0.1757 -0.8013
  180SOPE   H9X20591   1.057   4.907   7.808  0.2477 -1.1566  1.2527
  180SOPE   H9Y20592   0.985   4.790   7.696 -1.3519 -1.2472  0.4433
  180SOPE  C31020593   0.856   4.857   7.868 -0.9354 -0.7352  0.5719
  180SOPE  H10X20594   0.754   4.834   7.829 -0.9579 -0.8108  0.6733
  180SOPE  H10Y20595   0.839   4.948   7.930 -0.0237 -0.0003 -0.2305
  180SOPE  C31120596   0.908   4.748   7.961 -0.6538 -0.3297 -0.2227
  180SOPE  H11X20597   0.996   4.789   8.016 -0.6005  0.0090 -0.5569
  180SOPE  H11Y20598   0.939   4.655   7.910 -0.0106 -0.3865  0.2521
  180SOPE  C31220599   0.800   4.724   8.069  0.6590  0.5707  1.0373
  180SOPE  H12X20600   0.836   4.636   8.126 -0.4478 -0.9670 -0.5501
  180SOPE  H12Y20601   0.700   4.705   8.026  1.2929 -0.4267 -0.0408
  180SOPE  C31320602   0.785   4.826   8.183 -0.3800  0.4428  0.7253
  180SOPE  H13X20603   0.759   4.930   8.154 -0.0549  0.8117  1.7054
  180SOPE  H13Y20604   0.889   4.829   8.221 -0.3922 -0.0839  0.8107
  180SOPE  C31420605   0.693   4.777   8.299  0.3222 -0.4102  0.4560
  180SOPE  H14X20606   0.660   4.671   8.293  0.7755 -0.5187 -0.1283
  180SOPE  H14Y20607   0.598   4.835   8.303  1.0918  0.9304  0.0048
  180SOPE  C31520608   0.751   4.793   8.438 -0.3705 -0.0691 -0.2197
  180SOPE  H15X20609   0.854   4.753   8.434  0.5478  1.9712  1.0445
  180SOPE  H15Y20610   0.695   4.738   8.517  1.8247 -0.8465  0.8683
  180SOPE  C31620611   0.739   4.933   8.484 -0.2525 -0.9252 -0.8026
  180SOPE  H16X20612   0.641   4.980   8.462 -1.8999 -1.7215  3.7800
  180SOPE  H16Y20613   0.821   4.991   8.436 -0.8320 -0.8184 -1.6960
  180SOPE  C31720614   0.772   4.953   8.635 -0.4707  0.1139  0.0956
  180SOPE  H17X20615   0.697   4.899   8.697 -0.7414 -1.0912 -1.2486
  180SOPE  H17Y20616   0.756   5.061   8.659 -2.0023 -0.0801  0.0055
  180SOPE  C31820617   0.910   4.902   8.679 -0.4948  0.1988  0.2061
  180SOPE  H18X20618   0.932   4.795   8.660  0.4788  0.6115 -1.1328
  180SOPE  H18Y20619   0.924   4.915   8.789 -1.0982  1.7638  0.1170
  180SOPE  H18Z20620   0.988   4.966   8.632 -0.4961  1.2612  1.5737
  181SOPE     N20621   0.130   1.784   5.942  0.0539  0.3656  0.7501
  181SOPE   HN120622   0.078   1.695   5.951 -2.0844  1.3818 -0.6821
  181SOPE   HN220623   0.091   1.841   5.864 -0.7988 -2.8900 -1.4160
  181SOPE   HN320624   0.229   1.768   5.915  0.6139  3.0337  0.8862
  181SOPE   C1220625   0.125   1.865   6.064 -0.5402 -0.3448 -0.7269
  181SOPE  H12A20626   0.196   1.826   6.140  0.9560  3.3006 -0.0410
  181SOPE  H12B20627   0.020   1.864   6.103 -0.6983 -0.2316 -1.1447
  181SOPE   C1120628   0.172   2.008   6.040  0.2827 -1.1506 -0.5495
  181SOPE  H11A20629   0.157   2.076   6.127 -2.5120  0.9212 -2.4570
  181SOPE  H11B20630   0.108   2.057   5.964  0.9533  2.4698  0.9935
  181SOPE     P20631   0.423   2.012   6.102  0.2745 -0.2824  0.1996
  181SOPE   O1320632   0.466   2.153   6.118 -0.0412  0.2453  0.1432
  181SOPE   O1420633   0.521   1.909   6.062  0.2823 -0.1291 -0.3431
  181SOPE   O1220634   0.306   2.012   5.994  0.3447  0.9333  0.7350
  181SOPE   O1120635   0.369   1.962   6.239 -0.3169 -0.2910 -0.4887
  181SOPE    C120636   0.337   2.052   6.343 -0.7673  0.2436  0.1757
  181SOPE    HA20637   0.263   1.997   6.404 -0.1292 -1.0167 -0.1444
  181SOPE    HB20638   0.304   2.152   6.309 -0.0397  1.1035  1.8886
  181SOPE    C220639   0.458   2.068   6.437 -0.6152 -0.0381 -0.2109
  181SOPE    HS20640   0.542   2.081   6.365  0.3201 -2.2264  0.4173
  181SOPE   O2120641   0.489   1.940   6.509  0.2124  0.1215 -0.6664
  181SOPE   C2120642   0.628   1.929   6.530 -0.0763 -0.0500  0.2995
  181SOPE   O2220643   0.716   2.003   6.485 -0.2110 -0.0731  0.1820
  181SOPE   C2220644   0.651   1.819   6.629  0.3518 -0.5646  0.1126
  181SOPE   H2R20645   0.655   1.718   6.583  0.4007  0.1899 -1.6176
  181SOPE   H2S20646   0.562   1.822   6.695  1.0305  1.4100  0.9996
  181SOPE    C320647   0.444   2.199   6.516 -0.0794 -0.1430 -0.3662
  181SOPE    HX20648   0.438   2.291   6.454  0.5707  2.0769  2.6219
  181SOPE    HY20649   0.545   2.221   6.558 -0.2016  1.4827 -0.8360
  181SOPE   O3120650   0.329   2.208   6.600  0.0243  0.0409 -0.1715
  181SOPE   C3120651   0.338   2.160   6.721 -0.7185  0.0438 -0.5650
  181SOPE   O3220652   0.429   2.094   6.762 -0.0731 -0.5714  0.0452
  181SOPE   C3220653   0.199   2.188   6.789  0.4885 -0.4530  0.0964
  181SOPE   H2X20654   0.122   2.146   6.721 -2.8979  2.5367  1.7129
  181SOPE   H2Y20655   0.181   2.298   6.784  0.3393 -0.3922  1.4200
  181SOPE   C2320656   0.774   1.852   6.716 -0.6978  0.2267  0.5089
  181SOPE   H3R20657   0.760   1.951   6.766 -0.1026  0.4717  0.2026
  181SOPE   H3S20658   0.871   1.849   6.664 -0.3748 -0.6027  1.1468
  181SOPE   C2420659   0.766   1.748   6.831  0.1685 -0.1647 -0.2379
  181SOPE   H4R20660   0.675   1.771   6.891  0.4905  0.0114  0.1859
  181SOPE   H4S20661   0.759   1.645   6.789  0.0545 -0.0480 -0.5049
  181SOPE   C2520662   0.889   1.760   6.918 -0.0997 -0.1224  0.2385
  181SOPE   H5R20663   0.983   1.745   6.860 -1.5122  0.8228 -2.4712
  181SOPE   H5S20664   0.877   1.862   6.959 -2.3936 -0.5128  0.7194
  181SOPE   C2620665   0.875   1.660   7.031 -0.1905  0.2300  1.0496
  181SOPE   H6R20666   0.769   1.666   7.064 -1.0333 -4.8063 -0.0428
  181SOPE   H6S20667   0.886   1.559   6.988  1.7731 -0.1222  2.2497
  181SOPE   C2720668   0.981   1.680   7.139 -0.7804  0.3372 -0.3854
  181SOPE   H7R20669   1.076   1.669   7.083 -1.4853 -0.5090 -1.4520
  181SOPE   H7S20670   0.965   1.787   7.164 -0.4394  0.7034 -1.6314
  181SOPE   C2820671   0.972   1.583   7.259 -0.4640  0.1705 -0.4982
  181SOPE   H8R20672   1.017   1.488   7.225  1.4805  1.1040 -0.6731
  181SOPE   H8S20673   1.042   1.627   7.334  0.7840 -1.9675 -0.3466
  181SOPE   C2920674   0.834   1.568   7.322 -0.3226  0.2659 -0.6212
  181SOPE   H9120675   0.745   1.562   7.257  0.0814 -0.5369 -1.1217
  181SOPE  C21020676   0.812   1.563   7.463  0.5334 -0.2203 -0.3544
  181SOPE  H10120677   0.709   1.573   7.502  0.2382  1.5884 -1.4517
  181SOPE  C21120678   0.922   1.551   7.574  0.0181  0.1623 -0.0659
  181SOPE  H11R20679   0.921   1.640   7.641 -2.4905 -1.1784  1.8569
  181SOPE  H11S20680   1.026   1.543   7.535  0.6870  0.9435  1.4343
  181SOPE  C21220681   0.904   1.431   7.670 -0.0857  0.2263  0.5749
  181SOPE  H12R20682   0.803   1.429   7.716 -0.3435  0.5325  0.0347
  181SOPE  H12S20683   0.977   1.447   7.753 -0.5790  2.1416  0.6926
  181SOPE  C21320684   0.935   1.292   7.611 -0.1863  0.6228  0.0745
  181SOPE  H13R20685   1.035   1.292   7.564 -0.2571  1.0107 -0.0761
  181SOPE  H13S20686   0.865   1.278   7.525  0.7858 -0.6644 -0.5517
  181SOPE  C21420687   0.921   1.175   7.716  0.8823  0.1455  0.0586
  181SOPE  H14R20688   0.909   1.225   7.815  0.8482  2.3590 -0.9854
  181SOPE  H14S20689   1.023   1.132   7.721  0.8247  0.1004  1.0060
  181SOPE  C21520690   0.816   1.072   7.676  0.0419 -0.4352  0.3832
  181SOPE  H15R20691   0.832   1.021   7.579 -0.4328  0.0105  0.0624
  181SOPE  H15S20692   0.726   1.133   7.655  0.4967  0.1696  0.1593
  181SOPE  C21620693   0.799   0.963   7.781  0.4097 -0.2648  0.5305
  181SOPE  H16R20694   0.898   0.925   7.815  2.3797  1.7438 -2.3850
  181SOPE  H16S20695   0.742   0.875   7.745 -0.8978  0.2693  1.2211
  181SOPE  C21720696   0.723   1.012   7.901  0.4583  0.7968 -0.0969
  181SOPE  H17R20697   0.620   1.042   7.871 -0.2605 -0.3445  1.0997
  181SOPE  H17S20698   0.769   1.105   7.939  0.8467  0.7539 -0.4565
  181SOPE  C21820699   0.715   0.905   8.025 -0.1634  0.6196  0.3865
  181SOPE  H18R20700   0.655   0.814   8.004  1.0139  0.1361 -1.1131
  181SOPE  H18S20701   0.666   0.953   8.112 -1.0584  0.9673 -0.2938
  181SOPE  H18T20702   0.813   0.868   8.062 -0.9495 -0.7229  1.1923
  181SOPE   C3320703   0.160   2.122   6.920  0.0527 -0.7825 -0.1155
  181SOPE   H3X20704   0.236   2.155   6.993 -1.1606  1.2198  0.2992
  181SOPE   H3Y20705   0.171   2.012   6.910  3.7580 -0.4888 -0.8021
  181SOPE   C3420706   0.022   2.175   6.978  0.4384  0.7962  0.5061
  181SOPE   H4X20707  -0.062   2.132   6.919  0.4076  0.7329  0.5959
  181SOPE   H4Y20708   0.010   2.286   6.977 -0.7990  0.6863 -0.6416
  181SOPE   C3520709   0.012   2.118   7.121 -0.0336 -0.0064 -0.4811
  181SOPE   H5X20710   0.103   2.151   7.176 -0.7053  0.8344  0.1564
  181SOPE   H5Y20711   0.015   2.008   7.102 -0.5801  0.0627 -0.9740
  181SOPE   C3620712  -0.097   2.177   7.209  0.7625  0.4308 -0.3570
  181SOPE   H6X20713  -0.193   2.162   7.154  1.5392 -1.0719 -1.3914
  181SOPE   H6Y20714  -0.069   2.282   7.231  2.2197  0.3428 -1.6152
  181SOPE   C3720715  -0.121   2.121   7.354 -0.2996 -0.5872 -0.6780
  181SOPE   H7X20716  -0.143   2.014   7.334  1.2594 -1.0388 -0.0929
  181SOPE   H7Y20717  -0.217   2.163   7.392 -0.2457 -1.2129  0.1855
  181SOPE   C3820718  -0.002   2.138   7.453 -0.1862 -0.7351 -0.6381
  181SOPE   H8X20719   0.019   2.246   7.466  1.6036 -1.2425  1.0762
  181SOPE   H8Y20720   0.081   2.102   7.389 -1.3861 -4.1884 -0.4634
  181SOPE   C3920721  -0.008   2.051   7.575 -0.2814  0.0397  0.4707
  181SOPE   H9X20722  -0.021   1.944   7.548 -0.9234  0.3720 -0.6474
  181SOPE   H9Y20723  -0.103   2.082   7.625  0.0961 -0.2603  1.3824
  181SOPE  C31020724   0.118   2.071   7.665 -0.1112  1.0046 -0.1995
  181SOPE  H10X20725   0.206   2.048   7.601  2.6329  4.9579  1.7238
  181SOPE  H10Y20726   0.113   2.007   7.756  1.2737 -0.7981 -1.3094
  181SOPE  C31120727   0.126   2.214   7.718 -0.2161 -0.4556 -0.1843
  181SOPE  H11X20728   0.025   2.257   7.736  0.1625  1.3286 -1.9778
  181SOPE  H11Y20729   0.173   2.286   7.647 -2.3390  2.6887  1.3690
  181SOPE  C31220730   0.219   2.221   7.846 -0.0992 -0.1035  0.5506
  181SOPE  H12X20731   0.172   2.150   7.917 -2.2855  2.5474  1.9795
  181SOPE  H12Y20732   0.209   2.320   7.896 -3.7318 -0.2318  0.3326
  181SOPE  C31320733   0.365   2.188   7.800 -0.4641  0.0828 -0.7368
  181SOPE  H13X20734   0.403   2.277   7.745  0.9590 -0.1132 -0.1229
  181SOPE  H13Y20735   0.378   2.095   7.740 -1.2928 -0.3103 -0.3257
  181SOPE  C31420736   0.460   2.167   7.922 -0.5394 -0.3582 -0.2466
  181SOPE  H14X20737   0.467   2.263   7.979  0.1201 -0.4264 -0.2091
  181SOPE  H14Y20738   0.563   2.154   7.882 -0.1280  1.3772  0.1304
  181SOPE  C31520739   0.430   2.052   8.015  0.1806 -0.0552  0.2526
  181SOPE  H15X20740   0.448   1.952   7.969 -1.6923 -1.6865  2.7926
  181SOPE  H15Y20741   0.324   2.048   8.048 -0.1749 -0.8083 -0.9120
  181SOPE  C31620742   0.526   2.070   8.140  1.3617 -0.3821 -0.8777
  181SOPE  H16X20743   0.630   2.084   8.104  1.8251  1.4732  0.9853
  181SOPE  H16Y20744   0.530   1.977   8.200  0.5344 -1.2077 -2.0456
  181SOPE  C31720745   0.488   2.182   8.241  0.3910  0.1719  0.3315
  181SOPE  H17X20746   0.390   2.166   8.291  0.3405  1.0176  0.5332
  181SOPE  H17Y20747   0.475   2.283   8.195  0.4120 -0.8533 -2.0463
  181SOPE  C31820748   0.600   2.210   8.338 -0.3404  0.3895 -1.4658
  181SOPE  H18X20749   0.561   2.265   8.427  0.1552 -0.5022 -0.6769
  181SOPE  H18Y20750   0.683   2.267   8.291 -0.3706  0.7609 -1.0829
  181SOPE  H18Z20751   0.648   2.118   8.376 -0.1874  0.9162 -0.3245
  182SOPE     N20752   1.878   2.172   6.223 -0.9262 -0.1256 -0.8907
  182SOPE   HN120753   1.789   2.193   6.271 -0.6395 -1.3143  0.2167
  182SOPE   HN220754   1.889   2.231   6.138 -1.3968  0.0092 -0.8603
  182SOPE   HN320755   1.887   2.072   6.194  2.0422 -0.2088  0.0132
  182SOPE   C1220756   1.998   2.203   6.314 -0.0722  0.0047 -0.2539
  182SOPE  H12A20757   2.088   2.184   6.252  0.1990  1.3371 -0.3079
  182SOPE  H12B20758   2.000   2.137   6.403 -1.4465 -1.2473 -1.1248
  182SOPE   C1120759   2.002   2.351   6.361 -0.1680  0.1947  0.3475
  182SOPE  H11A20760   2.047   2.412   6.279 -1.8618  1.9860  0.6681
  182SOPE  H11B20761   2.062   2.361   6.454  1.6424  0.4811 -0.7750
  182SOPE     P20762   1.829   2.563   6.364  0.5259  0.2942 -0.1208
  182SOPE   O1320763   1.685   2.590   6.366  0.3389 -0.1552  0.0178
  182SOPE   O1420764   1.900   2.605   6.238  0.4130  0.4118 -0.6925
  182SOPE   O1220765   1.866   2.407   6.380  0.0627  0.3744  0.2231
  182SOPE   O1120766   1.900   2.637   6.485  1.1125 -0.4364  0.1204
  182SOPE    C120767   1.914   2.571   6.613 -0.4476 -0.3920  0.4307
  182SOPE    HA20768   2.012   2.600   6.658 -0.1154 -1.3544  0.3684
  182SOPE    HB20769   1.923   2.462   6.593  0.7596  0.1776 -2.8885
  182SOPE    C220770   1.805   2.602   6.719  0.0597 -0.0542 -0.4517
  182SOPE    HS20771   1.782   2.710   6.709  0.0214 -0.0602 -0.4299
  182SOPE   O2120772   1.865   2.590   6.852 -0.4439 -0.2486 -0.0847
  182SOPE   C2120773   1.815   2.674   6.943  0.4889  0.6174 -0.0248
  182SOPE   O2220774   1.730   2.757   6.922  0.2743  0.1994 -0.3567
  182SOPE   C2220775   1.878   2.635   7.078 -0.1150  0.9323 -0.1134
  182SOPE   H2R20776   1.983   2.603   7.062  0.3895  0.7637  2.9430
  182SOPE   H2S20777   1.817   2.550   7.116 -0.4494  1.1211 -0.2227
  182SOPE    C320778   1.674   2.517   6.720 -0.3625  0.1406 -0.1252
  182SOPE    HX20779   1.707   2.411   6.725 -3.0305 -0.7742 -0.2657
  182SOPE    HY20780   1.618   2.537   6.626 -0.3186 -0.2004 -0.2251
  182SOPE   O3120781   1.589   2.554   6.826 -0.7682 -0.2800 -0.4184
  182SOPE   C3120782   1.481   2.469   6.827 -0.1549 -0.1717  0.0029
  182SOPE   O3220783   1.471   2.365   6.770 -1.0840 -0.0573  0.5227
  182SOPE   C3220784   1.371   2.533   6.910 -0.2904  0.6794 -0.2992
  182SOPE   H2X20785   1.269   2.495   6.887 -0.7101 -0.4225  2.8245
  182SOPE   H2Y20786   1.377   2.643   6.898  2.3678  0.6696  0.4262
  182SOPE   C2320787   1.891   2.759   7.172  0.1681  0.3455 -0.2963
  182SOPE   H3R20788   1.800   2.822   7.169 -0.0313  0.0275 -2.2306
  182SOPE   H3S20789   1.962   2.831   7.127  0.7510  0.4624  0.7716
  182SOPE   C2420790   1.935   2.725   7.313  0.2986  0.9435 -0.7650
  182SOPE   H4R20791   2.028   2.663   7.319 -0.2738  0.2426  2.0899
  182SOPE   H4S20792   1.954   2.817   7.372  0.9358 -0.2724  0.9942
  182SOPE   C2520793   1.831   2.653   7.394  0.3183 -0.9901 -0.2640
  182SOPE   H5R20794   1.730   2.670   7.353  0.5087  0.1867 -0.2645
  182SOPE   H5S20795   1.843   2.545   7.369 -0.0526 -1.3670  1.1127
  182SOPE   C2620796   1.844   2.675   7.549 -0.4035 -0.0765  0.0627
  182SOPE   H6R20797   1.944   2.642   7.584 -0.6785  1.4579  2.5279
  182SOPE   H6S20798   1.832   2.779   7.584  0.5475 -0.0284  0.2757
  182SOPE   C2720799   1.730   2.594   7.619  0.1087  0.0371  0.1872
  182SOPE   H7R20800   1.634   2.639   7.585  0.2194 -0.3322 -0.6433
  182SOPE   H7S20801   1.739   2.490   7.579  2.3380  0.6362 -1.0068
  182SOPE   C2820802   1.738   2.599   7.769  0.2617  0.6518 -0.4271
  182SOPE   H8R20803   1.837   2.561   7.803 -1.4168 -1.7160  2.3803
  182SOPE   H8S20804   1.729   2.702   7.809 -0.0399 -0.1026  1.6003
  182SOPE   C2920805   1.631   2.515   7.843 -0.5612 -0.0138  0.2918
  182SOPE   H9120806   1.530   2.499   7.803  0.6041 -2.2022 -2.0509
  182SOPE  C21020807   1.663   2.427   7.945 -1.0169 -0.3731 -0.2530
  182SOPE  H10120808   1.575   2.375   7.988 -2.7617  2.5708  0.0171
  182SOPE  C21120809   1.795   2.388   8.008 -0.5684  0.2552 -0.2116
  182SOPE  H11R20810   1.835   2.479   8.057  0.2267 -0.2973  0.2007
  182SOPE  H11S20811   1.866   2.360   7.928  0.2666  3.8927 -0.9084
  182SOPE  C21220812   1.796   2.284   8.126  0.0414 -0.9203 -0.1343
  182SOPE  H12R20813   1.774   2.180   8.093  0.2629 -1.5107  1.4749
  182SOPE  H12S20814   1.711   2.306   8.194 -0.8712  0.5120 -1.6565
  182SOPE  C21320815   1.927   2.294   8.209 -0.5015 -0.9468  0.2999
  182SOPE  H13R20816   1.934   2.398   8.249 -0.6486 -0.7090 -0.2821
  182SOPE  H13S20817   2.012   2.285   8.139 -0.7425  0.0202 -0.1421
  182SOPE  C21420818   1.939   2.191   8.330  0.6728 -0.4311  0.3616
  182SOPE  H14R20819   1.888   2.095   8.306  0.4009 -0.2340  0.1527
  182SOPE  H14S20820   1.883   2.248   8.406 -1.3021 -0.5412 -0.9425
  182SOPE  C21520821   2.077   2.181   8.383 -0.0929 -0.2195 -0.2203
  182SOPE  H15R20822   2.115   2.277   8.424  1.9580 -0.9549 -0.2749
  182SOPE  H15S20823   2.157   2.153   8.311  0.8130  0.3519  0.5393
  182SOPE  C21620824   2.085   2.069   8.489 -0.3711 -0.1974 -0.3071
  182SOPE  H16R20825   1.994   2.061   8.553  0.5660  1.2743  1.3103
  182SOPE  H16S20826   2.172   2.094   8.553 -1.2337  2.2502  0.0247
  182SOPE  C21720827   2.115   1.928   8.433  0.6047 -0.3727  0.2921
  182SOPE  H17R20828   2.199   1.942   8.363  2.0308 -0.0616  1.9859
  182SOPE  H17S20829   2.023   1.894   8.380 -1.1334 -1.1407  3.4686
  182SOPE  C21820830   2.146   1.820   8.528  0.3199 -0.0975 -0.5193
  182SOPE  H18R20831   2.237   1.855   8.582 -0.6667  0.4137  0.8738
  182SOPE  H18S20832   2.149   1.720   8.479 -0.4319 -2.0711  3.1339
  182SOPE  H18T20833   2.060   1.824   8.598 -0.3962  0.7660 -1.4064
  182SOPE   C3320834   1.386   2.506   7.066 -0.4208 -0.4076 -1.1124
  182SOPE   H3X20835   1.491   2.519   7.099  0.0262 -2.2479 -1.6842
  182SOPE   H3Y20836   1.365   2.400   7.094 -0.5876  0.5424  2.7999
  182SOPE   C3420837   1.293   2.600   7.147  0.7765 -0.3057 -0.0975
  182SOPE   H4X20838   1.195   2.615   7.096  0.0564  1.6054  1.7272
  182SOPE   H4Y20839   1.327   2.705   7.156 -1.8828  0.7063 -0.8722
  182SOPE   C3520840   1.272   2.559   7.286  0.3323 -0.5726 -0.3912
  182SOPE   H5X20841   1.197   2.477   7.290  1.4041 -1.5193  1.2440
  182SOPE   H5Y20842   1.234   2.655   7.328  2.7058  0.1823  0.1830
  182SOPE   C3620843   1.400   2.521   7.359  0.0770  0.2066 -0.5353
  182SOPE   H6X20844   1.464   2.609   7.336 -1.1893  0.4181 -3.7520
  182SOPE   H6Y20845   1.451   2.426   7.332  1.3336  0.6332  0.2772
  182SOPE   C3720846   1.374   2.516   7.514  0.6015 -0.0213 -0.3714
  182SOPE   H7X20847   1.310   2.602   7.539 -2.2389 -1.3551 -2.4661
  182SOPE   H7Y20848   1.473   2.505   7.564 -0.3469 -0.4651  1.4825
  182SOPE   C3820849   1.302   2.385   7.549 -0.0184 -0.2932 -0.0459
  182SOPE   H8X20850   1.354   2.309   7.487  1.3691  0.1397  0.5646
  182SOPE   H8Y20851   1.201   2.399   7.504  0.4982  0.8597 -0.9023
  182SOPE   C3920852   1.294   2.354   7.698  0.8698  0.5938 -0.0951
  182SOPE   H9X20853   1.393   2.325   7.738  0.6512  1.4641  1.1337
  182SOPE   H9Y20854   1.235   2.260   7.708 -0.0655  1.2509  0.7056
  182SOPE  C31020855   1.217   2.448   7.786  0.2218  0.0751  0.2124
  182SOPE  H10X20856   1.111   2.449   7.752  0.5904  0.2803 -0.9711
  182SOPE  H10Y20857   1.254   2.550   7.765 -1.2920  0.8882  1.2376
  182SOPE  C31120858   1.226   2.431   7.940 -0.8027  0.1159  0.5857
  182SOPE  H11X20859   1.331   2.453   7.970  0.2240 -1.0142 -1.9223
  182SOPE  H11Y20860   1.220   2.321   7.954  0.6340 -0.0484  0.0353
  182SOPE  C31220861   1.126   2.506   8.021 -0.5560  0.7221  0.3697
  182SOPE  H12X20862   1.020   2.487   7.994  0.5659 -1.8170 -2.8934
  182SOPE  H12Y20863   1.141   2.614   8.003 -1.1059  1.0474  1.7364
  182SOPE  C31320864   1.148   2.472   8.163 -0.1192 -0.3357 -0.9193
  182SOPE  H13X20865   1.247   2.507   8.197 -0.7216 -1.2002  1.9563
  182SOPE  H13Y20866   1.146   2.361   8.161 -0.9566 -0.3573  0.3211
  182SOPE  C31420867   1.029   2.522   8.256 -0.7524  0.3721  0.5548
  182SOPE  H14X20868   0.931   2.498   8.211 -1.0752  1.9840  0.3176
  182SOPE  H14Y20869   1.030   2.633   8.261 -1.6393  0.3952  0.3592
  182SOPE  C31520870   1.045   2.478   8.400  0.0968  0.4702  0.1546
  182SOPE  H15X20871   1.144   2.497   8.445 -0.1068 -1.1025  1.3368
  182SOPE  H15Y20872   1.017   2.372   8.416  3.3219 -0.6884 -1.1549
  182SOPE  C31620873   0.957   2.562   8.499  0.7307  0.0280  0.3722
  182SOPE  H16X20874   0.848   2.543   8.488  0.3713  1.8086  0.6264
  182SOPE  H16Y20875   0.971   2.666   8.463 -0.0375 -0.2251 -0.7090
  182SOPE  C31720876   0.991   2.535   8.649 -0.7381 -0.5199 -0.0270
  182SOPE  H17X20877   0.928   2.588   8.723  1.9526  0.4837  1.6639
  182SOPE  H17Y20878   1.090   2.582   8.665 -0.7690 -0.7511  0.8873
  182SOPE  C31820879   1.015   2.390   8.698  0.3175 -0.1494  0.1482
  182SOPE  H18X20880   1.014   2.385   8.809  1.3736  0.0089  0.1792
  182SOPE  H18Y20881   1.093   2.328   8.648  1.3656 -0.3242  1.9208
  182SOPE  H18Z20882   0.924   2.338   8.660 -0.3622  2.4513 -2.0897
  183SOPE     N20883   2.769   0.973   5.906  0.5806 -0.2956 -0.0666
  183SOPE   HN120884   2.699   0.941   5.836  0.6462  1.6729 -1.1104
  183SOPE   HN220885   2.715   1.054   5.944 -1.2183 -1.8146  0.7376
  183SOPE   HN320886   2.863   1.006   5.875 -0.7051  3.0080 -0.9125
  183SOPE   C1220887   2.778   0.863   6.008 -0.1798 -0.2290 -0.3629
  183SOPE  H12A20888   2.756   0.763   5.966 -2.0077 -1.5855  3.3690
  183SOPE  H12B20889   2.711   0.886   6.093 -0.1186  1.8636 -0.8405
  183SOPE   C1120890   2.914   0.857   6.076  0.5569  0.2174  0.4927
  183SOPE  H11A20891   2.985   0.821   5.998  1.8039  1.0598  1.2120
  183SOPE  H11B20892   2.916   0.787   6.163 -1.7552  1.3344  1.5370
  183SOPE     P20893   2.919   1.061   6.241 -0.0059 -0.2821 -0.1494
  183SOPE   O1320894   2.775   1.099   6.244  0.8307  0.0399  0.1247
  183SOPE   O1420895   3.015   1.179   6.244  0.5776 -0.1681  0.8410
  183SOPE   O1220896   2.958   0.981   6.117 -0.2209  0.2717  0.2191
  183SOPE   O1120897   2.940   0.974   6.367 -1.0657 -0.2880  0.1532
  183SOPE    C120898   3.062   0.904   6.400  0.6548 -0.7290  0.2757
  183SOPE    HA20899   3.137   0.895   6.318  0.7206 -1.8410  0.4457
  183SOPE    HB20900   3.031   0.799   6.423  1.0976 -0.6372  1.3577
  183SOPE    C220901   3.120   0.957   6.534 -0.0590 -0.4086  0.9075
  183SOPE    HS20902   3.225   0.993   6.529 -0.3130  0.1878 -0.3268
  183SOPE   O2120903   3.119   0.848   6.621 -0.1595 -0.0368 -0.2909
  183SOPE   C2120904   3.190   0.859   6.731  0.1399  0.3233  0.1830
  183SOPE   O2220905   3.289   0.933   6.744 -0.1427  0.3105 -0.0688
  183SOPE   C2220906   3.143   0.753   6.831 -0.7348 -0.0869 -0.1233
  183SOPE   H2R20907   3.129   0.654   6.782  0.7209 -0.5428  0.3089
  183SOPE   H2S20908   3.039   0.778   6.861 -1.3207  0.6094 -2.5884
  183SOPE    C320909   3.031   1.077   6.587  0.1939 -0.8459  0.3372
  183SOPE    HX20910   2.924   1.047   6.581 -0.0916 -0.0455  1.1654
  183SOPE    HY20911   3.041   1.161   6.515 -3.2286 -0.7857 -0.2400
  183SOPE   O3120912   3.052   1.118   6.725  0.2127  0.1837 -0.6778
  183SOPE   C3120913   3.152   1.205   6.743 -0.2081  1.1139 -0.1603
  183SOPE   O3220914   3.226   1.230   6.651  0.1492  0.6332  0.0733
  183SOPE   C3220915   3.158   1.267   6.881  0.5008  0.6563 -0.3364
  183SOPE   H2X20916   3.055   1.295   6.912 -0.1175 -1.5193 -0.2810
  183SOPE   H2Y20917   3.206   1.367   6.876 -0.4138  1.3359  2.5125
  183SOPE   C2320918   3.230   0.744   6.955 -0.6026 -0.8063 -0.4015
  183SOPE   H3R20919   3.253   0.846   6.990 -2.3314 -0.7436  0.6763
  183SOPE   H3S20920   3.329   0.700   6.930  1.3606  1.9311  1.8802
  183SOPE   C2420921   3.166   0.658   7.072  0.1585 -0.0387 -0.5956
  183SOPE   H4R20922   3.137   0.559   7.031  1.2818 -1.4476  1.7871
  183SOPE   H4S20923   3.242   0.635   7.150  0.0810 -1.2294 -0.8559
  183SOPE   C2520924   3.040   0.717   7.123  0.0200  0.1171 -0.1663
  183SOPE   H5R20925   3.068   0.815   7.166 -1.2701 -0.2037  1.5300
  183SOPE   H5S20926   2.967   0.737   7.041  1.4855 -1.6104 -1.9969
  183SOPE   C2620927   2.963   0.625   7.225 -0.6327 -0.1467  0.2712
  183SOPE   H6R20928   2.871   0.679   7.257  0.4150  1.4719  0.6804
  183SOPE   H6S20929   2.924   0.538   7.168 -0.0689 -0.2724  0.0785
  183SOPE   C2720930   3.032   0.573   7.347  0.2015  0.2097 -0.5989
  183SOPE   H7R20931   3.088   0.481   7.319 -1.5531 -1.2374  0.4600
  183SOPE   H7S20932   3.099   0.652   7.387 -1.0673  1.1319 -0.2428
  183SOPE   C2820933   2.936   0.541   7.472  0.3073 -0.5496  0.0290
  183SOPE   H8R20934   2.885   0.446   7.445  0.7018 -1.4771  2.3255
  183SOPE   H8S20935   3.003   0.497   7.549  1.4293  0.6335 -0.2267
  183SOPE   C2920936   2.850   0.648   7.533 -0.0126  0.2730  0.1927
  183SOPE   H9120937   2.792   0.708   7.461  1.5913  0.1702 -1.2774
  183SOPE  C21020938   2.846   0.680   7.666  1.0085 -0.7067  0.0598
  183SOPE  H10120939   2.784   0.764   7.701  2.2039  0.2706 -0.0780
  183SOPE  C21120940   2.933   0.612   7.770  0.8713 -0.2440  0.6296
  183SOPE  H11R20941   3.043   0.609   7.754  0.8951 -0.7425  0.8481
  183SOPE  H11S20942   2.914   0.503   7.768  0.2838 -0.1383  0.5032
  183SOPE  C21220943   2.900   0.652   7.917  0.3624  0.2254  0.7127
  183SOPE  H12R20944   2.791   0.636   7.933  0.2027  0.4291 -0.1282
  183SOPE  H12S20945   2.935   0.756   7.935  3.5679 -1.1066  3.0522
  183SOPE  C21320946   2.963   0.564   8.024  0.6117 -0.1351 -0.0601
  183SOPE  H13R20947   3.072   0.584   8.029  0.8028 -1.2696  0.4868
  183SOPE  H13S20948   2.953   0.459   7.989 -1.5445 -0.3183  0.9601
  183SOPE  C21420949   2.911   0.582   8.166  0.2304 -0.7324  0.2527
  183SOPE  H14R20950   2.953   0.498   8.225  0.3107 -1.2806 -0.5689
  183SOPE  H14S20951   2.802   0.564   8.159 -0.3442  2.4056 -0.7654
  183SOPE  C21520952   2.928   0.716   8.234 -0.4995 -0.2399 -0.0097
  183SOPE  H15R20953   2.879   0.788   8.165  0.5350  0.1482 -0.3670
  183SOPE  H15S20954   3.029   0.761   8.245  0.6409 -3.0991  3.0151
  183SOPE  C21620955   2.855   0.702   8.370 -0.0795  0.8398 -0.6478
  183SOPE  H16R20956   2.916   0.634   8.434 -1.4262 -0.2369 -0.4638
  183SOPE  H16S20957   2.758   0.653   8.349 -0.7379  2.6849 -2.2109
  183SOPE  C21720958   2.838   0.828   8.446 -0.5144  0.8147  0.6428
  183SOPE  H17R20959   2.788   0.803   8.542 -0.4837 -1.3411  0.1509
  183SOPE  H17S20960   2.774   0.895   8.384 -0.0709  0.2987 -0.4058
  183SOPE  C21820961   2.967   0.905   8.469  0.6363 -0.2677  0.4364
  183SOPE  H18R20962   2.961   0.983   8.547 -1.2631 -0.8130  0.8945
  183SOPE  H18S20963   2.997   0.947   8.371  0.2425 -3.5400 -1.2311
  183SOPE  H18T20964   3.055   0.845   8.501  1.0751 -0.3093 -0.7974
  183SOPE   C3320965   3.226   1.188   7.002  1.0090 -0.0102 -0.3186
  183SOPE   H3X20966   3.330   1.166   6.970  0.8309 -1.2388 -0.1019
  183SOPE   H3Y20967   3.186   1.085   7.015  2.6892 -0.4789  1.4521
  183SOPE   C3420968   3.220   1.267   7.128 -0.5060 -0.0877 -0.3896
  183SOPE   H4X20969   3.118   1.265   7.173 -0.1668 -0.7107  0.3872
  183SOPE   H4Y20970   3.246   1.372   7.104 -3.4202  0.5553 -1.1306
  183SOPE   C3520971   3.314   1.204   7.231  0.3629 -0.2388  0.2435
  183SOPE   H5X20972   3.297   1.264   7.323 -0.6778 -0.5159  0.2422
  183SOPE   H5Y20973   3.415   1.216   7.186 -0.4413  1.4197 -1.2427
  183SOPE   C3620974   3.277   1.063   7.254  0.2656  0.2016 -0.4827
  183SOPE   H6X20975   3.308   0.997   7.170 -1.1511 -0.3188 -0.6252
  183SOPE   H6Y20976   3.167   1.060   7.272  0.5470  1.5613  1.8819
  183SOPE   C3720977   3.342   1.007   7.382 -0.6531  0.1454  0.2646
  183SOPE   H7X20978   3.309   1.074   7.464 -1.9728  2.0882 -1.7248
  183SOPE   H7Y20979   3.452   1.022   7.378 -0.6930  0.3832  0.0546
  183SOPE   C3820980   3.310   0.862   7.421  0.2642 -0.1038  1.1928
  183SOPE   H8X20981   3.331   0.798   7.333 -1.1811  0.4487  0.4169
  183SOPE   H8Y20982   3.200   0.849   7.432  0.1421 -0.0282  0.1896
  183SOPE   C3920983   3.388   0.821   7.542  0.7887 -0.3176  0.1383
  183SOPE   H9X20984   3.495   0.851   7.545  0.7660 -0.3066  0.8570
  183SOPE   H9Y20985   3.382   0.712   7.561 -2.7696 -0.2955 -0.3083
  183SOPE  C31020986   3.314   0.872   7.670  0.0104  0.5225  0.0697
  183SOPE  H10X20987   3.209   0.836   7.667  0.2164 -0.0254 -1.1000
  183SOPE  H10Y20988   3.321   0.983   7.671 -0.0655  0.5268  0.8048
  183SOPE  C31120989   3.386   0.833   7.804 -0.1526 -0.3967 -0.0101
  183SOPE  H11X20990   3.489   0.876   7.796  0.1109 -0.9518  0.3681
  183SOPE  H11Y20991   3.378   0.723   7.819 -0.0235 -0.3383  0.5039
  183SOPE  C31220992   3.330   0.902   7.930  0.5178  0.0682  0.1253
  183SOPE  H12X20993   3.224   0.880   7.955  0.2832  2.5033  1.5559
  183SOPE  H12Y20994   3.331   1.013   7.923 -0.1813  0.0014 -1.4722
  183SOPE  C31320995   3.417   0.872   8.056 -0.1151  0.4184  0.4301
  183SOPE  H13X20996   3.500   0.947   8.052 -0.5117  0.8376 -0.3975
  183SOPE  H13Y20997   3.459   0.775   8.022 -0.0747  0.1612  1.2109
  183SOPE  C31420998   3.338   0.872   8.186 -0.0520 -0.6999  0.2553
  183SOPE  H14X20999   3.256   0.796   8.184 -1.9478  1.2395  0.3209
  183SOPE  H14Y21000   3.291   0.973   8.193  1.9072  0.3094 -0.4350
  183SOPE  C31521001   3.421   0.870   8.313 -0.7818  0.0708 -0.4686
  183SOPE  H15X21002   3.471   0.969   8.321 -2.9124  1.0620  1.7405
  183SOPE  H15Y21003   3.498   0.793   8.291  0.5668  1.1662  0.2762
  183SOPE  C31621004   3.347   0.834   8.440  0.3114 -0.0290 -0.4599
  183SOPE  H16X21005   3.329   0.725   8.452 -0.3698 -0.0176 -1.2695
  183SOPE  H16Y21006   3.246   0.880   8.434  0.5651  1.0548  2.0296
  183SOPE  C31721007   3.413   0.884   8.580  0.5593  0.3183 -0.1042
  183SOPE  H17X21008   3.441   0.991   8.573  1.5383  0.1988  1.4273
  183SOPE  H17Y21009   3.509   0.830   8.597  0.8944  0.0666 -2.4499
  183SOPE  C31821010   3.322   0.862   8.695 -0.5906  0.4174  0.2729
  183SOPE  H18X21011   3.226   0.914   8.675 -1.4946 -0.6823  1.5327
  183SOPE  H18Y21012   3.363   0.901   8.791  0.0087 -1.6476  0.9036
  183SOPE  H18Z21013   3.298   0.754   8.707  1.4254 -0.1291 -0.1879
  184SOPE     N21014   3.655   2.895   6.179  0.2580  1.0202  0.1062
  184SOPE   HN121015   3.711   2.909   6.265  1.6067 -0.0795 -0.5454
  184SOPE   HN221016   3.675   2.973   6.113 -0.1974  1.8888  0.9691
  184SOPE   HN321017   3.554   2.893   6.202  0.1010  1.8327 -0.4825
  184SOPE   C1221018   3.704   2.770   6.107  0.0745 -0.2917  0.2419
  184SOPE  H12A21019   3.800   2.804   6.063  1.3187 -0.2458  2.8129
  184SOPE  H12B21020   3.632   2.741   6.027  0.9486 -0.7812 -0.3996
  184SOPE   C1121021   3.732   2.656   6.209  0.0993 -0.1998  0.2266
  184SOPE  H11A21022   3.808   2.679   6.287  1.0957 -1.0579 -0.4547
  184SOPE  H11B21023   3.783   2.580   6.146 -0.5061 -1.3273  1.0423
  184SOPE     P21024   3.644   2.496   6.394 -0.1755  0.4158  0.0652
  184SOPE   O1321025   3.788   2.478   6.427  0.5051 -0.1353 -0.1386
  184SOPE   O1421026   3.566   2.373   6.368  0.5021 -0.1133  0.0186
  184SOPE   O1221027   3.622   2.587   6.267 -0.2398 -0.1251 -0.8688
  184SOPE   O1121028   3.570   2.582   6.506 -0.2556  0.1170 -0.2192
  184SOPE    C121029   3.656   2.652   6.601 -0.3269 -0.0461  0.6882
  184SOPE    HA21030   3.597   2.724   6.662 -0.2034  0.0133  0.7381
  184SOPE    HB21031   3.736   2.711   6.552 -2.7218 -0.1721 -3.9380
  184SOPE    C221032   3.712   2.559   6.710 -0.0102  0.1337  0.1009
  184SOPE    HS21033   3.774   2.482   6.660 -1.4121  0.2082 -1.8642
  184SOPE   O2121034   3.609   2.503   6.798  0.2096 -0.4442 -0.0195
  184SOPE   C2121035   3.571   2.374   6.782  0.2663  0.1254 -0.4309
  184SOPE   O2221036   3.618   2.295   6.707 -0.2654 -0.7679 -0.2543
  184SOPE   C2221037   3.468   2.337   6.884 -0.0705 -0.2877  0.7047
  184SOPE   H2R21038   3.468   2.228   6.907  0.3529 -0.1233  1.5297
  184SOPE   H2S21039   3.370   2.370   6.842  1.2750  3.3169  0.0522
  184SOPE    C321040   3.805   2.644   6.800 -0.1494  0.1298  0.4032
  184SOPE    HX21041   3.742   2.733   6.823 -0.2243  0.2445 -0.2180
  184SOPE    HY21042   3.892   2.686   6.746 -0.8762 -0.6288 -1.4281
  184SOPE   O3121043   3.855   2.580   6.916  0.1728  0.4664  0.1861
  184SOPE   C3121044   3.899   2.456   6.902 -0.8076 -0.1361 -0.9183
  184SOPE   O3221045   3.930   2.402   6.798  0.4347  0.6345 -0.2841
  184SOPE   C3221046   3.918   2.409   7.048  0.8659 -0.4343 -0.2054
  184SOPE   H2X21047   3.831   2.444   7.108  1.5271 -0.1165  0.5877
  184SOPE   H2Y21048   4.014   2.452   7.085  1.8043 -0.5375 -2.3683
  184SOPE   C2321049   3.493   2.390   7.026  0.1346  0.4399  0.1011
  184SOPE   H3R21050   3.472   2.497   7.045 -0.4599  0.4228 -0.4312
  184SOPE   H3S21051   3.597   2.361   7.051  0.5979 -0.9943 -2.9903
  184SOPE   C2421052   3.403   2.309   7.128 -0.0957 -0.2831 -0.0356
  184SOPE   H4R21053   3.413   2.202   7.101  1.0621  0.4599 -2.8803
  184SOPE   H4S21054   3.448   2.331   7.227  0.4703 -0.2458 -0.3017
  184SOPE   C2521055   3.256   2.349   7.135  0.8681 -0.0207 -0.8076
  184SOPE   H5R21056   3.234   2.453   7.166 -1.9340 -1.0082  0.8462
  184SOPE   H5S21057   3.203   2.338   7.038  0.3272 -1.1917 -0.4007
  184SOPE   C2621058   3.174   2.264   7.239 -0.1570 -0.0839 -0.5866
  184SOPE   H6R21059   3.183   2.157   7.209  0.2112  0.7500 -3.8425
  184SOPE   H6S21060   3.211   2.274   7.344  2.0466  1.6525 -1.4562
  184SOPE   C2721061   3.035   2.327   7.253 -0.2173  0.6219  0.0280
  184SOPE   H7R21062   3.050   2.426   7.300  0.9767 -0.8688  3.0932
  184SOPE   H7S21063   2.985   2.346   7.156 -1.8243 -1.3570  0.4036
  184SOPE   C2821064   2.952   2.239   7.348 -0.1258  0.4624 -0.1635
  184SOPE   H8R21065   2.966   2.131   7.324 -1.7726 -0.3806  2.2361
  184SOPE   H8S21066   3.002   2.248   7.447 -2.2814 -0.3848  1.0756
  184SOPE   C2921067   2.804   2.282   7.367 -0.0658 -0.0166 -0.3128
  184SOPE   H9121068   2.757   2.322   7.276 -1.6392 -2.8429 -0.8378
  184SOPE  C21021069   2.736   2.282   7.478  0.2102 -0.0928 -0.5034
  184SOPE  H10121070   2.627   2.302   7.476  0.3532  1.0330  0.9053
  184SOPE  C21121071   2.787   2.211   7.603  0.1049 -0.4084  0.7357
  184SOPE  H11R21072   2.884   2.164   7.577  1.1124  1.7955  0.3388
  184SOPE  H11S21073   2.724   2.120   7.620 -1.4127  0.3049 -0.8044
  184SOPE  C21221074   2.801   2.301   7.728  0.0354  0.0151 -0.0584
  184SOPE  H12R21075   2.871   2.387   7.719 -0.0066 -0.0342 -1.0010
  184SOPE  H12S21076   2.845   2.230   7.800 -2.8100 -0.5891  1.2182
  184SOPE  C21321077   2.667   2.343   7.781  0.1724  0.1923  0.3159
  184SOPE  H13R21078   2.611   2.390   7.698  0.5038 -1.0418 -0.6476
  184SOPE  H13S21079   2.684   2.411   7.867  0.4187  0.1857  0.2717
  184SOPE  C21421080   2.576   2.226   7.837  0.4345 -0.2471  0.5240
  184SOPE  H14R21081   2.575   2.149   7.758  4.2137  0.9666 -0.9173
  184SOPE  H14S21082   2.478   2.278   7.842  0.9766  1.1499 -1.6912
  184SOPE  C21521083   2.626   2.155   7.971  0.3913 -0.2056 -0.1385
  184SOPE  H15R21084   2.617   2.239   8.043  0.3600  0.2478 -0.6644
  184SOPE  H15S21085   2.736   2.139   7.969  0.2349 -1.9112 -3.1825
  184SOPE  C21621086   2.538   2.042   8.025  0.5541  0.4873 -0.5264
  184SOPE  H16R21087   2.574   2.033   8.130  0.3764 -0.8686 -0.5716
  184SOPE  H16S21088   2.575   1.954   7.969  2.9011  0.0186  1.6045
  184SOPE  C21721089   2.389   2.068   8.005 -0.6020  0.3617  0.8954
  184SOPE  H17R21090   2.359   2.047   7.900  0.6656 -0.6868  0.7141
  184SOPE  H17S21091   2.370   2.175   8.027  0.4226  1.1618 -1.7511
  184SOPE  C21821092   2.297   1.984   8.094  1.0743  0.6232 -0.4213
  184SOPE  H18R21093   2.289   1.881   8.053 -1.1863 -0.0257  1.4499
  184SOPE  H18S21094   2.191   2.015   8.092  0.0562 -2.0889  2.3384
  184SOPE  H18T21095   2.337   1.977   8.197  1.1333  1.5875 -0.3771
  184SOPE   C3321096   3.924   2.252   7.067  0.0819 -0.4069 -0.4418
  184SOPE   H3X21097   4.019   2.211   7.026  1.3478  0.7836  1.1569
  184SOPE   H3Y21098   3.844   2.198   7.013  1.0359 -0.2427 -2.0932
  184SOPE   C3421099   3.917   2.204   7.213 -0.8258 -0.1238 -1.1411
  184SOPE   H4X21100   3.829   2.239   7.272 -1.9048 -0.1029 -2.7097
  184SOPE   H4Y21101   4.003   2.253   7.263 -0.8043  0.5398 -1.8233
  184SOPE   C3521102   3.916   2.052   7.230 -0.1072 -0.3960  0.9380
  184SOPE   H5X21103   4.016   2.013   7.203  0.7815  1.7836  0.8550
  184SOPE   H5Y21104   3.836   2.007   7.169  0.0763 -0.0166  0.4138
  184SOPE   C3621105   3.889   2.009   7.374 -0.4005 -0.1540  0.7669
  184SOPE   H6X21106   3.791   2.050   7.406 -0.8155  0.1839 -0.8272
  184SOPE   H6Y21107   3.961   2.069   7.433 -1.1212  0.6022  0.8980
  184SOPE   C3721108   3.889   1.862   7.394 -0.3906 -0.7117  0.0241
  184SOPE   H7X21109   3.988   1.824   7.361 -0.2279 -2.1272  1.9858
  184SOPE   H7Y21110   3.806   1.819   7.334 -1.1102  0.0780  0.4354
  184SOPE   C3821111   3.887   1.828   7.549 -0.4904  0.3769  0.2751
  184SOPE   H8X21112   3.854   1.722   7.547 -0.1419  0.2809 -1.3788
  184SOPE   H8Y21113   3.820   1.892   7.611  0.0315 -0.9640  2.3189
  184SOPE   C3921114   4.021   1.837   7.608  0.0239 -0.2898 -0.7008
  184SOPE   H9X21115   4.058   1.934   7.568 -0.2368 -0.7819 -2.1787
  184SOPE   H9Y21116   4.087   1.755   7.571 -0.2757 -0.3367 -1.1372
  184SOPE  C31021117   4.040   1.836   7.763 -0.3457 -0.8208 -0.5598
  184SOPE  H10X21118   4.149   1.833   7.786 -0.7632 -1.8907  1.4844
  184SOPE  H10Y21119   3.995   1.744   7.806  1.0175 -1.9032 -1.3368
  184SOPE  C31121120   3.963   1.949   7.839 -0.3257  0.0796  0.6949
  184SOPE  H11X21121   3.869   1.980   7.788  1.2093  1.3434 -1.5481
  184SOPE  H11Y21122   4.031   2.036   7.835  1.1790 -1.0577  0.6718
  184SOPE  C31221123   3.918   1.919   7.980  0.1847 -0.1593 -0.3143
  184SOPE  H12X21124   4.007   1.914   8.047 -0.1171  1.5077  0.2551
  184SOPE  H12Y21125   3.868   1.820   7.987 -2.4025  1.0455 -0.3843
  184SOPE  C31321126   3.826   2.040   8.030 -0.8990  0.1031 -0.6054
  184SOPE  H13X21127   3.731   2.046   7.973  0.1225 -0.6550 -2.4808
  184SOPE  H13Y21128   3.884   2.134   8.017 -1.8436  0.8081  0.1423
  184SOPE  C31421129   3.794   2.033   8.182 -0.4207  0.1889 -0.0526
  184SOPE  H14X21130   3.829   2.132   8.219 -2.1134  1.6806 -2.1600
  184SOPE  H14Y21131   3.851   1.944   8.215 -0.1323  0.4847  0.2541
  184SOPE  C31521132   3.646   2.028   8.211 -0.0141  1.1046  0.5381
  184SOPE  H15X21133   3.591   2.121   8.185  0.6407  0.9404 -1.6326
  184SOPE  H15Y21134   3.638   2.022   8.322  1.4449  2.7153  0.7770
  184SOPE  C31621135   3.573   1.909   8.142  0.4810  0.2654 -0.5362
  184SOPE  H16X21136   3.645   1.828   8.117  0.6836  0.4720 -0.6256
  184SOPE  H16Y21137   3.535   1.934   8.041 -0.4820  0.0332 -0.2452
  184SOPE  C31721138   3.455   1.859   8.224  0.2445  0.1713  0.0703
  184SOPE  H17X21139   3.387   1.943   8.247 -1.4894 -1.9518  3.5417
  184SOPE  H17Y21140   3.484   1.831   8.327  1.6555  2.3643  0.3438
  184SOPE  C31821141   3.383   1.747   8.147  0.2323 -0.1169 -0.0947
  184SOPE  H18X21142   3.295   1.714   8.207  0.8695  0.8847  1.4780
  184SOPE  H18Y21143   3.450   1.663   8.122  0.5363  0.2661 -0.5837
  184SOPE  H18Z21144   3.347   1.779   8.048  0.5893 -2.7849 -1.1676
  185SAPI   C1221145   3.414   4.490  11.179  0.5058 -0.7932 -0.8551
  185SAPI    H221146   3.313   4.488  11.132  0.8888 -0.4777 -1.7179
  185SAPI    O221147   3.389   4.534  11.317  0.3567 -0.5151 -0.3397
  185SAPI   HO221148   3.396   4.630  11.313  1.5600 -0.4805  1.4876
  185SAPI   C1321149   3.477   4.354  11.183 -0.0191 -0.1354  0.0425
  185SAPI    H321150   3.487   4.320  11.078  0.1409 -0.0143  0.0186
  185SAPI    O321151   3.391   4.267  11.248 -0.1142  0.2438 -0.3960
  185SAPI   HO321152   3.396   4.298  11.339  2.1812 -1.3236  0.1091
  185SAPI   C1421153   3.616   4.362  11.246 -0.1376  0.5563 -0.2731
  185SAPI    H421154   3.605   4.410  11.346  2.7657  0.3211  0.2610
  185SAPI    O421155   3.678   4.234  11.255  0.1820  0.0829 -0.1951
  185SAPI   HO421156   3.670   4.205  11.163 -1.0611  1.7187 -0.6463
  185SAPI   C1521157   3.712   4.453  11.173 -0.1114 -0.1150 -0.1002
  185SAPI    H521158   3.730   4.409  11.072  1.0831  1.1424 -0.4723
  185SAPI    O521159   3.837   4.456  11.245 -0.0480  0.3476  0.2312
  185SAPI   HO521160   3.824   4.426  11.335 -0.7522  2.9014  1.0897
  185SAPI   C1621161   3.649   4.591  11.167  0.3971 -0.4679  0.4534
  185SAPI    H621162   3.645   4.627  11.272 -0.6744 -1.8279  0.9113
  185SAPI    O621163   3.714   4.690  11.085 -0.3866 -0.0888  0.5302
  185SAPI   HO621164   3.657   4.766  11.098  0.9302  0.7177  1.9464
  185SAPI   C1121165   3.508   4.581  11.103 -0.3089  0.3651 -0.5278
  185SAPI    H121166   3.522   4.545  10.999  0.6208  1.0510 -0.6498
  185SAPI     P21167   3.341   4.779  11.015  0.3063  0.0142  0.2032
  185SAPI   O1321168   3.280   4.893  11.084  0.2143 -0.0219 -0.8609
  185SAPI   O1421169   3.251   4.674  10.978  0.3619  0.1666  0.5518
  185SAPI   O1221170   3.461   4.715  11.109  0.3090  0.1971  0.8871
  185SAPI   O1121171   3.414   4.835  10.886 -0.6036  0.4640 -0.7619
  185SAPI    C121172   3.443   4.745  10.771  0.2537 -0.2174 -0.1271
  185SAPI    HA21173   3.518   4.669  10.803 -1.5799 -1.6587  0.9750
  185SAPI    HB21174   3.358   4.681  10.739  0.8297  0.1131 -2.4265
  185SAPI    C221175   3.475   4.818  10.639  0.1416 -0.1053  0.0379
  185SAPI    HS21176   3.464   4.750  10.553 -2.1615  3.1903 -2.5450
  185SAPI   O2121177   3.616   4.868  10.642 -0.1630 -0.3194  0.9275
  185SAPI   C2121178   3.709   4.776  10.618  0.4998 -0.2879  0.1826
  185SAPI   O2221179   3.685   4.657  10.595 -0.0828  0.5362 -0.5738
  185SAPI   C2221180   3.842   4.843  10.619  0.0987 -0.4664  0.5087
  185SAPI   H2R21181   3.824   4.952  10.628 -0.3224 -0.5460  0.6755
  185SAPI   H2S21182   3.903   4.791  10.696  2.0265 -0.2543 -0.8033
  185SAPI    C321183   3.389   4.946  10.623 -0.2176  0.1876 -0.0300
  185SAPI    HX21184   3.441   5.029  10.676 -0.0703 -0.4715  0.8878
  185SAPI    HY21185   3.300   4.924  10.687  1.0397 -0.6773  1.5022
  185SAPI   O3121186   3.379   4.996  10.490 -0.1098  0.1567  0.5945
  185SAPI   C3121187   3.255   5.002  10.444 -0.4619 -0.4013 -0.2843
  185SAPI   O3221188   3.152   4.967  10.502  0.2207 -0.1330  0.8723
  185SAPI   C3221189   3.255   5.086  10.313 -0.7283  0.3374 -0.2972
  185SAPI   H2X21190   3.293   5.015  10.236 -1.2494  1.4980 -1.6573
  185SAPI   H2Y21191   3.324   5.172  10.320  0.0887 -0.2408 -0.9129
  185SAPI   C2321192   3.909   4.819  10.476 -0.4600 -0.0228 -1.0560
  185SAPI   H3R21193   3.826   4.832  10.404 -0.3953 -0.2387 -1.1699
  185SAPI   H3S21194   3.956   4.718  10.477 -1.8682 -0.7998  2.6370
  185SAPI   C2421195   4.009   4.936  10.447 -0.1428  0.0665  0.0259
  185SAPI   H4R21196   4.082   4.918  10.528 -1.2289  0.8510  1.2262
  185SAPI   H4S21197   3.965   5.035  10.473 -0.3887  0.0047 -0.1452
  185SAPI   C2521198   4.075   4.920  10.313  0.8512 -0.0778  0.3065
  185SAPI   H5R21199   4.173   4.869  10.313  1.2189  0.6091  1.0307
  185SAPI   C2621200   4.024   4.951  10.198 -0.4664 -0.4373 -0.1461
  185SAPI   H6R21201   4.085   4.942  10.107  0.4723 -0.5936  0.4818
  185SAPI   C2721202   3.884   5.016  10.181  0.0932  0.0268  0.2547
  185SAPI   H7R21203   3.896   5.124  10.156  2.1976 -0.5808 -1.7536
  185SAPI   H7S21204   3.823   5.003  10.273 -1.4206  1.6683 -0.4463
  185SAPI   C2821205   3.821   4.964  10.062  0.1671 -0.5445 -0.3506
  185SAPI   H8R21206   3.889   4.953   9.976 -0.0930 -2.1570 -0.3919
  185SAPI   C2921207   3.693   4.932  10.041  0.1169  0.5832 -0.0558
  185SAPI   H9R21208   3.663   4.889   9.944 -0.5607 -1.7840  1.1044
  185SAPI  C21021209   3.572   4.916  10.140 -0.5982  0.0665  0.2158
  185SAPI  H10R21210   3.481   4.943  10.082 -1.5000 -1.9065  0.6619
  185SAPI  H10S21211   3.566   4.992  10.221 -0.1700  0.4423 -0.0999
  185SAPI  C21121212   3.552   4.782  10.214  0.5021 -0.8298 -0.5834
  185SAPI  H11R21213   3.543   4.789  10.324  1.1220  1.1040 -0.6229
  185SAPI  C21221214   3.521   4.664  10.162  0.2572  0.1817 -0.4837
  185SAPI  H12R21215   3.494   4.581  10.229 -2.8638  1.3060 -0.1442
  185SAPI  C21321216   3.495   4.635  10.019 -0.0362  0.3130  1.0517
  185SAPI  H13R21217   3.447   4.535  10.016 -0.7068  0.6283  0.9870
  185SAPI  H13S21218   3.600   4.633   9.981 -0.2700  1.6123  0.2586
  185SAPI  C21421219   3.393   4.707   9.929  0.5413  0.4705  0.6982
  185SAPI  H14R21220   3.305   4.744   9.983 -0.0568  2.4820 -1.4844
  185SAPI  C21521221   3.407   4.728   9.794 -0.4945  0.3663 -0.2728
  185SAPI  H15R21222   3.318   4.766   9.742 -1.9064 -1.9475  0.2763
  185SAPI  C21621223   3.527   4.696   9.712  0.0952  0.2568 -0.5550
  185SAPI  H16R21224   3.572   4.598   9.738 -2.1133 -0.8102 -0.4540
  185SAPI  H16S21225   3.600   4.772   9.749 -1.0836  0.9405  0.4717
  185SAPI  C21721226   3.518   4.721   9.563  0.3805  0.5620  0.2336
  185SAPI  H17R21227   3.625   4.732   9.538  0.5094 -0.9779  0.0203
  185SAPI  H17S21228   3.474   4.820   9.535 -2.1521 -0.3811  0.5780
  185SAPI  C21821229   3.456   4.602   9.485 -0.3947 -0.0405 -0.6579
  185SAPI  H18R21230   3.364   4.571   9.538 -0.8091  2.4045  0.1832
  185SAPI  H18S21231   3.535   4.524   9.493  0.1719  0.7456  3.1795
  185SAPI  C21921232   3.421   4.633   9.342 -0.0683 -0.1744  0.8357
  185SAPI  H19R21233   3.345   4.713   9.331 -0.6474 -0.8082  0.1398
  185SAPI  H19S21234   3.366   4.543   9.306 -0.9762  0.4080  0.7407
  185SAPI  C22021235   3.548   4.640   9.246 -0.3455  0.0751 -0.4939
  185SAPI  H20R21236   3.601   4.545   9.265 -1.6542 -0.6794 -0.4942
  185SAPI  H20S21237   3.615   4.722   9.280  1.3828 -0.2380 -2.9256
  185SAPI  H20T21238   3.523   4.649   9.138  1.6367  1.6851 -0.8876
  185SAPI   C3321239   3.118   5.138  10.267 -1.1615  0.1009  0.3934
  185SAPI   H3X21240   3.084   5.205  10.349  0.9432  0.2091  1.2555
  185SAPI   H3Y21241   3.057   5.049  10.245  2.1464 -1.6196 -2.8666
  185SAPI   C3421242   3.124   5.212  10.133 -0.4884 -0.1015 -0.5532
  185SAPI   H4X21243   3.187   5.303  10.150  0.9898 -1.4375  1.7595
  185SAPI   H4Y21244   3.020   5.247  10.115  0.0769  0.4165 -3.1557
  185SAPI   C3521245   3.176   5.122  10.019 -0.6733  0.5724  0.1407
  185SAPI   H5X21246   3.130   5.023   9.999 -1.9239  1.4576 -1.5690
  185SAPI   H5Y21247   3.284   5.096  10.027 -1.1070 -0.8912  1.6827
  185SAPI   C3621248   3.181   5.197   9.880 -0.6675 -0.0805 -0.2730
  185SAPI   H6X21249   3.243   5.289   9.890 -0.1826 -0.3941 -0.3596
  185SAPI   H6Y21250   3.080   5.241   9.866 -0.1578  0.9805 -0.7433
  185SAPI   C3721251   3.226   5.123   9.754 -0.5788  0.2846  0.7328
  185SAPI   H7X21252   3.177   5.024   9.744  1.4681 -0.6602 -0.7266
  185SAPI   H7Y21253   3.329   5.093   9.785 -1.4183 -0.9913  2.4953
  185SAPI   C3821254   3.251   5.218   9.623 -0.5487  0.5147  0.1733
  185SAPI   H8X21255   3.328   5.283   9.669  0.4158 -0.0874 -0.5438
  185SAPI   H8Y21256   3.162   5.277   9.593  0.3292  1.4023 -0.7831
  185SAPI   C3921257   3.305   5.147   9.504  0.1898  0.6571  0.0906
  185SAPI   H9X21258   3.236   5.064   9.478  0.8573  0.0577  0.2234
  185SAPI   H9Y21259   3.398   5.092   9.529 -0.4770 -1.7072 -2.1542
  185SAPI  C31021260   3.305   5.230   9.377  0.1665 -0.6979 -0.0278
  185SAPI  H10X21261   3.408   5.263   9.353  0.1077 -0.9983 -0.7275
  185SAPI  H10Y21262   3.233   5.314   9.390  1.5845  0.6024 -0.3414
  185SAPI  C31121263   3.266   5.145   9.254 -0.4978 -0.1846 -0.1780
  185SAPI  H11X21264   3.172   5.086   9.263  1.4102 -3.2662  1.1376
  185SAPI  H11Y21265   3.346   5.068   9.247 -0.6291 -0.1843 -2.2030
  185SAPI  C31221266   3.247   5.226   9.120  0.3976 -0.2842  0.3772
  185SAPI  H12X21267   3.340   5.287   9.110  0.1514  0.0538  0.1121
  185SAPI  H12Y21268   3.156   5.291   9.122 -0.4433 -1.2406 -2.2638
  185SAPI  C31321269   3.239   5.134   9.002 -0.1686  0.1307  0.3667
  185SAPI  H13X21270   3.146   5.074   8.998  0.5476 -0.9638 -1.3694
  185SAPI  H13Y21271   3.323   5.061   9.013 -0.6890 -0.3835  0.9598
  185SAPI  C31421272   3.260   5.213   8.867  0.0909 -0.1900  0.3741
  185SAPI  H14X21273   3.358   5.264   8.859 -0.4978  0.7972 -0.8116
  185SAPI  H14Y21274   3.178   5.288   8.871 -0.1571 -0.4951  1.7151
  185SAPI  C31521275   3.227   5.125   8.742 -1.3841 -0.1159 -0.4080
  185SAPI  H15X21276   3.233   5.193   8.655  1.5140  2.4222  1.5673
  185SAPI  H15Y21277   3.125   5.086   8.766 -0.4381 -1.0988  2.4558
  185SAPI  C31621278   3.327   5.003   8.728 -0.3673  0.3229 -0.1973
  185SAPI  H16X21279   3.298   4.931   8.649 -0.4840 -0.2556  0.3682
  185SAPI  H16Y21280   3.344   4.956   8.827  1.1532 -0.4701 -0.8019
  185SAPI  C31721281   3.465   5.057   8.680  0.8436 -0.5510  0.7254
  185SAPI  H17X21282   3.488   5.138   8.754 -1.1393  1.9163 -1.1746
  185SAPI  H17Y21283   3.454   5.105   8.580 -2.7816 -0.0246  1.2489
  185SAPI  C31821284   3.572   4.952   8.699 -0.6563  0.1382 -1.2677
  185SAPI  H18X21285   3.573   4.880   8.614  0.2404  1.3260 -2.3031
  185SAPI  H18Y21286   3.560   4.897   8.795 -2.5903  3.5207  0.6236
  185SAPI  H18Z21287   3.669   5.006   8.707 -0.4086 -0.4165 -0.3754
  186SAPI   C1221288   4.949   3.989  10.994  0.1052  0.1823 -0.1092
  186SAPI    H221289   4.952   4.093  10.956  2.6588  0.5097  0.7605
  186SAPI    O221290   5.018   3.912  10.896  0.1497  0.2021 -0.4222
  186SAPI   HO221291   4.966   3.912  10.815 -0.5253 -2.2004 -0.0820
  186SAPI   C1321292   5.020   3.985  11.131  0.6550 -0.5624 -1.0757
  186SAPI    H321293   4.963   4.046  11.206  2.0593  1.9365 -1.9301
  186SAPI    O321294   5.150   4.043  11.130 -0.7167 -0.1144  0.5706
  186SAPI   HO321295   5.216   3.974  11.143  2.1290  2.4070  0.6342
  186SAPI   C1421296   5.011   3.845  11.186 -0.3552 -0.1833  0.4696
  186SAPI    H421297   5.057   3.782  11.107 -2.0277  0.2052 -0.8606
  186SAPI    O421298   5.085   3.831  11.300 -0.4005 -0.3386  0.4891
  186SAPI   HO421299   5.043   3.760  11.350 -0.8610 -0.0236  0.5521
  186SAPI   C1521300   4.873   3.790  11.203 -0.4267  0.0622  0.3827
  186SAPI    H521301   4.816   3.845  11.282  0.6612 -1.5981  2.4363
  186SAPI    O521302   4.886   3.656  11.240  0.3473 -0.3264 -0.2238
  186SAPI   HO521303   4.817   3.652  11.307  0.9294 -0.6699  0.3745
  186SAPI   C1621304   4.795   3.807  11.078 -0.3103  0.1451 -0.8503
  186SAPI    H621305   4.849   3.746  11.002  1.6918  0.9223 -0.0929
  186SAPI    O621306   4.663   3.747  11.105 -0.6043  0.2038 -0.6939
  186SAPI   HO621307   4.641   3.703  11.023 -1.4549 -1.8848  0.5909
  186SAPI   C1121308   4.805   3.949  11.020 -0.1650  0.5728 -0.3787
  186SAPI    H121309   4.771   4.009  11.107  0.7912  0.3470  0.1704
  186SAPI     P21310   4.667   4.088  10.852  0.0237 -0.0096 -0.3864
  186SAPI   O1321311   4.655   4.175  10.968 -0.8089  0.2251  0.5431
  186SAPI   O1421312   4.546   4.062  10.776  0.3082  0.0095  0.1795
  186SAPI   O1221313   4.719   3.945  10.907 -0.4683 -0.8708 -0.0117
  186SAPI   O1121314   4.780   4.134  10.752  0.1054 -0.2095 -0.7321
  186SAPI    C121315   4.801   4.275  10.735 -0.3728  0.4076 -0.0860
  186SAPI    HA21316   4.705   4.332  10.743 -0.1920  0.5040  1.8120
  186SAPI    HB21317   4.865   4.309  10.819  1.7320  1.7862 -2.1219
  186SAPI    C221318   4.861   4.324  10.598 -0.6688  0.5360  0.6104
  186SAPI    HS21319   4.830   4.430  10.583 -0.8281  0.4839  0.5715
  186SAPI   O2121320   4.807   4.239  10.498 -0.6592 -0.0859 -0.1309
  186SAPI   C2121321   4.674   4.269  10.468  0.1159  1.3251 -0.8165
  186SAPI   O2221322   4.615   4.360  10.511  0.3572 -0.8272 -0.4945
  186SAPI   C2221323   4.629   4.165  10.366  0.1331 -0.1905 -0.2794
  186SAPI   H2R21324   4.709   4.164  10.289  0.2396  0.0121 -0.1730
  186SAPI   H2S21325   4.634   4.063  10.410 -0.8425 -0.2634 -0.2997
  186SAPI    C321326   5.014   4.310  10.610  0.0240 -0.3976  0.0493
  186SAPI    HX21327   5.036   4.201  10.614 -1.7980 -0.8278 -0.6241
  186SAPI    HY21328   5.052   4.356  10.704  2.4027 -1.0430 -0.5185
  186SAPI   O3121329   5.084   4.362  10.494  0.6579  0.1766 -0.2466
  186SAPI   C3121330   5.215   4.382  10.529 -0.1144  0.8305  0.1153
  186SAPI   O3221331   5.256   4.363  10.642 -0.0320  0.3305 -0.1977
  186SAPI   C3221332   5.292   4.450  10.422 -0.6107 -0.0553 -0.1080
  186SAPI   H2X21333   5.394   4.405  10.421 -1.2021 -1.4858 -1.9175
  186SAPI   H2Y21334   5.306   4.552  10.462 -0.8270 -0.9010  2.3045
  186SAPI   C2321335   4.495   4.208  10.297 -0.0374 -0.0217  0.1642
  186SAPI   H3R21336   4.499   4.314  10.265  0.2381 -0.7391 -2.4524
  186SAPI   H3S21337   4.417   4.190  10.373  0.9741  0.4799  1.3672
  186SAPI   C2421338   4.486   4.125  10.171  0.1758 -0.0151 -0.3858
  186SAPI   H4R21339   4.473   4.019  10.202  1.5896  0.1540  0.8876
  186SAPI   H4S21340   4.586   4.131  10.123 -0.3151  0.7223 -1.3472
  186SAPI   C2521341   4.368   4.177  10.097  0.0104  0.2595 -0.3303
  186SAPI   H5R21342   4.276   4.160  10.154 -1.0630  1.4328 -1.6185
  186SAPI   C2621343   4.359   4.236   9.975  0.5909 -0.0628 -0.0600
  186SAPI   H6R21344   4.259   4.249   9.931  0.3481 -1.1562  0.1293
  186SAPI   C2721345   4.476   4.252   9.888 -1.0919  1.2260  0.1944
  186SAPI   H7R21346   4.566   4.279   9.947  2.5831 -0.0751 -4.1632
  186SAPI   H7S21347   4.470   4.345   9.828  1.7984  1.5375  0.2217
  186SAPI   C2821348   4.506   4.123   9.818 -0.3933 -0.1753 -0.2045
  186SAPI   H8R21349   4.591   4.074   9.867 -1.2971  0.2528  1.8741
  186SAPI   C2921350   4.479   4.084   9.695  0.0818 -1.0448  0.8273
  186SAPI   H9R21351   4.515   3.986   9.660 -1.2284 -1.5719  0.8901
  186SAPI  C21021352   4.386   4.153   9.602 -0.3451 -0.1904 -0.2233
  186SAPI  H10R21353   4.322   4.227   9.655  0.8410  2.2683 -2.0357
  186SAPI  H10S21354   4.310   4.082   9.563  0.2663 -0.4152 -1.0107
  186SAPI  C21121355   4.463   4.220   9.493 -0.8253  0.4799  0.3195
  186SAPI  H11R21356   4.554   4.271   9.526  0.8831 -3.0753  1.6752
  186SAPI  C21221357   4.444   4.215   9.359 -0.8085 -0.5692 -0.0116
  186SAPI  H12R21358   4.510   4.270   9.291  1.5891 -1.2529  1.6313
  186SAPI  C21321359   4.327   4.136   9.299 -0.3060 -0.2073  0.4625
  186SAPI  H13R21360   4.306   4.033   9.336 -0.8124 -1.3730 -2.7277
  186SAPI  H13S21361   4.357   4.111   9.195  0.1656  0.2298  0.4891
  186SAPI  C21421362   4.198   4.219   9.308  0.4901  0.4787 -0.1829
  186SAPI  H14R21363   4.177   4.262   9.407  1.1011  1.9213 -0.6543
  186SAPI  C21521364   4.105   4.220   9.215 -0.5944 -0.5945 -0.2299
  186SAPI  H15R21365   4.018   4.286   9.221 -0.0240  0.0536  1.4662
  186SAPI  C21621366   4.124   4.154   9.079  0.1610  0.3060 -0.8916
  186SAPI  H16R21367   4.038   4.088   9.053 -0.1725  0.5841 -0.5148
  186SAPI  H16S21368   4.217   4.095   9.068 -0.6317 -0.9188 -1.2092
  186SAPI  C21721369   4.134   4.257   8.962  0.5639 -0.5153  0.3368
  186SAPI  H17R21370   4.231   4.308   8.983  1.0916 -1.2749 -0.1694
  186SAPI  H17S21371   4.057   4.334   8.983  2.5816  0.7184  4.1918
  186SAPI  C21821372   4.137   4.197   8.823 -0.3334  0.7847 -0.0498
  186SAPI  H18R21373   4.040   4.150   8.796  0.0962 -0.5009  0.5600
  186SAPI  H18S21374   4.215   4.119   8.812 -0.5412  0.4419  0.7982
  186SAPI  C21921375   4.168   4.292   8.710  0.0367  0.0758 -0.1196
  186SAPI  H19R21376   4.082   4.362   8.704 -0.2550 -0.0822  1.6848
  186SAPI  H19S21377   4.174   4.239   8.612 -0.2325  0.9052 -0.5904
  186SAPI  C22021378   4.284   4.384   8.725 -0.0041  0.6194 -0.0657
  186SAPI  H20R21379   4.383   4.338   8.748  0.1783  0.0122 -1.9388
  186SAPI  H20S21380   4.256   4.453   8.807 -2.9077 -0.2748 -0.1799
  186SAPI  H20T21381   4.306   4.434   8.629  0.0135  3.1985  1.2020
  186SAPI   C3321382   5.226   4.447  10.284  0.0312  0.9272  0.1455
  186SAPI   H3X21383   5.134   4.508  10.295 -0.0631  0.5857  1.2806
  186SAPI   H3Y21384   5.216   4.340  10.256  3.0754  0.8520 -1.0356
  186SAPI   C3421385   5.316   4.516  10.174 -0.0898 -0.1559  0.0886
  186SAPI   H4X21386   5.418   4.473  10.174 -0.0343 -0.0510  1.4244
  186SAPI   H4Y21387   5.335   4.623  10.197  1.0020 -0.1057 -0.9384
  186SAPI   C3521388   5.280   4.500  10.025  0.8666  0.2405 -0.1081
  186SAPI   H5X21389   5.240   4.400   9.998 -0.4768  1.1190 -1.5928
  186SAPI   H5Y21390   5.368   4.510   9.958  0.8706 -2.6183 -0.6578
  186SAPI   C3621391   5.174   4.598   9.969 -0.5263  1.1958 -0.0473
  186SAPI   H6X21392   5.202   4.704   9.984 -1.0901  1.7916 -2.6611
  186SAPI   H6Y21393   5.075   4.582  10.016 -0.8841  0.2881 -1.0625
  186SAPI   C3721394   5.158   4.578   9.815  0.6816 -0.1787  0.0038
  186SAPI   H7X21395   5.105   4.483   9.796  0.4722  0.2013 -1.4195
  186SAPI   H7Y21396   5.256   4.560   9.767  1.2653  1.2897  0.5855
  186SAPI   C3821397   5.073   4.692   9.754  0.3326  0.6137 -0.6265
  186SAPI   H8X21398   5.141   4.781   9.748 -0.7140  1.3320 -3.4146
  186SAPI   H8Y21399   4.991   4.713   9.826 -0.0602 -2.1310 -0.1698
  186SAPI   C3921400   5.035   4.654   9.612  0.8089 -0.3885  0.8977
  186SAPI   H9X21401   4.952   4.720   9.578  1.3337  0.0802  0.5005
  186SAPI   H9Y21402   4.998   4.550   9.618  0.7835 -0.3561  1.3353
  186SAPI  C31021403   5.148   4.662   9.506 -0.2556 -0.4469 -0.6754
  186SAPI  H10X21404   5.227   4.596   9.550 -1.3880 -0.0809  2.1037
  186SAPI  H10Y21405   5.193   4.763   9.500 -0.5040 -0.3133 -0.3609
  186SAPI  C31121406   5.101   4.608   9.368  0.1705 -0.4383 -0.2679
  186SAPI  H11X21407   5.008   4.666   9.345 -1.1190 -1.5295  1.8376
  186SAPI  H11Y21408   5.072   4.502   9.378 -1.9594  0.2219  1.4470
  186SAPI  C31221409   5.207   4.630   9.264 -0.0765 -0.2802  0.9192
  186SAPI  H12X21410   5.306   4.609   9.311 -0.4315 -0.9502  1.3798
  186SAPI  H12Y21411   5.193   4.735   9.229 -0.2766 -0.1744  1.3039
  186SAPI  C31321412   5.168   4.538   9.140  0.2244  0.0599  0.0956
  186SAPI  H13X21413   5.083   4.577   9.080  2.2500  0.8117 -2.4581
  186SAPI  H13Y21414   5.152   4.435   9.180  0.4238  0.3601  0.9503
  186SAPI  C31421415   5.287   4.532   9.040 -0.2007 -0.1279  0.5257
  186SAPI  H14X21416   5.247   4.463   8.963 -2.2034  0.5224  0.9170
  186SAPI  H14Y21417   5.380   4.489   9.083 -0.2858 -2.1918 -1.1681
  186SAPI  C31521418   5.329   4.662   8.977  0.2288  0.2340  0.6800
  186SAPI  H15X21419   5.378   4.726   9.053  0.6753  0.1781  0.4403
  186SAPI  H15Y21420   5.240   4.702   8.922 -1.3111 -3.3897  0.2123
  186SAPI  C31621421   5.440   4.654   8.864 -0.2378 -0.0142  0.2725
  186SAPI  H16X21422   5.428   4.746   8.802  0.5048 -1.0936 -1.5661
  186SAPI  H16Y21423   5.405   4.576   8.793  1.7533  1.1985 -2.2222
  186SAPI  C31721424   5.575   4.630   8.923  0.0082 -0.2614  0.4199
  186SAPI  H17X21425   5.611   4.539   8.870  1.5091 -0.3539  1.5163
  186SAPI  H17Y21426   5.569   4.605   9.032  0.1472 -1.0454  0.2566
  186SAPI  C31821427   5.678   4.750   8.902  0.6193 -0.3061  0.5045
  186SAPI  H18X21428   5.659   4.827   8.979  3.1329  0.2502  0.6239
  186SAPI  H18Y21429   5.674   4.786   8.797  3.5363  0.1972  0.5009
  186SAPI  H18Z21430   5.783   4.717   8.914  1.1072  1.0109  0.0030
  187SAPI   C1221431   3.297   3.350   6.454  0.0800 -0.0892  0.0667
  187SAPI    H221432   3.307   3.318   6.349  2.5462  1.3284 -0.2045
  187SAPI    O221433   3.294   3.495   6.447 -0.4392 -0.4423 -0.1645
  187SAPI   HO221434   3.212   3.528   6.410  1.5484  2.6012 -2.3627
  187SAPI   C1321435   3.188   3.275   6.521  0.2611  0.1607 -0.6051
  187SAPI    H321436   3.214   3.167   6.519 -2.3314 -0.5434  0.6042
  187SAPI    O321437   3.063   3.296   6.454  0.7300  0.4710 -0.0219
  187SAPI   HO321438   3.049   3.391   6.449 -0.0449  0.4386  1.0757
  187SAPI   C1421439   3.173   3.320   6.667  0.2507 -0.4990  0.5317
  187SAPI    H421440   3.161   3.431   6.663 -2.3301 -0.7292 -0.0559
  187SAPI    O421441   3.072   3.254   6.743 -0.1862  0.9704 -0.6596
  187SAPI   HO421442   3.086   3.290   6.830 -0.6965  1.1181 -0.6347
  187SAPI   C1521443   3.309   3.285   6.737  0.5914 -0.1495  0.3034
  187SAPI    H521444   3.321   3.174   6.741  3.1704  0.0958  1.9635
  187SAPI    O521445   3.308   3.308   6.878  0.3144 -0.0004 -0.5949
  187SAPI   HO521446   3.396   3.308   6.916  0.9195 -2.0928 -1.8283
  187SAPI   C1621447   3.433   3.339   6.664 -1.1143  0.6447  0.0633
  187SAPI    H621448   3.443   3.450   6.674  4.1371  0.2522  2.4490
  187SAPI    O621449   3.551   3.297   6.725 -0.0516 -0.4772 -0.2827
  187SAPI   HO621450   3.626   3.322   6.670  0.9405 -0.3043  1.0876
  187SAPI   C1121451   3.433   3.300   6.516  0.0342 -0.1076 -0.0619
  187SAPI    H121452   3.440   3.189   6.523  1.8891  0.0292  1.1671
  187SAPI     P21453   3.671   3.246   6.403  0.1012  0.1248  0.1786
  187SAPI   O1321454   3.740   3.312   6.284 -0.0731 -0.4189 -0.0020
  187SAPI   O1421455   3.633   3.106   6.398  0.3124  0.0375 -0.0899
  187SAPI   O1221456   3.548   3.345   6.447 -0.6012 -0.1025  0.3608
  187SAPI   O1121457   3.749   3.274   6.541 -0.2141  0.8082 -0.5161
  187SAPI    C121458   3.816   3.394   6.560 -0.8015  0.0389  0.0743
  187SAPI    HA21459   3.856   3.433   6.464 -1.7804 -0.0171 -0.3682
  187SAPI    HB21460   3.751   3.475   6.598 -2.6376 -1.9453  1.4251
  187SAPI    C221461   3.936   3.377   6.654  0.1166 -0.9540 -0.9703
  187SAPI    HS21462   4.025   3.327   6.611  0.6299  1.1471 -2.5222
  187SAPI   O2121463   3.886   3.322   6.776 -0.7859  0.3400 -0.2642
  187SAPI   C2121464   3.911   3.188   6.799 -0.1148 -0.6584  0.4512
  187SAPI   O2221465   3.983   3.120   6.726  0.2329 -0.2048 -0.0244
  187SAPI   C2221466   3.847   3.151   6.927  0.2779 -0.7619 -0.5708
  187SAPI   H2R21467   3.895   3.207   7.010 -0.7270  0.4774 -0.7996
  187SAPI   H2S21468   3.742   3.184   6.939 -0.2772 -2.4759 -0.5046
  187SAPI    C321469   3.997   3.522   6.689  0.0166 -0.0916 -0.3659
  187SAPI    HX21470   3.907   3.579   6.718 -0.7452 -0.8366 -1.1940
  187SAPI    HY21471   4.043   3.565   6.597 -2.8100  0.3039 -1.7019
  187SAPI   O3121472   4.091   3.538   6.806  0.3544 -0.1707 -0.7177
  187SAPI   C3121473   4.213   3.498   6.780  0.6077  0.1793  0.4337
  187SAPI   O3221474   4.250   3.439   6.680  0.6880  0.2019  0.0821
  187SAPI   C3221475   4.288   3.517   6.911  0.3486  0.0646 -0.3872
  187SAPI   H2X21476   4.253   3.602   6.973 -1.6997 -0.9598 -0.0508
  187SAPI   H2Y21477   4.391   3.533   6.873 -0.4541  1.6259 -2.0948
  187SAPI   C2321478   3.856   3.001   6.958  0.2082  0.6148  0.0277
  187SAPI   H3R21479   3.814   2.937   6.878  0.6587 -0.4056  0.5894
  187SAPI   H3S21480   3.789   2.989   7.046 -0.7021  1.4712 -0.5251
  187SAPI   C2421481   4.001   2.954   7.000  0.1513 -0.3136 -0.4801
  187SAPI   H4R21482   4.050   3.039   7.052 -1.4119  0.6187 -0.4642
  187SAPI   H4S21483   4.075   2.934   6.920 -0.0153  1.4939 -1.1219
  187SAPI   C2521484   3.994   2.837   7.089  0.6693  0.4380 -0.4087
  187SAPI   H5R21485   3.964   2.738   7.051 -0.7420  0.1988  1.2141
  187SAPI   C2621486   4.022   2.843   7.224 -0.0300  0.2767 -0.6929
  187SAPI   H6R21487   4.003   2.750   7.280 -0.5886 -1.1856 -3.1211
  187SAPI   C2721488   4.060   2.964   7.311  0.6418  0.6758  0.3928
  187SAPI   H7R21489   4.020   2.926   7.408 -1.1846 -1.9369 -1.2804
  187SAPI   H7S21490   4.016   3.061   7.282  0.9685  0.2016 -1.8142
  187SAPI   C2821491   4.204   2.976   7.315 -0.7844  0.5586  0.3477
  187SAPI   H8R21492   4.250   2.981   7.216 -3.0957  0.4725 -0.7916
  187SAPI   C2921493   4.297   2.965   7.418 -0.0938 -0.0053  0.6388
  187SAPI   H9R21494   4.403   2.983   7.394 -0.1938  1.3598  1.1338
  187SAPI  C21021495   4.260   2.956   7.565 -0.1588  0.0631 -0.0072
  187SAPI  H10R21496   4.212   2.858   7.589  2.2606 -0.9725  0.9156
  187SAPI  H10S21497   4.177   3.027   7.585 -1.3247 -0.7832 -1.6060
  187SAPI  C21121498   4.376   2.992   7.658 -0.2580 -0.4671 -0.1694
  187SAPI  H11R21499   4.433   3.084   7.640 -4.1372  2.2511  0.4254
  187SAPI  C21221500   4.403   2.917   7.774  0.5759 -0.2457  0.8556
  187SAPI  H12R21501   4.489   2.947   7.836  1.5253  0.3904 -0.7268
  187SAPI  C21321502   4.318   2.798   7.816 -1.1024 -0.5695 -0.6746
  187SAPI  H13R21503   4.341   2.726   7.735  1.0869  0.3836 -0.9651
  187SAPI  H13S21504   4.210   2.823   7.805 -0.7726  0.3565 -1.9471
  187SAPI  C21421505   4.339   2.736   7.955 -0.5288  0.8768 -0.6703
  187SAPI  H14R21506   4.297   2.801   8.034  0.2888 -0.8682  1.3069
  187SAPI  C21521507   4.398   2.622   8.004  0.0260 -0.3762 -1.1500
  187SAPI  H15R21508   4.387   2.622   8.113 -2.3049  1.8299 -1.2988
  187SAPI  C21621509   4.463   2.505   7.926 -0.0462  0.4336 -0.3870
  187SAPI  H16R21510   4.477   2.524   7.817 -0.6862  0.9100 -0.3950
  187SAPI  H16S21511   4.404   2.411   7.928  0.4681  0.1137  0.5613
  187SAPI  C21721512   4.590   2.452   7.996  0.5645 -0.6356 -0.5022
  187SAPI  H17R21513   4.670   2.526   7.972 -1.5447  1.3472 -1.8673
  187SAPI  H17S21514   4.610   2.350   7.955 -1.0921 -2.6715  3.3014
  187SAPI  C21821515   4.580   2.429   8.149 -0.0632  0.2756  0.2310
  187SAPI  H18R21516   4.487   2.370   8.167  0.1191  0.4369  1.8210
  187SAPI  H18S21517   4.580   2.525   8.205 -0.6620 -0.8544  2.2641
  187SAPI  C21921518   4.700   2.346   8.197  0.4813 -0.1583  0.6667
  187SAPI  H19R21519   4.797   2.385   8.158  0.0174  0.5786  0.2243
  187SAPI  H19S21520   4.686   2.242   8.159 -0.9169  0.0352  0.6166
  187SAPI  C22021521   4.706   2.339   8.349  0.2854  0.2781  0.1369
  187SAPI  H20R21522   4.603   2.303   8.374  0.6776 -0.3121  0.9411
  187SAPI  H20S21523   4.711   2.442   8.389  1.5022  1.0862 -1.9799
  187SAPI  H20T21524   4.792   2.277   8.381 -0.8925 -1.6380 -0.2427
  187SAPI   C3321525   4.294   3.383   6.990  0.7194  0.8292 -0.3723
  187SAPI   H3X21526   4.365   3.395   7.075 -0.1094 -1.5636  0.7511
  187SAPI   H3Y21527   4.325   3.305   6.917 -0.5176  1.3096 -1.4371
  187SAPI   C3421528   4.164   3.341   7.060  1.0561  0.8620 -0.2980
  187SAPI   H4X21529   4.183   3.258   7.131 -3.2751  1.0573  1.4013
  187SAPI   H4Y21530   4.094   3.318   6.977  1.4297  2.0580 -0.9796
  187SAPI   C3521531   4.093   3.459   7.134  0.4077  0.7518  0.2608
  187SAPI   H5X21532   3.995   3.431   7.178 -0.3526  4.0266  0.9171
  187SAPI   H5Y21533   4.073   3.535   7.055  0.1681 -1.4889 -1.9756
  187SAPI   C3621534   4.177   3.510   7.250  0.4374 -0.4530  0.0150
  187SAPI   H6X21535   4.129   3.596   7.300  0.6650  1.1962 -2.4247
  187SAPI   H6Y21536   4.272   3.552   7.209 -0.4658  0.1626 -1.5384
  187SAPI   C3721537   4.189   3.405   7.360  0.1373 -0.2732 -0.4040
  187SAPI   H7X21538   4.228   3.308   7.323  1.2206  0.1577 -0.4289
  187SAPI   H7Y21539   4.086   3.391   7.399  0.0888 -1.4946 -0.9534
  187SAPI   C3821540   4.277   3.448   7.483  0.7240  0.0699  0.1187
  187SAPI   H8X21541   4.227   3.533   7.535  1.1094  0.3517  0.0273
  187SAPI   H8Y21542   4.376   3.486   7.450  0.7575 -0.2250 -0.1270
  187SAPI   C3921543   4.297   3.341   7.588 -0.8839 -0.1728  0.0799
  187SAPI   H9X21544   4.378   3.274   7.552 -0.7783 -1.4689  2.5206
  187SAPI   H9Y21545   4.202   3.284   7.596 -0.8462 -0.1306  0.8558
  187SAPI  C31021546   4.346   3.406   7.718  0.6060 -0.1255 -0.0502
  187SAPI  H10X21547   4.264   3.475   7.746  0.0299 -0.4045 -1.0190
  187SAPI  H10Y21548   4.423   3.480   7.688 -1.3325  1.4121 -1.4780
  187SAPI  C31121549   4.387   3.303   7.822  0.2359  0.0142  0.1805
  187SAPI  H11X21550   4.479   3.249   7.792  0.3299  0.8859 -1.1974
  187SAPI  H11Y21551   4.314   3.219   7.818  0.5137 -0.3969  2.2841
  187SAPI  C31221552   4.411   3.343   7.965  0.6369 -0.6472 -0.4721
  187SAPI  H12X21553   4.321   3.402   7.991  0.0374 -1.8801  0.3637
  187SAPI  H12Y21554   4.505   3.401   7.973  2.7949 -3.9771  0.1873
  187SAPI  C31321555   4.401   3.232   8.070 -0.0172  0.0360  0.3033
  187SAPI  H13X21556   4.312   3.167   8.052 -0.0876  0.3405 -0.4473
  187SAPI  H13Y21557   4.378   3.285   8.165 -1.3965  3.7669 -1.8840
  187SAPI  C31421558   4.529   3.148   8.068  0.3450  0.8449 -0.3149
  187SAPI  H14X21559   4.623   3.204   8.087  0.8606 -0.2485  0.5067
  187SAPI  H14Y21560   4.544   3.102   7.968  2.6007 -0.6319  0.6199
  187SAPI  C31521561   4.516   3.028   8.163 -0.3594 -0.4784 -0.0035
  187SAPI  H15X21562   4.420   2.979   8.137 -1.7918  2.6307 -1.1010
  187SAPI  H15Y21563   4.527   3.064   8.267  0.8309 -1.2593  0.1523
  187SAPI  C31621564   4.636   2.929   8.151  0.1559  0.0573  0.0655
  187SAPI  H16X21565   4.720   2.997   8.176  0.6618 -0.4963 -0.1011
  187SAPI  H16Y21566   4.634   2.890   8.047 -1.6189 -2.6290  1.0087
  187SAPI  C31721567   4.623   2.816   8.252 -0.4970 -0.2169  0.5247
  187SAPI  H17X21568   4.534   2.753   8.232 -2.1458  2.0432  0.3939
  187SAPI  H17Y21569   4.604   2.858   8.353 -1.1080 -0.6259  0.5865
  187SAPI  C31821570   4.755   2.737   8.241  0.0690  0.4175  0.8534
  187SAPI  H18X21571   4.750   2.655   8.315 -1.5245  0.9035  1.3396
  187SAPI  H18Y21572   4.849   2.792   8.262  0.3076 -0.9099  3.6587
  187SAPI  H18Z21573   4.758   2.682   8.144  2.5179 -1.0425  1.6870
  188SAPI   C1221574   4.079   0.301   6.132  0.4396  0.0109  0.0956
  188SAPI    H221575   3.990   0.286   6.197 -1.6100 -0.7348 -2.6799
  188SAPI    O221576   4.078   0.197   6.041 -0.3727  0.3826  0.2401
  188SAPI   HO221577   4.091   0.116   6.091  0.5440  1.3043  1.5764
  188SAPI   C1321578   4.068   0.431   6.053  0.7421  0.6812 -0.4101
  188SAPI    H321579   4.092   0.512   6.126  1.6753 -0.2664  0.3763
  188SAPI    O321580   3.936   0.449   5.996  0.2928  0.0499 -0.5839
  188SAPI   HO321581   3.953   0.478   5.906 -0.1850  2.1235 -0.0419
  188SAPI   C1421582   4.187   0.452   5.965 -0.1390 -0.2911 -0.1641
  188SAPI    H421583   4.192   0.367   5.894 -0.6020 -0.5198  0.0780
  188SAPI    O421584   4.164   0.575   5.885  0.1487 -0.0684  0.5816
  188SAPI   HO421585   4.190   0.565   5.794  1.6972 -0.2174  1.0091
  188SAPI   C1521586   4.322   0.449   6.039  0.0798  0.2595 -1.1214
  188SAPI    H521587   4.328   0.529   6.115  0.3562 -1.0544  0.2952
  188SAPI    O521588   4.434   0.481   5.951  0.7339 -0.2898 -0.5454
  188SAPI   HO521589   4.453   0.575   5.955 -1.3932  0.2029 -0.8712
  188SAPI   C1621590   4.335   0.319   6.123  0.6715  0.1014  0.8006
  188SAPI    H621591   4.345   0.226   6.063  0.7253 -0.4292  1.6197
  188SAPI    O621592   4.455   0.325   6.200 -0.3274 -0.0766 -0.5232
  188SAPI   HO621593   4.447   0.411   6.242 -0.8517  0.2507 -1.2677
  188SAPI   C1121594   4.208   0.294   6.212  0.3829 -0.2105 -0.0972
  188SAPI    H121595   4.203   0.379   6.283 -0.6850  0.4111 -0.8806
  188SAPI     P21596   4.156   0.147   6.426  0.3470 -0.2198  0.0374
  188SAPI   O1321597   4.127   0.002   6.438 -0.0658  0.0108 -0.2114
  188SAPI   O1421598   4.051   0.246   6.448  0.0719  0.0316 -0.1051
  188SAPI   O1221599   4.230   0.174   6.280  0.3189  0.1779 -0.0484
  188SAPI   O1121600   4.263   0.181   6.539  0.2353 -0.8326  0.2447
  188SAPI    C121601   4.378   0.093   6.572  0.2959  0.1296 -0.2902
  188SAPI    HA21602   4.397   0.015   6.495  0.9494 -0.1000  0.0995
  188SAPI    HB21603   4.465   0.161   6.563 -0.3789  0.8483 -1.7133
  188SAPI    C221604   4.359   0.026   6.708 -0.2587  0.1173 -0.1004
  188SAPI    HS21605   4.269  -0.037   6.714  0.4445 -0.8252  4.7789
  188SAPI   O2121606   4.364   0.134   6.808  0.0594  0.3050 -0.1148
  188SAPI   C2121607   4.251   0.150   6.874  1.1071  0.0703 -0.4825
  188SAPI   O2221608   4.160   0.072   6.888  0.6135  0.3596 -0.0385
  188SAPI   C2221609   4.258   0.277   6.963 -0.1438 -0.3571 -0.1250
  188SAPI   H2R21610   4.365   0.276   6.994  0.5803 -0.5394 -2.3930
  188SAPI   H2S21611   4.232   0.371   6.909  0.0119  0.2441  0.8275
  188SAPI    C321612   4.476  -0.075   6.735  0.0334  0.3526  0.1783
  188SAPI    HX21613   4.568  -0.018   6.708  0.0398 -0.0847 -0.7604
  188SAPI    HY21614   4.458  -0.161   6.667  1.4804  0.9146 -0.9783
  188SAPI   O3121615   4.474  -0.119   6.877  0.0249  0.0213  0.3269
  188SAPI   C3121616   4.402  -0.233   6.898  0.0833  0.6181 -0.6510
  188SAPI   O3221617   4.323  -0.287   6.822  0.1813 -0.5004  0.4876
  188SAPI   C3221618   4.434  -0.269   7.047 -0.4412  0.1785  0.0241
  188SAPI   H2X21619   4.518  -0.206   7.081  1.0570 -1.1097 -1.1505
  188SAPI   H2Y21620   4.449  -0.379   7.044 -1.6158  0.0198 -1.8393
  188SAPI   C2321621   4.159   0.266   7.088 -0.4847  0.1669 -0.6756
  188SAPI   H3R21622   4.187   0.175   7.146 -0.5515  0.6044  0.0611
  188SAPI   H3S21623   4.060   0.242   7.043 -1.1728 -1.4002  1.5044
  188SAPI   C2421624   4.146   0.397   7.169 -0.3453 -0.0264 -0.3430
  188SAPI   H4R21625   4.062   0.398   7.242 -0.6760 -1.4624 -0.6765
  188SAPI   H4S21626   4.115   0.469   7.090 -1.6937  0.3944  0.5417
  188SAPI   C2521627   4.277   0.443   7.228  0.5422  0.2122  0.1145
  188SAPI   H5R21628   4.371   0.420   7.175  0.8728 -0.1732  0.8655
  188SAPI   C2621629   4.293   0.500   7.351  0.1305  0.8660 -0.4613
  188SAPI   H6R21630   4.389   0.532   7.394 -1.4078  2.2983  2.1566
  188SAPI   C2721631   4.180   0.531   7.444 -0.2408 -0.3020  0.2158
  188SAPI   H7R21632   4.086   0.548   7.388 -0.2481  0.8438  0.5501
  188SAPI   H7S21633   4.200   0.629   7.492  3.3755  0.0820 -1.7569
  188SAPI   C2821634   4.149   0.439   7.557 -0.1552  0.6588 -0.3991
  188SAPI   H8R21635   4.080   0.356   7.534  0.7929 -0.0790 -0.6812
  188SAPI   C2921636   4.197   0.446   7.688  0.4705  0.0445  0.4119
  188SAPI   H9R21637   4.172   0.365   7.758 -1.4249  1.9909  2.1108
  188SAPI  C21021638   4.301   0.542   7.741  0.4581  0.1714 -0.3262
  188SAPI  H10R21639   4.249   0.615   7.806  1.7473  0.4496  0.4249
  188SAPI  H10S21640   4.345   0.593   7.653 -2.0262 -0.6274 -2.1699
  188SAPI  C21121641   4.408   0.477   7.823  0.1757 -0.2930 -0.1835
  188SAPI  H11R21642   4.367   0.435   7.916  0.9611 -0.9079 -0.1062
  188SAPI  C21221643   4.541   0.470   7.804  0.0054  0.5872  0.4264
  188SAPI  H12R21644   4.615   0.425   7.871 -1.2928 -0.7139  1.0310
  188SAPI  C21321645   4.605   0.539   7.686 -0.7854 -0.5599  0.0915
  188SAPI  H13R21646   4.688   0.595   7.733 -1.7101 -0.5454  1.7734
  188SAPI  H13S21647   4.540   0.617   7.641 -0.9993 -1.2701 -0.8914
  188SAPI  C21421648   4.646   0.432   7.592  0.3083  0.5054  0.4687
  188SAPI  H14R21649   4.593   0.336   7.604  2.1018 -0.8748 -1.6882
  188SAPI  C21521650   4.728   0.451   7.488  0.0664 -0.8432  0.2555
  188SAPI  H15R21651   4.746   0.361   7.427  0.1381 -0.2500 -0.6103
  188SAPI  C21621652   4.794   0.577   7.443  0.4682 -0.6742 -0.2961
  188SAPI  H16R21653   4.884   0.551   7.383  1.7888 -0.1641  1.3862
  188SAPI  H16S21654   4.815   0.638   7.533  1.9434  2.3915 -2.5247
  188SAPI  C21721655   4.697   0.667   7.359  0.3208 -0.1087  0.5398
  188SAPI  H17R21656   4.739   0.770   7.371 -0.0170 -0.1253  2.0321
  188SAPI  H17S21657   4.598   0.686   7.406  1.0037  2.2124  1.2025
  188SAPI  C21821658   4.683   0.619   7.218 -0.1583  0.5941 -0.0957
  188SAPI  H18R21659   4.607   0.540   7.203 -1.3121  1.7612 -0.4882
  188SAPI  H18S21660   4.786   0.589   7.189 -0.6606  0.6164 -2.0222
  188SAPI  C21921661   4.634   0.733   7.128  0.8697  0.3515  0.3624
  188SAPI  H19R21662   4.655   0.694   7.026 -0.8820 -0.5413  0.3000
  188SAPI  H19S21663   4.694   0.822   7.155 -0.4460  1.2014  0.5668
  188SAPI  C22021664   4.485   0.768   7.141 -0.1099 -0.0215 -0.3307
  188SAPI  H20R21665   4.459   0.858   7.082 -2.3534  1.8522  3.1120
  188SAPI  H20S21666   4.463   0.787   7.249 -1.4871  2.0742 -0.9250
  188SAPI  H20T21667   4.419   0.689   7.100 -2.4902  2.2830 -1.2440
  188SAPI   C3321668   4.313  -0.224   7.134  0.3256  0.1758  0.0017
  188SAPI   H3X21669   4.219  -0.274   7.103  1.4125 -1.1994 -1.2395
  188SAPI   H3Y21670   4.284  -0.118   7.119 -1.3679 -0.0292  1.3998
  188SAPI   C3421671   4.353  -0.237   7.285 -0.5951  0.1162  0.1226
  188SAPI   H4X21672   4.271  -0.199   7.349 -1.7478 -0.9040 -0.7020
  188SAPI   H4Y21673   4.449  -0.180   7.283  0.2420 -1.2612 -0.9214
  188SAPI   C3521674   4.380  -0.385   7.326  0.1809 -0.1034 -0.3288
  188SAPI   H5X21675   4.459  -0.422   7.258  0.1732 -1.8657  0.5669
  188SAPI   H5Y21676   4.285  -0.441   7.323  0.7743 -1.1494 -0.0537
  188SAPI   C3621677   4.439  -0.397   7.468 -0.2547 -0.3448  0.5760
  188SAPI   H6X21678   4.529  -0.334   7.482  1.8500 -3.0282  0.0499
  188SAPI   H6Y21679   4.480  -0.500   7.466  2.8294  0.7185 -3.0632
  188SAPI   C3721680   4.351  -0.366   7.587  0.8599  0.3248 -0.1033
  188SAPI   H7X21681   4.259  -0.429   7.587  0.4850  0.7492  2.5632
  188SAPI   H7Y21682   4.313  -0.262   7.589 -0.3276 -0.1084  1.0928
  188SAPI   C3821683   4.424  -0.400   7.718  0.1286 -0.9467  0.5537
  188SAPI   H8X21684   4.504  -0.324   7.734 -0.3749 -0.4618  0.7913
  188SAPI   H8Y21685   4.459  -0.505   7.712 -1.9095 -1.6575  0.5169
  188SAPI   C3921686   4.340  -0.382   7.843  0.9221 -0.3538 -0.0982
  188SAPI   H9X21687   4.281  -0.474   7.860  1.6618 -0.8709 -0.2873
  188SAPI   H9Y21688   4.279  -0.289   7.832 -0.9370 -1.6022 -0.9029
  188SAPI  C31021689   4.430  -0.357   7.964  0.1162 -0.3784 -0.1224
  188SAPI  H10X21690   4.482  -0.259   7.961 -1.3144  0.4538  0.7900
  188SAPI  H10Y21691   4.501  -0.440   7.984 -0.1310 -0.7900 -0.9260
  188SAPI  C31121692   4.337  -0.328   8.089  0.3565 -0.2292 -0.4315
  188SAPI  H11X21693   4.308  -0.430   8.124  0.8159 -0.1871  0.0861
  188SAPI  H11Y21694   4.252  -0.271   8.047  0.0838 -1.4220 -1.5736
  188SAPI  C31221695   4.406  -0.243   8.200  0.0988 -0.0249 -0.2455
  188SAPI  H12X21696   4.329  -0.196   8.265 -0.0823 -0.2174 -0.3196
  188SAPI  H12Y21697   4.471  -0.159   8.166  0.7246 -0.0746  0.7705
  188SAPI  C31321698   4.506  -0.334   8.283  0.4059 -0.0334 -0.0358
  188SAPI  H13X21699   4.569  -0.273   8.350  1.2165 -0.5973 -0.2775
  188SAPI  H13Y21700   4.566  -0.390   8.208  2.1221 -0.3773  1.5486
  188SAPI  C31421701   4.432  -0.444   8.363 -0.0559  0.6949 -0.5987
  188SAPI  H14X21702   4.508  -0.504   8.416 -2.3617 -1.5847  0.3658
  188SAPI  H14Y21703   4.375  -0.513   8.296 -0.2466 -0.3741  0.6215
  188SAPI  C31521704   4.336  -0.384   8.458 -0.1443 -1.0300 -0.9217
  188SAPI  H15X21705   4.308  -0.465   8.530 -1.4153  0.2161  0.0396
  188SAPI  H15Y21706   4.244  -0.355   8.402  0.4365  0.3383 -1.1911
  188SAPI  C31621707   4.386  -0.264   8.543 -0.1985 -0.8026 -0.1567
  188SAPI  H16X21708   4.368  -0.167   8.491  0.7015 -1.1007 -1.0508
  188SAPI  H16Y21709   4.496  -0.265   8.555  0.1088 -0.2098 -2.4860
  188SAPI  C31721710   4.309  -0.259   8.682  0.2035  0.4516 -0.4775
  188SAPI  H17X21711   4.341  -0.343   8.748 -0.8764 -0.5518 -1.2081
  188SAPI  H17Y21712   4.201  -0.271   8.663  0.4377 -0.0009 -1.5995
  188SAPI  C31821713   4.339  -0.127   8.764  0.2245 -0.0778 -0.0395
  188SAPI  H18X21714   4.448  -0.126   8.781  0.3370 -1.7871 -0.4954
  188SAPI  H18Y21715   4.284  -0.112   8.859 -1.1381 -0.0510 -0.7951
  188SAPI  H18Z21716   4.309  -0.044   8.696  0.5815 -1.3861 -1.8625
  189POPC     N21717   3.071   3.310  10.965 -1.3235 -0.3692  0.0890
  189POPC   C1221718   3.191   3.342  11.053 -0.4829  0.0971  0.3073
  189POPC  H12A21719   3.151   3.395  11.138 -0.5693 -1.4916  1.2856
  189POPC  H12B21720   3.255   3.405  10.993 -2.2130 -0.4033 -2.2511
  189POPC   C1321721   3.105   3.251  10.830 -0.1590 -0.3793  0.0443
  189POPC  H13A21722   3.007   3.244  10.784 -0.2155  0.4105  0.0251
  189POPC  H13B21723   3.170   3.322  10.781 -1.8109 -0.2773 -2.1450
  189POPC  H13C21724   3.150   3.153  10.836  0.2213 -0.3378 -1.6570
  189POPC   C1421725   2.980   3.216  11.040 -0.4186 -0.2931 -0.2495
  189POPC  H14A21726   2.905   3.183  10.970  0.2517 -0.0552 -1.0887
  189POPC  H14B21727   3.028   3.125  11.075 -0.4742  0.6506  2.5357
  189POPC  H14C21728   2.942   3.262  11.130 -0.0836  0.1724 -0.3425
  189POPC   C1521729   3.000   3.445  10.949 -0.3394  0.4129 -0.0284
  189POPC  H15A21730   2.924   3.435  10.873  1.5027  1.2486 -2.0854
  189POPC  H15B21731   3.064   3.523  10.911 -0.1167  0.0178 -0.4618
  189POPC  H15C21732   2.967   3.494  11.040  4.5079  1.2670  1.5440
  189POPC   C1121733   3.283   3.221  11.098  0.3992  0.7134 -0.2637
  189POPC  H11A21734   3.220   3.151  11.157 -0.3476  0.6029 -1.1688
  189POPC  H11B21735   3.361   3.270  11.161  0.7454  2.4868 -1.9735
  189POPC     P21736   3.334   2.995  10.974  0.2573 -0.2087 -0.1816
  189POPC   O1321737   3.204   2.965  10.908  0.1555 -0.0378  0.1029
  189POPC   O1421738   3.352   2.934  11.106 -0.3237 -0.2195 -0.1260
  189POPC   O1221739   3.347   3.159  10.984 -0.2683 -0.2972 -0.5018
  189POPC   O1121740   3.451   2.949  10.876  0.3208  0.9405 -0.3198
  189POPC    C121741   3.515   3.025  10.782 -0.3906  0.0814  0.7524
  189POPC    HA21742   3.614   2.978  10.766  0.0480  0.6609  1.6480
  189POPC    HB21743   3.522   3.132  10.812 -1.5322  0.3079  0.2626
  189POPC    C221744   3.444   3.022  10.643 -0.0148 -0.4787  0.2544
  189POPC    HS21745   3.355   3.089  10.648 -0.4974 -0.7957 -2.3511
  189POPC   O2121746   3.409   2.890  10.610  0.6165  1.1467  0.0319
  189POPC   C2121747   3.287   2.871  10.557 -0.4687  0.2048 -0.0148
  189POPC   O2221748   3.204   2.961  10.557 -0.0798 -0.0912 -0.1075
  189POPC   C2221749   3.262   2.717  10.541  0.7823 -0.3048  0.1632
  189POPC   H2R21750   3.216   2.695  10.640 -2.5632 -1.0788 -1.4030
  189POPC   H2S21751   3.364   2.677  10.525  0.5656 -0.6370 -0.4110
  189POPC    C321752   3.538   3.085  10.535  0.3780 -0.3116  0.0075
  189POPC    HX21753   3.620   3.012  10.522 -0.1693 -1.0063  0.3516
  189POPC    HY21754   3.582   3.178  10.577 -0.3058 -1.1098  2.7715
  189POPC   O3121755   3.472   3.101  10.412 -0.2707 -1.1377 -0.0955
  189POPC   C3121756   3.412   3.215  10.403  0.1368 -0.0130  0.5273
  189POPC   O3221757   3.414   3.306  10.480  0.3952  0.2762  0.3540
  189POPC   C3221758   3.351   3.226  10.266 -0.3790  0.4509 -0.0022
  189POPC   H2X21759   3.432   3.217  10.189 -0.2726  0.2598  0.1321
  189POPC   H2Y21760   3.289   3.318  10.266 -1.9060 -0.4498 -2.8254
  189POPC   C2321761   3.154   2.677  10.426 -1.0575  0.0725  0.0636
  189POPC   H3R21762   3.052   2.700  10.463 -1.7877 -0.8575 -1.2754
  189POPC   H3S21763   3.156   2.566  10.429 -1.7348  0.0481 -0.1353
  189POPC   C2421764   3.167   2.738  10.292  0.1410  0.0809  0.6040
  189POPC   H4R21765   3.269   2.730  10.247  0.2143  2.6212  0.1886
  189POPC   H4S21766   3.162   2.848  10.282  2.2355  0.0356 -1.9035
  189POPC   C2521767   3.054   2.687  10.203 -0.0385 -0.5946  0.2720
  189POPC   H5R21768   2.963   2.724  10.255  2.1636 -1.0535  5.0148
  189POPC   H5S21769   3.057   2.576  10.208  2.3629 -0.5373  1.5809
  189POPC   C2621770   3.063   2.734  10.048 -0.3405 -0.2392 -0.5768
  189POPC   H6R21771   3.169   2.731  10.016  0.0690 -0.0050  0.7027
  189POPC   H6S21772   3.045   2.844  10.050 -1.7363 -0.4359  1.8323
  189POPC   C2721773   2.966   2.666   9.945 -0.0204 -0.3650 -0.0132
  189POPC   H7R21774   2.868   2.644   9.993  1.2116  1.5009  3.7889
  189POPC   H7S21775   3.014   2.569   9.920  2.6443  0.8096  0.1683
  189POPC   C2821776   2.957   2.744   9.814 -0.2919 -0.3349 -0.0543
  189POPC   H8R21777   3.062   2.766   9.783 -1.0029  0.3114 -2.1463
  189POPC   H8S21778   2.908   2.843   9.829 -1.5544 -0.9871  0.2780
  189POPC   C2921779   2.878   2.666   9.717  0.2664  1.0266  0.0405
  189POPC   H9121780   2.778   2.637   9.753 -0.0532  1.3444 -0.5706
  189POPC  C21021781   2.914   2.626   9.591 -0.2538 -0.1225  0.1402
  189POPC  H10121782   2.840   2.575   9.528 -0.3783  2.8097 -2.2961
  189POPC  C21121783   3.047   2.665   9.517 -0.1002  0.5095  0.1716
  189POPC  H11R21784   3.121   2.605   9.574  0.2875 -1.1985 -2.0097
  189POPC  H11S21785   3.057   2.775   9.534 -4.2223  1.0054  0.3906
  189POPC  C21221786   3.064   2.626   9.374 -0.4230  0.2306  0.4041
  189POPC  H12R21787   3.027   2.521   9.369  0.1662 -0.0369  1.3456
  189POPC  H12S21788   3.170   2.640   9.346 -0.2788 -0.0705  0.7931
  189POPC  C21321789   2.977   2.702   9.271 -0.3003  0.1739 -0.3376
  189POPC  H13R21790   3.011   2.807   9.271 -1.8268  0.7074 -1.0825
  189POPC  H13S21791   2.873   2.703   9.310  0.0157 -2.8055  0.9006
  189POPC  C21421792   2.995   2.661   9.120  0.4913 -0.2509  0.1277
  189POPC  H14R21793   2.927   2.717   9.052 -1.7663 -1.6475  1.1649
  189POPC  H14S21794   2.971   2.553   9.117  1.4870 -0.4896 -2.1407
  189POPC  C21521795   3.141   2.681   9.072  0.5482 -0.4301  0.4051
  189POPC  H15R21796   3.206   2.617   9.136  1.6862 -0.0262 -0.3212
  189POPC  H15S21797   3.169   2.787   9.092  0.4276  0.0070 -1.5598
  189POPC  C21621798   3.169   2.636   8.925 -0.2587 -0.3059  0.1216
  189POPC  H16R21799   3.100   2.550   8.913 -0.7299 -0.3040  2.3673
  189POPC  H16S21800   3.276   2.613   8.903 -0.5050 -0.9754 -0.4214
  189POPC  C21721801   3.134   2.743   8.827 -0.2445  0.4302 -0.5120
  189POPC  H17R21802   3.213   2.820   8.839  2.1740 -1.8743 -0.8807
  189POPC  H17S21803   3.037   2.795   8.846 -0.3565 -0.5340  1.9534
  189POPC  C21821804   3.134   2.695   8.683 -0.0216  0.2009  0.1390
  189POPC  H18R21805   3.076   2.604   8.659 -0.8104  0.4946  0.8974
  189POPC  H18S21806   3.242   2.670   8.668  0.1203  0.0036  1.4460
  189POPC  H18T21807   3.093   2.772   8.614 -0.4786 -2.1632 -2.4061
  189POPC   C3321808   3.258   3.115  10.232 -0.0884  0.8716  0.5290
  189POPC   H3X21809   3.154   3.130  10.269 -0.7758  1.2193 -1.4403
  189POPC   H3Y21810   3.296   3.015  10.262 -2.9698 -0.7162 -0.6577
  189POPC   C3421811   3.236   3.099  10.085 -0.3680 -0.8283  0.2431
  189POPC   H4X21812   3.162   3.016  10.077  0.4031 -1.4985 -0.0620
  189POPC   H4Y21813   3.328   3.067  10.031 -0.8593 -1.2151 -0.3781
  189POPC   C3521814   3.169   3.218  10.028 -0.3506 -0.2039 -0.0311
  189POPC   H5X21815   3.213   3.320  10.030  1.6520 -1.0149 -0.4341
  189POPC   H5Y21816   3.073   3.228  10.083  1.4086  0.7794  3.0958
  189POPC   C3621817   3.141   3.202   9.875  0.1552 -0.1731 -0.5590
  189POPC   H6X21818   3.243   3.192   9.832  0.3222  2.7001 -1.0330
  189POPC   H6Y21819   3.103   3.300   9.840 -0.8572 -0.9284 -1.6517
  189POPC   C3721820   3.035   3.102   9.828  0.6505  0.0751 -1.0174
  189POPC   H7X21821   2.941   3.112   9.886  0.8086 -1.4455 -0.4580
  189POPC   H7Y21822   3.069   2.999   9.852  2.7909  0.8142 -0.7031
  189POPC   C3821823   3.015   3.117   9.680  0.1235  0.2788 -0.1029
  189POPC   H8X21824   2.961   3.207   9.643  1.6030  0.9930 -0.5821
  189POPC   H8Y21825   2.953   3.035   9.639  1.0597  0.2553 -1.5391
  189POPC   C3921826   3.151   3.111   9.604  0.0615  0.0348 -0.1851
  189POPC   H9X21827   3.202   3.025   9.652 -0.4485  0.4528  1.1805
  189POPC   H9Y21828   3.196   3.211   9.624 -3.5263  2.0409 -1.2203
  189POPC  C31021829   3.133   3.087   9.458 -0.3039  0.6919  0.3130
  189POPC  H10X21830   3.071   2.998   9.435  0.1020  0.8481 -1.5301
  189POPC  H10Y21831   3.227   3.082   9.398 -0.3066  0.5834  0.3188
  189POPC  C31121832   3.051   3.200   9.384 -0.7950 -0.2057  0.6510
  189POPC  H11X21833   3.092   3.303   9.388 -1.1101 -0.1147  1.6735
  189POPC  H11Y21834   2.953   3.213   9.435 -0.9628  0.7664  0.1018
  189POPC  C31221835   3.012   3.157   9.241 -0.6953  0.3362 -0.3917
  189POPC  H12X21836   2.941   3.234   9.204  0.1721  0.4180 -1.9396
  189POPC  H12Y21837   2.964   3.057   9.251 -2.4093  1.0710 -0.9165
  189POPC  C31321838   3.140   3.155   9.148  0.0919 -0.4393 -0.2215
  189POPC  H13X21839   3.213   3.081   9.188 -1.1838 -1.0305  1.0848
  189POPC  H13Y21840   3.173   3.261   9.150  2.7254 -1.1500 -1.1289
  189POPC  C31421841   3.106   3.122   9.003 -0.4388  0.3812 -0.1589
  189POPC  H14X21842   3.045   3.029   9.000 -0.2782  0.3125 -2.2996
  189POPC  H14Y21843   3.200   3.102   8.949 -1.0093 -1.0793 -0.6693
  189POPC  C31521844   3.011   3.221   8.930 -0.3880  0.4755  0.2283
  189POPC  H15X21845   3.060   3.320   8.934 -0.4148  0.4361  2.1757
  189POPC  H15Y21846   2.919   3.238   8.989 -0.0509  0.9120  0.6307
  189POPC  C31621847   2.974   3.192   8.786 -0.3231  0.0270 -0.3076
  189POPC  H16X21848   3.064   3.148   8.738 -2.5127 -2.0026 -2.8462
  189POPC  H16Y21849   2.935   3.284   8.736  0.2373 -0.3654 -1.4883
  189POPC  H16Z21850   2.887   3.123   8.783 -0.4601  0.2293 -1.3058
  190POPC     N21851   4.079   4.836  11.210  0.0496 -0.4030  0.1735
  190POPC   C1221852   4.013   4.898  11.082  0.3442  0.1260  0.2647
  190POPC  H12A21853   3.926   4.957  11.109 -0.3200 -0.6364 -0.1745
  190POPC  H12B21854   3.972   4.820  11.020 -1.4474  0.5219  0.8879
  190POPC   C1321855   4.147   4.932  11.307  0.0971 -0.5714  0.1261
  190POPC  H13A21856   4.059   4.966  11.360 -1.8047 -2.0940 -1.8781
  190POPC  H13B21857   4.217   4.884  11.374 -0.0841  1.0202  1.5133
  190POPC  H13C21858   4.183   5.016  11.250 -2.5077 -0.8029 -2.0521
  190POPC   C1421859   3.978   4.752  11.284  0.0001 -0.8760 -0.2427
  190POPC  H14A21860   3.935   4.674  11.223 -0.9366 -1.4599  1.1225
  190POPC  H14B21861   4.014   4.706  11.375 -0.2166 -0.5987 -0.0148
  190POPC  H14C21862   3.889   4.806  11.313 -0.6018 -1.7540 -0.4181
  190POPC   C1521863   4.191   4.741  11.159  0.7834 -0.0229 -0.2048
  190POPC  H15A21864   4.273   4.794  11.113  0.2507 -0.2877 -1.4964
  190POPC  H15B21865   4.155   4.661  11.096  0.0192  1.5282 -1.8147
  190POPC  H15C21866   4.243   4.691  11.239  0.9612 -0.5361 -0.6413
  190POPC   C1121867   4.111   4.973  10.986 -0.4919 -0.6967  0.1396
  190POPC  H11A21868   4.054   5.003  10.896  0.2810  3.3369  0.7942
  190POPC  H11B21869   4.193   4.906  10.956 -0.2749  0.1048 -1.1193
  190POPC     P21870   4.120   5.229  11.059 -0.1125  0.0207  0.1189
  190POPC   O1321871   4.188   5.304  11.166  0.3427  0.3677 -0.7158
  190POPC   O1421872   3.967   5.219  11.053 -0.5458 -0.6097 -0.0093
  190POPC   O1221873   4.181   5.080  11.058 -0.4409 -0.1532  0.2970
  190POPC   O1121874   4.162   5.283  10.919 -0.6258  0.1278  0.9607
  190POPC    C121875   4.292   5.326  10.883  0.4292 -0.1447  0.0558
  190POPC    HA21876   4.368   5.302  10.960  2.1869  2.2810 -0.8013
  190POPC    HB21877   4.298   5.437  10.878 -0.1750 -0.0230  1.5363
  190POPC    C221878   4.344   5.269  10.747 -0.6898 -0.0958 -0.1984
  190POPC    HS21879   4.449   5.303  10.741 -0.4104 -0.9318 -0.2444
  190POPC   O2121880   4.256   5.310  10.643  0.6447 -0.1948 -0.3194
  190POPC   C2121881   4.312   5.309  10.525 -0.3057  0.0977  0.0109
  190POPC   O2221882   4.434   5.316  10.505  0.1826  0.0741 -0.4583
  190POPC   C2221883   4.208   5.315  10.424 -0.2362 -0.8659  0.8560
  190POPC   H2R21884   4.125   5.381  10.457 -1.2571 -1.1453 -0.9949
  190POPC   H2S21885   4.169   5.211  10.427 -1.9595 -0.2235  2.5028
  190POPC    C321886   4.356   5.114  10.763 -0.1132  0.1129 -0.6262
  190POPC    HX21887   4.249   5.088  10.776  0.2957 -0.9814  0.8655
  190POPC    HY21888   4.401   5.083  10.860 -0.6933  2.0053  0.2870
  190POPC   O3121889   4.431   5.055  10.647  0.6251 -0.3138  0.1234
  190POPC   C3121890   4.390   4.933  10.616  0.3843  0.4364 -0.5650
  190POPC   O3221891   4.312   4.868  10.687 -0.0658 -0.0064 -0.2288
  190POPC   C3221892   4.448   4.883  10.484 -0.0604 -0.0308  0.4669
  190POPC   H2X21893   4.397   4.788  10.461  0.5388 -0.5550  1.2334
  190POPC   H2Y21894   4.556   4.860  10.497  0.3669  0.7251 -1.4371
  190POPC   C2321895   4.254   5.355  10.281 -0.1736  0.0671  0.1724
  190POPC   H3R21896   4.353   5.317  10.248  0.3331  0.1117  1.5934
  190POPC   H3S21897   4.236   5.463  10.262 -1.1687  0.2599  1.9854
  190POPC   C2421898   4.149   5.292  10.183  0.2402 -0.0367  0.1190
  190POPC   H4R21899   4.058   5.340  10.227  0.0895 -0.4683  0.2853
  190POPC   H4S21900   4.143   5.187  10.218  0.6615 -0.2761 -0.5208
  190POPC   C2521901   4.168   5.316  10.039  0.3082 -0.2705 -0.1553
  190POPC   H5R21902   4.239   5.234  10.012  2.0225  0.2276  2.4409
  190POPC   H5S21903   4.209   5.416  10.012  1.3736 -0.9459 -1.1802
  190POPC   C2621904   4.045   5.268   9.955  0.3438 -0.0717  0.6451
  190POPC   H6R21905   3.970   5.339   9.996  0.4279  0.9618 -0.8960
  190POPC   H6S21906   4.012   5.164   9.974 -4.2042  0.8666 -0.8461
  190POPC   C2721907   4.063   5.308   9.802 -0.5636  0.1372 -0.2251
  190POPC   H7R21908   4.170   5.299   9.773 -0.1775  0.1094  1.1755
  190POPC   H7S21909   4.031   5.415   9.802 -2.0001 -0.2205 -2.0515
  190POPC   C2821910   3.956   5.248   9.713  0.3737 -0.2618  0.6393
  190POPC   H8R21911   3.967   5.294   9.612  3.3141 -0.5044  0.7727
  190POPC   H8S21912   3.856   5.278   9.751  1.1217  1.0691  1.6552
  190POPC   C2921913   3.956   5.099   9.706 -0.6363  0.7717 -0.2086
  190POPC   H9121914   4.050   5.058   9.746 -2.0282 -1.2986  1.1367
  190POPC  C21021915   3.864   5.008   9.671 -0.1956 -0.5073 -0.1945
  190POPC  H10121916   3.872   4.898   9.663  0.1749 -0.3591 -5.5962
  190POPC  C21121917   3.730   5.049   9.620  1.0266  0.2890  0.3044
  190POPC  H11R21918   3.712   5.155   9.650  2.9125  0.0715  2.5607
  190POPC  H11S21919   3.655   4.990   9.677 -1.2152  0.9287 -1.8476
  190POPC  C21221920   3.720   5.027   9.469  0.1711  0.4904 -0.8119
  190POPC  H12R21921   3.618   5.051   9.431  0.7808  3.4183 -0.7713
  190POPC  H12S21922   3.740   4.921   9.439 -1.9752  0.1980 -1.4337
  190POPC  C21321923   3.796   5.121   9.383  0.4035 -0.0468  0.0521
  190POPC  H13R21924   3.906   5.109   9.391  0.4517 -0.0960 -0.6221
  190POPC  H13S21925   3.769   5.221   9.424 -0.3259 -0.6935  1.2387
  190POPC  C21421926   3.748   5.126   9.235  0.1345  0.2633  0.8697
  190POPC  H14R21927   3.648   5.174   9.237 -0.5208 -0.4817 -3.3116
  190POPC  H14S21928   3.720   5.028   9.191 -0.2037  0.3199  0.9574
  190POPC  C21521929   3.849   5.200   9.145  0.6032  0.0132  0.2711
  190POPC  H15R21930   3.934   5.134   9.119  0.8342  1.1422 -2.1265
  190POPC  H15S21931   3.893   5.288   9.197  1.9023 -0.1921 -0.4578
  190POPC  C21621932   3.798   5.243   9.013  0.7105 -0.0517  0.4522
  190POPC  H16R21933   3.707   5.307   9.023  1.5397  1.3413 -0.4236
  190POPC  H16S21934   3.767   5.144   8.974  0.2181 -0.7740  2.5702
  190POPC  C21721935   3.904   5.308   8.921 -0.1773 -0.4982 -0.4488
  190POPC  H17R21936   3.980   5.230   8.898  0.4589 -0.2631  0.7718
  190POPC  H17S21937   3.957   5.387   8.978 -3.0505  1.1801  0.0699
  190POPC  C21821938   3.850   5.365   8.786 -0.0207  0.6293  0.3989
  190POPC  H18R21939   3.939   5.389   8.724  0.3171  0.8512  0.9635
  190POPC  H18S21940   3.796   5.460   8.805  2.5562  2.6054 -1.3605
  190POPC  H18T21941   3.769   5.302   8.744 -0.2976  2.3617 -1.8771
  190POPC   C3321942   4.437   4.998  10.371  0.5369 -0.8810 -0.7292
  190POPC   H3X21943   4.507   5.080  10.397 -0.6208  0.4956 -1.8299
  190POPC   H3Y21944   4.333   5.035  10.383 -0.5512 -3.6964 -0.5442
  190POPC   C3421945   4.459   4.932  10.232  0.1840 -0.2391  0.5692
  190POPC   H4X21946   4.417   4.829  10.232  1.4514 -0.7924 -0.4980
  190POPC   H4Y21947   4.570   4.921  10.227  0.2750  0.1376  1.5209
  190POPC   C3521948   4.402   5.013  10.116  0.1268 -0.4312 -0.4276
  190POPC   H5X21949   4.449   5.114  10.124  0.8488 -0.7680 -0.2713
  190POPC   H5Y21950   4.292   5.026  10.124  0.0407  0.8292 -2.7350
  190POPC   C3621951   4.426   4.952   9.974  0.2320  0.4597 -0.6693
  190POPC   H6X21952   4.395   4.845   9.973  1.7857 -0.0432  0.6477
  190POPC   H6Y21953   4.537   4.941   9.976  0.3631  1.7404 -0.1321
  190POPC   C3721954   4.377   5.035   9.858 -0.5308 -0.4770  0.8119
  190POPC   H7X21955   4.391   5.145   9.855 -1.6424 -0.3520 -0.3824
  190POPC   H7Y21956   4.270   5.011   9.838 -0.3829 -0.0297 -0.6452
  190POPC   C3821957   4.454   4.989   9.730  0.0941 -0.2113 -0.6656
  190POPC   H8X21958   4.466   4.879   9.729  1.1394 -0.1082 -0.9317
  190POPC   H8Y21959   4.548   5.049   9.740  0.0481 -0.1128 -0.8280
  190POPC   C3921960   4.372   5.021   9.608 -0.5300 -0.1691 -0.7713
  190POPC   H9X21961   4.332   5.124   9.620  0.8687  0.2643  0.4623
  190POPC   H9Y21962   4.295   4.942   9.608  1.3722 -2.1163 -0.8524
  190POPC  C31021963   4.449   5.010   9.476  0.2254 -0.3825 -0.2017
  190POPC  H10X21964   4.494   4.909   9.462 -1.5010 -1.0419 -1.3514
  190POPC  H10Y21965   4.533   5.081   9.493 -0.2279 -0.2210  1.5010
  190POPC  C31121966   4.356   5.055   9.364 -0.0053 -0.0409  0.1426
  190POPC  H11X21967   4.292   5.134   9.407  1.7658  0.2147  2.5188
  190POPC  H11Y21968   4.303   4.970   9.316 -0.9007  0.5145  0.1446
  190POPC  C31221969   4.445   5.128   9.259 -0.0442  0.3980  0.5589
  190POPC  H12X21970   4.510   5.047   9.219  0.9355  2.1104 -1.4862
  190POPC  H12Y21971   4.491   5.216   9.309  1.2250  1.3908 -2.1890
  190POPC  C31321972   4.365   5.175   9.133  0.5004 -0.3236 -0.0959
  190POPC  H13X21973   4.337   5.084   9.076 -0.7472 -0.0851  0.1108
  190POPC  H13Y21974   4.438   5.234   9.073 -1.2860  1.4285 -0.6319
  190POPC  C31421975   4.244   5.257   9.169  0.7800 -0.2598 -0.2266
  190POPC  H14X21976   4.185   5.203   9.247 -0.0913  1.2660  0.2100
  190POPC  H14Y21977   4.183   5.253   9.076  2.2741 -0.8507 -1.2143
  190POPC  C31521978   4.264   5.396   9.234 -0.3719  0.6316  0.0065
  190POPC  H15X21979   4.307   5.465   9.158  0.4058 -1.7976 -1.9078
  190POPC  H15Y21980   4.331   5.392   9.322  0.9669 -1.0030 -1.0383
  190POPC  C31621981   4.137   5.465   9.267 -0.1836  0.2989  0.3177
  190POPC  H16X21982   4.071   5.471   9.178 -0.6310 -0.2709  0.6017
  190POPC  H16Y21983   4.157   5.572   9.288 -2.3041  0.7208  0.4161
  190POPC  H16Z21984   4.095   5.415   9.357  1.1223 -1.7356 -0.1376
  191POPC     N21985   6.047   6.259   6.129  0.0518  0.3424 -0.0882
  191POPC   C1221986   6.162   6.348   6.118 -0.8671 -0.6199  0.3845
  191POPC  H12A21987   6.125   6.448   6.099 -2.5849 -1.4321 -0.8437
  191POPC  H12B21988   6.217   6.314   6.032 -1.0209 -0.9072  0.3999
  191POPC   C1321989   6.074   6.110   6.116 -0.1428 -0.1303  0.0778
  191POPC  H13A21990   6.140   6.076   6.194  1.3734 -0.0807 -1.1271
  191POPC  H13B21991   5.994   6.037   6.114 -0.4605  0.1959 -1.9127
  191POPC  H13C21992   6.126   6.097   6.022  0.9060 -2.5561  0.9203
  191POPC   C1421993   5.974   6.284   6.258 -0.8326 -0.8497  0.1899
  191POPC  H14A21994   5.883   6.231   6.282 -1.2719  0.3984  1.4358
  191POPC  H14B21995   6.038   6.274   6.345  0.9584 -0.8615 -1.0952
  191POPC  H14C21996   5.952   6.389   6.252  0.1704 -0.6885 -1.0871
  191POPC   C1521997   5.950   6.300   6.015  0.0154 -0.6253 -0.6835
  191POPC  H15A21998   5.994   6.277   5.919  1.6976 -2.9998  0.5423
  191POPC  H15B21999   5.917   6.402   6.021 -1.8292 -1.2504  0.6869
  191POPC  H15C22000   5.860   6.240   6.011  0.8140 -1.8325 -1.3388
  191POPC   C1122001   6.260   6.359   6.234  0.2809  0.4119 -0.3070
  191POPC  H11A22002   6.202   6.409   6.314 -1.2063 -1.3471 -0.2173
  191POPC  H11B22003   6.344   6.425   6.201  0.6296 -0.3858 -1.0561
  191POPC     P22004   6.308   6.182   6.421  0.0608  0.2031  0.2841
  191POPC   O1322005   6.183   6.126   6.475 -0.3250  0.0647 -0.2646
  191POPC   O1422006   6.368   6.292   6.496  0.2199 -0.0182 -0.5866
  191POPC   O1222007   6.308   6.227   6.270 -0.2035 -0.0467  0.0801
  191POPC   O1122008   6.415   6.064   6.406  0.3889  0.2858  0.2203
  191POPC    C122009   6.375   5.931   6.428 -1.0016  0.9367  0.9091
  191POPC    HA22010   6.396   5.863   6.343  1.9510  0.5821  1.8011
  191POPC    HB22011   6.266   5.913   6.442 -0.7857 -2.9862 -1.0543
  191POPC    C222012   6.459   5.872   6.538  0.5089  0.1316 -0.7821
  191POPC    HS22013   6.478   5.763   6.524 -1.0348 -0.3387  0.5517
  191POPC   O2122014   6.400   5.886   6.668 -0.0827  0.0568  0.1073
  191POPC   C2122015   6.290   5.821   6.698 -0.6181  0.3362 -0.0939
  191POPC   O2222016   6.240   5.734   6.625  0.1843  0.0053  0.5306
  191POPC   C2222017   6.239   5.865   6.831  0.3454 -0.0701 -0.4557
  191POPC   H2R22018   6.190   5.964   6.830 -0.4917 -0.4781 -0.9140
  191POPC   H2S22019   6.330   5.881   6.892  3.1417 -1.8753 -3.7993
  191POPC    C322020   6.602   5.938   6.538 -0.1679 -0.6415 -1.1664
  191POPC    HX22021   6.583   6.039   6.581  2.6056 -0.1797 -0.7726
  191POPC    HY22022   6.634   5.936   6.432 -0.3988 -0.4632 -1.2393
  191POPC   O3122023   6.685   5.860   6.631 -0.7285  0.0052 -0.1851
  191POPC   C3122024   6.818   5.898   6.624 -0.3716  0.0131 -0.8234
  191POPC   O3222025   6.861   5.980   6.551 -0.0740 -0.0467  0.0208
  191POPC   C3222026   6.897   5.831   6.735  0.0253  0.1040  0.3138
  191POPC   H2X22027   6.942   5.747   6.678 -1.1640 -1.4855  1.5972
  191POPC   H2Y22028   6.835   5.783   6.814 -0.2765 -1.3807 -0.7970
  191POPC   C2322029   6.140   5.765   6.893 -0.5006  0.3980 -0.5088
  191POPC   H3R22030   6.181   5.665   6.872 -0.6249  0.4740 -1.1246
  191POPC   H3S22031   6.042   5.768   6.839 -0.2586  2.2387 -0.9160
  191POPC   C2422032   6.117   5.789   7.046  0.1842  0.0465 -0.4655
  191POPC   H4R22033   6.067   5.887   7.058  0.9559  0.5403 -1.1424
  191POPC   H4S22034   6.212   5.787   7.103 -0.9700 -0.9587  1.5274
  191POPC   C2522035   6.016   5.686   7.100 -0.3445 -0.3828 -0.2059
  191POPC   H5R22036   6.057   5.595   7.149 -1.1144 -1.1168 -0.8797
  191POPC   H5S22037   5.954   5.636   7.022  0.5122 -0.7147 -0.6842
  191POPC   C2622038   5.927   5.731   7.212  0.3587 -0.0004  0.1578
  191POPC   H6R22039   5.849   5.652   7.219 -0.7070  0.5912 -3.1976
  191POPC   H6S22040   5.874   5.824   7.184  0.9363  0.0294 -0.8926
  191POPC   C2722041   5.998   5.749   7.348 -0.2029 -0.8254  0.3937
  191POPC   H7R22042   6.092   5.806   7.332  0.3717 -1.2679  1.9924
  191POPC   H7S22043   6.022   5.645   7.380  0.6325 -0.5619  0.6442
  191POPC   C2822044   5.913   5.822   7.457 -0.5945 -0.6837 -0.0114
  191POPC   H8R22045   5.901   5.927   7.423  0.6341 -0.5911 -0.1883
  191POPC   H8S22046   5.985   5.823   7.541 -0.5097 -0.9241 -0.0811
  191POPC   C2922047   5.783   5.755   7.494 -0.2350  0.4708 -0.3562
  191POPC   H9122048   5.744   5.695   7.411  0.5792  1.6897 -1.6600
  191POPC  C21022049   5.704   5.773   7.603  0.0877  0.0721 -0.7752
  191POPC  H10122050   5.610   5.716   7.614  0.7683 -0.7387  1.7461
  191POPC  C21122051   5.725   5.880   7.715 -0.0875 -0.4541  0.7367
  191POPC  H11R22052   5.654   5.964   7.696 -0.8974 -1.6755 -2.2488
  191POPC  H11S22053   5.827   5.921   7.699 -0.4187  0.8987  1.8648
  191POPC  C21222054   5.707   5.828   7.855  0.2538 -0.3427 -1.0610
  191POPC  H12R22055   5.743   5.907   7.924  0.2291  0.0093 -1.4424
  191POPC  H12S22056   5.769   5.741   7.884  0.1623  0.1544  0.7262
  191POPC  C21322057   5.554   5.793   7.895 -0.2035 -0.0128  0.1053
  191POPC  H13R22058   5.519   5.726   7.814  0.8374  0.2814 -0.6126
  191POPC  H13S22059   5.501   5.890   7.880  0.0003  0.0536 -0.2045
  191POPC  C21422060   5.540   5.741   8.036  0.1255 -0.2315 -0.2943
  191POPC  H14R22061   5.429   5.732   8.039  0.2565 -2.9352 -0.6375
  191POPC  H14S22062   5.569   5.824   8.104 -0.3131  1.3685 -1.9808
  191POPC  C21522063   5.599   5.603   8.060 -0.1107  0.0237 -0.5455
  191POPC  H15R22064   5.709   5.614   8.065 -0.2365  2.5253 -1.7656
  191POPC  H15S22065   5.566   5.534   7.979  1.3440 -1.9219  0.4556
  191POPC  C21622066   5.538   5.540   8.188 -0.1943  0.0568 -0.3996
  191POPC  H16R22067   5.427   5.533   8.176 -0.1078  0.0924 -1.2234
  191POPC  H16S22068   5.564   5.607   8.273  0.3472  0.1953 -0.6758
  191POPC  C21722069   5.599   5.404   8.221 -0.1894  0.1028  0.3590
  191POPC  H17R22070   5.707   5.428   8.236 -0.5592  1.2384  1.3585
  191POPC  H17S22071   5.583   5.341   8.131 -0.0551  2.4300 -1.3743
  191POPC  C21822072   5.541   5.335   8.345  0.2739 -0.2337 -0.0231
  191POPC  H18R22073   5.596   5.239   8.354  2.3430  1.0799  5.7584
  191POPC  H18S22074   5.433   5.320   8.326  0.1015  1.6488 -0.7321
  191POPC  H18T22075   5.569   5.393   8.436 -0.9646 -1.4847  1.1992
  191POPC   C3322076   7.001   5.919   6.807  0.3017  0.2846  0.2055
  191POPC   H3X22077   7.077   5.956   6.735  0.2077  0.8291  0.3790
  191POPC   H3Y22078   7.065   5.863   6.878 -1.7230 -0.6391  1.3948
  191POPC   C3422079   6.925   6.035   6.874 -0.0903  0.2718 -0.6387
  191POPC   H4X22080   6.879   5.991   6.965  1.8482 -2.5134 -0.8623
  191POPC   H4Y22081   6.859   6.071   6.793 -0.4185  1.1742  0.0050
  191POPC   C3522082   7.017   6.151   6.925 -0.2908  0.3276  0.1526
  191POPC   H5X22083   6.957   6.244   6.913 -0.7511  0.2079  1.3981
  191POPC   H5Y22084   7.094   6.162   6.846 -2.3946  0.8297 -1.9580
  191POPC   C3622085   7.075   6.129   7.061 -0.4064  0.0529 -0.0427
  191POPC   H6X22086   7.124   6.029   7.069 -2.2722 -0.8465  0.5958
  191POPC   H6Y22087   6.996   6.128   7.139  0.3234  2.1981  0.7813
  191POPC   C3722088   7.172   6.241   7.096 -0.9254 -0.4683 -0.9364
  191POPC   H7X22089   7.115   6.334   7.119  0.5136  0.2986 -0.3169
  191POPC   H7Y22090   7.249   6.261   7.019 -0.3156  0.8806 -0.0043
  191POPC   C3822091   7.241   6.218   7.230 -0.1201 -0.1057 -0.2230
  191POPC   H8X22092   7.324   6.291   7.235 -0.2131 -0.0178  0.0419
  191POPC   H8Y22093   7.285   6.116   7.236  2.5842  1.0560  1.9582
  191POPC   C3922094   7.156   6.241   7.356  0.1943  0.1076 -0.0757
  191POPC   H9X22095   7.077   6.163   7.360  1.3731 -1.2675 -1.9784
  191POPC   H9Y22096   7.099   6.336   7.342 -0.9255 -0.5831 -0.3827
  191POPC  C31022097   7.242   6.227   7.482  0.6279  0.1981 -0.7846
  191POPC  H10X22098   7.299   6.322   7.483 -1.1198  1.3021  1.1791
  191POPC  H10Y22099   7.313   6.142   7.482  1.5056  0.9257 -0.2325
  191POPC  C31122100   7.165   6.201   7.619  0.2058  0.3455  0.0044
  191POPC  H11X22101   7.090   6.119   7.622 -1.7335  1.9984  4.2588
  191POPC  H11Y22102   7.094   6.286   7.621 -1.1324 -0.6744 -1.6148
  191POPC  C31222103   7.267   6.193   7.741  0.5324 -0.9189  0.3451
  191POPC  H12X22104   7.338   6.276   7.762  2.3300 -2.3206  0.0273
  191POPC  H12Y22105   7.333   6.104   7.730  0.9221 -0.5609 -0.2560
  191POPC  C31322106   7.194   6.173   7.871  0.1136 -0.1964 -0.5525
  191POPC  H13X22107   7.114   6.097   7.871 -0.6597  0.6003 -0.6294
  191POPC  H13Y22108   7.140   6.265   7.903 -1.4091 -1.6756  1.4263
  191POPC  C31422109   7.293   6.128   7.982  0.1923  0.0496  0.3019
  191POPC  H14X22110   7.359   6.209   8.017 -0.3824  0.7414 -0.1793
  191POPC  H14Y22111   7.357   6.047   7.941  0.8670  1.2027 -0.9830
  191POPC  C31522112   7.217   6.079   8.106  0.2828  0.2408 -0.1269
  191POPC  H15X22113   7.146   5.998   8.082  0.5523  0.3163 -1.2204
  191POPC  H15Y22114   7.164   6.166   8.151  2.0732  3.0637 -3.0490
  191POPC  C31622115   7.310   6.024   8.212  0.1734 -0.4667  0.5571
  191POPC  H16X22116   7.368   6.095   8.275  0.3505  0.7065 -0.8483
  191POPC  H16Y22117   7.392   5.963   8.167  2.3871  0.8425  2.5687
  191POPC  H16Z22118   7.251   5.959   8.280  0.5170  0.7409  2.0639
  192POPC     N22119   6.481   1.481   5.953  0.0003  0.2223  0.7278
  192POPC   C1222120   6.606   1.393   5.972 -0.4231 -0.0407  0.3457
  192POPC  H12A22121   6.692   1.452   5.947 -1.2340  1.0917  0.1696
  192POPC  H12B22122   6.611   1.316   5.895  1.9367  1.0836 -0.7201
  192POPC   C1322123   6.482   1.542   5.817  0.6442  0.3794  0.1057
  192POPC  H13A22124   6.397   1.609   5.816 -0.2368 -0.6560  1.2312
  192POPC  H13B22125   6.574   1.592   5.791 -0.5305  2.1918 -0.7623
  192POPC  H13C22126   6.462   1.468   5.741  0.1915  0.8334 -0.2301
  192POPC   C1422127   6.353   1.399   5.961  0.4868 -0.2059  0.2532
  192POPC  H14A22128   6.273   1.460   5.922 -0.2820 -0.0941  1.9284
  192POPC  H14B22129   6.365   1.313   5.896 -0.3751  0.6657 -1.0985
  192POPC  H14C22130   6.341   1.381   6.067 -1.2734  2.0990  0.5222
  192POPC   C1522131   6.472   1.585   6.059  0.0674 -0.0200 -0.4060
  192POPC  H15A22132   6.377   1.633   6.075  0.7790  1.6842 -0.9796
  192POPC  H15B22133   6.534   1.668   6.027  2.2933 -1.5396 -0.2437
  192POPC  H15C22134   6.516   1.552   6.152  0.3038  0.2952 -0.4035
  192POPC   C1122135   6.632   1.334   6.118 -0.1245 -0.2080  0.1487
  192POPC  H11A22136   6.706   1.251   6.113  2.3863  1.9841 -1.6406
  192POPC  H11B22137   6.544   1.271   6.143  0.5164 -1.5509 -0.8638
  192POPC     P22138   6.823   1.491   6.189 -0.4286  0.3940  0.5104
  192POPC   O1322139   6.852   1.514   6.045 -0.4067 -0.2066  0.1234
  192POPC   O1422140   6.921   1.406   6.260 -0.3589  0.2833  0.3628
  192POPC   O1222141   6.680   1.436   6.211  0.5758  0.2304 -0.2565
  192POPC   O1122142   6.810   1.634   6.254 -0.0088 -0.9020  0.3275
  192POPC    C122143   6.718   1.697   6.345  0.3213 -0.1905  0.2024
  192POPC    HA22144   6.658   1.611   6.381 -1.6862 -0.4717 -3.4316
  192POPC    HB22145   6.651   1.770   6.295  1.2730 -1.1341 -2.6226
  192POPC    C222146   6.795   1.764   6.462  0.1432 -0.0314  0.3241
  192POPC    HS22147   6.751   1.737   6.560  0.6016  0.2636  0.6113
  192POPC   O2122148   6.800   1.903   6.432  0.3737 -0.6043  0.0012
  192POPC   C2122149   6.730   1.980   6.512  0.0667  0.1267  0.7229
  192POPC   O2222150   6.681   1.943   6.617  0.1134 -0.6606  0.0611
  192POPC   C2222151   6.738   2.131   6.461 -0.3444  0.0386  0.3759
  192POPC   H2R22152   6.783   2.125   6.359  2.3954  2.9672  1.2594
  192POPC   H2S22153   6.799   2.186   6.536 -0.0786 -0.2725  0.3909
  192POPC    C322154   6.939   1.717   6.479 -0.1946 -0.0257  0.1777
  192POPC    HX22155   6.998   1.761   6.396  2.0392 -2.4918  0.3429
  192POPC    HY22156   6.929   1.608   6.463 -2.2862 -0.5012  3.7476
  192POPC   O3122157   6.974   1.755   6.611 -0.7207 -0.2369 -0.2405
  192POPC   C3122158   7.082   1.685   6.647 -0.0850  0.2844  0.8353
  192POPC   O3222159   7.155   1.624   6.569  0.9098  0.0559  0.4259
  192POPC   C3222160   7.108   1.687   6.793 -0.0393 -0.3652 -0.8331
  192POPC   H2X22161   7.013   1.669   6.848  0.0893  0.7132 -0.2167
  192POPC   H2Y22162   7.132   1.789   6.829 -3.5747  0.5063 -0.4851
  192POPC   C2322163   6.600   2.196   6.456 -0.0603 -0.2027 -0.0685
  192POPC   H3R22164   6.521   2.135   6.409 -0.5059 -1.0037  1.6600
  192POPC   H3S22165   6.603   2.292   6.398  1.1552  0.7118  1.4267
  192POPC   C2422166   6.556   2.247   6.594 -0.5737  0.2531 -0.2273
  192POPC   H4R22167   6.563   2.162   6.666 -0.6042  0.2218 -0.2619
  192POPC   H4S22168   6.454   2.290   6.593 -0.1873  1.4019  2.2713
  192POPC   C2522169   6.635   2.358   6.650 -0.7756 -0.4679 -0.1449
  192POPC   H5R22170   6.645   2.436   6.572  1.4577 -0.2045  0.3537
  192POPC   H5S22171   6.739   2.331   6.677 -1.0011 -0.4232  0.7890
  192POPC   C2622172   6.575   2.417   6.780  0.0864 -0.4671 -0.4320
  192POPC   H6R22173   6.557   2.338   6.856 -0.7733 -2.3914 -2.5365
  192POPC   H6S22174   6.480   2.463   6.745 -0.0686 -1.6185 -1.6103
  192POPC   C2722175   6.661   2.537   6.833 -0.0540  0.2543  0.2487
  192POPC   H7R22176   6.669   2.617   6.757 -0.7006 -0.9383 -1.1221
  192POPC   H7S22177   6.763   2.494   6.843 -0.2294  0.0003  1.0183
  192POPC   C2822178   6.631   2.576   6.976 -0.0422 -0.1663 -0.7887
  192POPC   H8R22179   6.721   2.626   7.017 -0.4655 -0.4257  0.4937
  192POPC   H8S22180   6.610   2.489   7.041  2.5896 -1.2349 -1.2481
  192POPC   C2922181   6.524   2.683   6.975 -0.2843  1.0414 -0.8116
  192POPC   H9122182   6.482   2.720   6.880  0.0356  2.1872 -0.5241
  192POPC  C21022183   6.492   2.745   7.089  0.6795  0.9045  0.1965
  192POPC  H10122184   6.419   2.827   7.091 -1.4273 -0.7829 -1.7300
  192POPC  C21122185   6.558   2.712   7.225 -0.1043 -0.1851  0.4075
  192POPC  H11R22186   6.654   2.765   7.240  0.4814 -0.8093 -0.9853
  192POPC  H11S22187   6.601   2.609   7.232  1.4913  0.4513  0.3314
  192POPC  C21222188   6.472   2.728   7.354 -0.1151 -0.9037  0.1379
  192POPC  H12R22189   6.453   2.838   7.354 -1.1922 -1.0462 -1.4715
  192POPC  H12S22190   6.540   2.711   7.439  2.2287 -2.5905 -1.9334
  192POPC  C21322191   6.352   2.644   7.348  0.0926 -0.4795 -0.6814
  192POPC  H13R22192   6.302   2.680   7.255  1.4683  1.2580 -0.8040
  192POPC  H13S22193   6.294   2.655   7.442  3.7020 -2.1306  1.9429
  192POPC  C21422194   6.373   2.493   7.333  0.4972 -0.3440 -0.8166
  192POPC  H14R22195   6.435   2.467   7.245  1.0020 -1.4368 -0.1604
  192POPC  H14S22196   6.271   2.450   7.324 -0.3791  0.6271  2.7799
  192POPC  C21522197   6.443   2.428   7.453 -0.4106  0.2002  0.4368
  192POPC  H15R22198   6.539   2.481   7.471  0.4101 -0.6271 -1.2325
  192POPC  H15S22199   6.487   2.327   7.437 -0.1551  0.6035 -1.6905
  192POPC  C21622200   6.359   2.430   7.588 -0.2077 -0.5262  0.6543
  192POPC  H16R22201   6.266   2.369   7.584 -2.3162  2.3895  1.9348
  192POPC  H16S22202   6.335   2.531   7.626 -0.6997 -0.9806  1.5780
  192POPC  C21722203   6.447   2.365   7.691 -0.4697 -0.3945 -0.2494
  192POPC  H17R22204   6.549   2.407   7.704 -0.1871 -0.8358 -0.9588
  192POPC  H17S22205   6.462   2.258   7.663 -4.1915 -0.9611 -0.5924
  192POPC  C21822206   6.376   2.341   7.824 -0.4552  0.1024  0.3443
  192POPC  H18R22207   6.438   2.282   7.895  1.0606  1.4700  0.2305
  192POPC  H18S22208   6.285   2.285   7.796  1.5664 -1.9019 -2.8384
  192POPC  H18T22209   6.346   2.434   7.877 -1.4324 -0.9932  1.7860
  192POPC   C3322210   7.220   1.588   6.837  0.1021 -0.3970  0.3466
  192POPC   H3X22211   7.316   1.619   6.790 -0.5221 -0.5845 -1.1122
  192POPC   H3Y22212   7.209   1.485   6.799  1.7747 -1.1948  1.8604
  192POPC   C3422213   7.257   1.580   6.986  0.5330  0.4263 -0.3450
  192POPC   H4X22214   7.230   1.674   7.038 -2.3892 -0.1052 -0.7191
  192POPC   H4Y22215   7.365   1.557   6.984  0.4454  0.0204 -0.5025
  192POPC   C3522216   7.185   1.464   7.060  0.2674  0.3073 -0.0432
  192POPC   H5X22217   7.202   1.365   7.013  0.5606 -0.5394  1.7919
  192POPC   H5Y22218   7.077   1.490   7.068  0.5353  1.6043 -0.5071
  192POPC   C3622219   7.247   1.455   7.198  0.3936  0.1688  0.2209
  192POPC   H6X22220   7.247   1.548   7.259 -2.0642  1.3809 -1.4732
  192POPC   H6Y22221   7.354   1.429   7.181  0.3327  0.7354 -1.1865
  192POPC   C3722222   7.173   1.356   7.290  0.3397  0.2143  0.0749
  192POPC   H7X22223   7.159   1.265   7.228  0.8787 -0.1671  0.5078
  192POPC   H7Y22224   7.071   1.399   7.306 -0.1154 -0.7945 -0.0353
  192POPC   C3822225   7.238   1.323   7.418 -0.0318  0.7951 -0.5104
  192POPC   H8X22226   7.280   1.417   7.461 -1.5076  0.4476  1.8357
  192POPC   H8Y22227   7.333   1.274   7.386  0.4412  1.2057  0.2184
  192POPC   C3922228   7.145   1.244   7.511  0.9285 -0.7505  0.3357
  192POPC   H9X22229   7.135   1.139   7.476  1.8166 -1.1991  1.3598
  192POPC   H9Y22230   7.047   1.295   7.500  0.8786 -0.8948  0.1213
  192POPC  C31022231   7.174   1.254   7.663  0.3883  0.7694  0.9454
  192POPC  H10X22232   7.205   1.350   7.708  0.1892  2.0308 -1.4423
  192POPC  H10Y22233   7.271   1.199   7.667  0.0390  0.0623  0.2155
  192POPC  C31122234   7.070   1.179   7.755  0.5909 -0.0719 -0.0688
  192POPC  H11X22235   7.068   1.074   7.719  0.4946  0.0439 -0.4068
  192POPC  H11Y22236   6.975   1.232   7.733  1.6394  1.7736 -0.3274
  192POPC  C31222237   7.093   1.172   7.900 -0.0044  0.0273 -0.2571
  192POPC  H12X22238   7.115   1.267   7.954 -3.1221  1.0348 -0.5422
  192POPC  H12Y22239   7.177   1.104   7.925  0.2345  0.3130 -0.2837
  192POPC  C31322240   6.968   1.135   7.985  0.5467 -0.2163  0.0608
  192POPC  H13X22241   6.942   1.029   7.965  0.8234 -0.5922  1.5421
  192POPC  H13Y22242   6.885   1.204   7.959 -1.4002 -2.0385  1.1475
  192POPC  C31422243   6.998   1.153   8.138  0.0650 -0.4917  0.0348
  192POPC  H14X22244   7.029   1.256   8.168 -1.5171 -0.1929  0.7734
  192POPC  H14Y22245   7.075   1.083   8.178  0.1076  0.4725  1.7757
  192POPC  C31522246   6.880   1.122   8.243 -0.5215  0.1889 -0.1168
  192POPC  H15X22247   6.791   1.177   8.206 -1.1527 -1.3068 -0.9465
  192POPC  H15Y22248   6.924   1.152   8.340  0.8424 -0.0349 -0.6523
  192POPC  C31622249   6.842   0.971   8.245 -0.0897 -0.0547 -0.1971
  192POPC  H16X22250   6.771   0.966   8.329  0.1529 -1.2198 -0.0437
  192POPC  H16Y22251   6.928   0.909   8.280 -0.0822  0.5558  0.9137
  192POPC  H16Z22252   6.800   0.950   8.144 -0.5499  2.3808 -0.5723
  193SOD    SOD22253   0.535   5.162   4.290  0.2217  0.6175  0.1063
  194SOD    SOD22254   0.592   6.241  16.214  0.2209  0.0199 -0.4644
  195SOD    SOD22255   5.759   0.833   2.958 -0.2932  0.4302 -0.4399
  196SOD    SOD22256   0.488   1.507  13.337  0.1408  0.0198 -0.1270
  197SOD    SOD22257   2.845   2.786   6.240  0.0891 -0.0651 -0.0349
  198SOD    SOD22258   1.963   5.611  12.111  0.3408  0.0948 -0.0277
  199SOD    SOD22259   1.349   6.345  17.180  0.1667  0.2754  0.0540
  200SOD    SOD22260   4.333   4.007  11.670  0.0428  0.6563 -0.2831
  201SOD    SOD22261   2.800   3.831  10.740 -0.3315 -0.2201 -0.0272
  202SOD    SOD22262   6.285   2.014  10.626 -0.0224  0.1396  0.0984
  203SOD    SOD22263   1.593   0.356  13.364  0.0186 -0.2070  0.1717
  204SOD    SOD22264   6.773   4.959   5.923  0.4023 -0.0134 -0.1402
  205SOD    SOD22265   5.850   5.168  12.802 -0.1058 -0.0074  0.2768
  206SOD    SOD22266   1.197   5.814  10.980  0.1812  0.9235  0.1668
  207SOD    SOD22267   4.383   4.502  10.869  0.0392 -0.1637  0.3381
  208SOD    SOD22268   5.241   2.205   1.796 -0.4246  0.0388 -0.5868
  209SOD    SOD22269   1.506   3.036  13.741  0.1520 -0.4178  0.0294
  210SOD    SOD22270   6.207   0.398   2.267  0.4051  0.3909 -0.0172
  211SOD    SOD22271   4.906   1.920  16.558  0.2059 -0.1436 -0.2086
  212SOD    SOD22272   6.172   3.949   5.513 -0.6804  0.5956 -0.2873
  213SOD    SOD22273   6.320   5.377  15.578  0.3716 -0.0361 -0.0333
  214SOD    SOD22274   3.336   0.051  12.999  0.2465  0.0608  0.1136
  215SOD    SOD22275   6.576   1.107  12.875 -0.3071 -0.1370  0.1447
  216SOD    SOD22276   5.327   0.241   4.003  0.1234 -0.2117  0.1129
  217SOD    SOD22277   6.303   2.131   3.501 -0.0116 -0.1635 -0.1813
  218SOD    SOD22278   3.618   2.855   3.450 -0.2600  0.4064  0.2968
  219SOD    SOD22279   1.501   0.005   3.878  0.6200 -0.2466 -0.3270
  220SOD    SOD22280   6.083   2.589  12.610 -0.2756 -0.6931 -0.0589
  221SOD    SOD22281   3.786   1.119  10.657 -0.0628 -0.0285 -0.2898
  222SOD    SOD22282   4.211   4.654   5.674  0.2159  0.7316 -0.0085
  223SOD    SOD22283   4.279   1.760  16.615 -0.2819 -0.0679  0.0768
  224SOD    SOD22284   1.568   4.296   5.547  0.6144  0.3194  0.7207
  225SOD    SOD22285   1.063   2.056   5.345 -0.1526 -0.2813 -0.2076
  226SOD    SOD22286   2.893   3.118   6.622 -0.1848 -0.1443 -0.0486
  227SOD    SOD22287   1.483   2.093   1.857  0.0989 -0.3128 -0.5296
  228SOD    SOD22288   2.903   5.284  17.123  0.1935  0.1418  0.0901
  229SOD    SOD22289   1.170   2.234  11.551  0.3222 -0.5221 -0.0823
  230SOD    SOD22290   3.771   6.724  11.783 -0.4210 -0.1877 -0.1317
  231SOD    SOD22291   4.436   6.145  16.734 -0.4897  1.0005 -0.0764
  232SOD    SOD22292   5.010   0.468  10.737  0.0187 -0.1859  0.1916
  233SOD    SOD22293   4.797   4.653  17.082  0.0227 -0.3337  0.0167
  234SOD    SOD22294   4.200   4.150   1.421  0.5315 -0.1187  0.4627
  235SOD    SOD22295   4.008   4.847  13.748  0.0341 -0.2051 -0.5806
  236SOD    SOD22296   2.856   3.447  15.083  0.1383  0.5573 -0.0527
  237SOD    SOD22297   0.378   0.194   5.386  0.0647  0.5171 -0.0284
  238SOD    SOD22298   1.796   0.935   3.099 -0.0698  0.2085  0.0389
  239SOD    SOD22299   1.818   6.278   4.364  0.0541 -0.4958  0.3145
  240SOD    SOD22300   2.461   5.370  14.434 -0.2126 -0.2924  0.2467
  241SOD    SOD22301   2.111   4.800   5.007  0.1093  0.1004 -0.2967
  242SOD    SOD22302   3.125   0.738   4.074 -0.0133  0.1569 -0.1460
  243SOD    SOD22303   0.477   1.659   2.335 -0.0190 -0.3598 -0.0276
  244SOD    SOD22304   4.944   2.608   5.131  0.3646 -0.2259  0.5695
  245SOD    SOD22305   3.432   3.006   0.587 -0.2297  0.2724 -0.0718
  246SOD    SOD22306   1.779   3.067   6.656 -0.2168  0.2607  0.4429
  247SOD    SOD22307   4.940   1.348  11.536 -0.0108 -0.2434  0.2057
  248SOD    SOD22308   5.490   4.193  16.918  0.1522  0.0169 -0.2829
  249SOD    SOD22309   5.689   2.573  15.556  0.0269 -0.0658 -0.1562
  250SOD    SOD22310   3.138   0.366   1.894 -0.1262  0.6186  0.1939
  251SOD    SOD22311   1.698   4.564  10.514 -0.5087 -0.0923 -0.2917
  252SOD    SOD22312   6.030   5.604   6.555 -0.4725  0.1843  0.1407
  253SOD    SOD22313   4.460   2.464   0.250 -0.2111  0.0658  0.0388
  254SOD    SOD22314   5.994   2.943  15.582 -0.1082 -0.2332 -0.4087
  255SOD    SOD22315   4.603   6.048   5.939 -0.1154  0.0128  0.2972
  256SOD    SOD22316   1.294   3.266  14.861  0.2947 -0.1529  0.3801
  257SOD    SOD22317   3.943   5.681   5.181  0.0404 -0.6306 -0.4449
  258SOD    SOD22318   2.334   2.156   0.171 -0.2521 -0.2553  0.5423
  259SOD    SOD22319   2.376   6.423  16.391  0.2859 -0.0683  0.3697
  260SOD    SOD22320   0.349   0.048  15.898  0.6216 -0.1357 -0.1882
  261SOD    SOD22321   2.588   3.738   3.403 -0.4301  0.1872  0.1863
  262SOD    SOD22322   0.509   6.268   2.337 -0.1153 -0.2706  0.4118
  263SOD    SOD22323   4.063   2.991  11.245 -0.4530  0.0382 -0.0689
  264SOD    SOD22324   6.325   6.350   1.019  0.1237  0.3033 -0.6338
  265SOD    SOD22325   4.064   5.997  11.460  0.2886 -0.2181  0.1689
  266SOD    SOD22326   5.787   5.842  14.239 -0.3292  0.0725 -0.4089
  267SOD    SOD22327   1.055   5.526  16.864  0.2118  0.3876 -0.6980
  268SOD    SOD22328   4.842   5.494  12.533 -0.3176 -0.0838  0.5766
  269SOD    SOD22329   0.582   4.781   1.958 -0.4125  0.5639  0.4061
  270CLA    CLA22330   4.759   3.777  11.718 -0.0984  0.0338  0.0227
  271CLA    CLA22331   4.302   5.581   0.104 -0.3056 -0.2159 -0.1785
  272CLA    CLA22332   1.743   5.124   0.199 -0.3296 -0.1985  0.4690
  273CLA    CLA22333   3.495   5.334   3.414  0.0249  0.2154 -0.2391
  274CLA    CLA22334   1.248   5.524  12.061  0.4099 -0.2461 -0.0475
  275CLA    CLA22335   6.394   3.731   0.707 -0.2369 -0.1695 -0.0004
  276CLA    CLA22336   3.651   1.221  14.103  0.0956 -0.1049  0.1042
  277CLA    CLA22337   2.445   4.796  12.982  0.4950 -0.4651  0.3805
  278CLA    CLA22338   6.125   1.270   1.135 -0.1182 -0.2920  0.1452
  279CLA    CLA22339   5.178   1.518   4.633  0.1253  0.0639  0.1557
  280CLA    CLA22340   4.266   0.525  13.390  0.0921 -0.4068 -0.3806
  281CLA    CLA22341   2.158   3.481  12.970  0.0827  0.0337  0.0777
  282CLA    CLA22342   1.873   5.827  15.435 -0.0056  0.0048 -0.2230
  283CLA    CLA22343   0.763   6.149   3.870 -0.2082 -0.4884 -0.1519
  284CLA    CLA22344   2.961   3.177   3.642 -0.0875 -0.0973 -0.3066
  285CLA    CLA22345   5.943   6.383  11.644 -0.1240 -0.4696 -0.2585
  286CLA    CLA22346   2.995   2.767  15.056 -0.2117  0.6199  0.0581
  287CLA    CLA22347   6.046   4.685  16.715  0.0660  0.4015  0.7273
  288CLA    CLA22348   3.954   2.630  12.613  0.1756 -0.1569  0.0184
  289CLA    CLA22349   3.296   0.163  16.892  0.0714 -0.0656 -0.0539
  290CLA    CLA22350   3.677   2.298   0.501 -0.1149  0.0993  0.4376
  291CLA    CLA22351   5.327   6.515  12.349 -0.3354  0.1599 -0.0175
  292CLA    CLA22352   6.694   4.625   5.035  0.3036  0.1290 -0.0513
  293CLA    CLA22353   5.672   6.727   2.978  0.1492  0.4438 -0.4292
  294CLA    CLA22354   3.289   1.244   3.838  0.0907  0.1098  0.1172
  295CLA    CLA22355   5.316   4.174  15.168 -0.4597  0.1299 -0.0090
  296CLA    CLA22356   4.924   6.417   0.216 -0.2439 -0.2751  0.1788
  297CLA    CLA22357   1.893   1.591   0.037 -0.1506  0.3880 -0.3195
  298CLA    CLA22358   6.607   5.783  16.491  0.1887  0.0500 -0.0600
  299CLA    CLA22359   6.170   1.541  15.357 -0.1276  0.5132  0.0459
  300CLA    CLA22360   2.923   6.303  16.308  0.0381 -0.0967 -0.3526
  301CLA    CLA22361   1.016   0.548   3.036  0.1149  0.1627 -0.1328
  302CLA    CLA22362   1.094   3.680  15.765 -0.1915 -0.2102 -0.1404
  303CLA    CLA22363   0.758   1.521  12.629 -0.2085 -0.2284 -0.0517
  304CLA    CLA22364   5.589   2.787   4.096  0.0137  0.2669 -0.0138
  305CLA    CLA22365   1.141   1.790  13.130 -0.1292 -0.6887  0.3856
  306CLA    CLA22366   1.430   1.302   0.491 -0.4709  0.0820  0.3911
  307CLA    CLA22367   5.953   0.567   1.117 -0.3206  0.1902  0.2175
  308CLA    CLA22368   1.606   3.690   5.840  0.1559  0.1223 -0.4262
  309CLA    CLA22369   2.550   2.676   0.669  0.2473 -0.5296  0.0239
  310CLA    CLA22370   2.602   3.486  15.747  0.1257 -0.0669  0.0777
  311CLA    CLA22371   2.934   3.519   3.254  0.1128 -0.1593  0.4710
  312CLA    CLA22372   3.900   5.890  15.005 -0.5705 -0.1609 -0.4787
  313CLA    CLA22373   3.647   6.647   2.408 -0.0997  0.4124 -0.1053
  314CLA    CLA22374   4.849   1.236   1.266 -0.2217  0.2878  0.0647
  315CLA    CLA22375   0.446   1.176   3.144  0.4284 -0.1434  0.1420
  316CLA    CLA22376   4.710   5.969  13.151  0.1185 -0.0483  0.3160
  317CLA    CLA22377   3.909   4.704  11.812  0.0231 -0.3194  0.3600
  318CLA    CLA22378   6.674   2.259  14.296 -0.1503  0.1470  0.3004
  319CLA    CLA22379   1.558   0.624   2.285 -0.1401 -0.1048 -0.2420
  320CLA    CLA22380   0.322   1.626  16.099 -0.1488 -0.0621  0.2540
  321CLA    CLA22381   6.433   3.241  16.504 -0.0151 -0.7493  0.0697
  322CLA    CLA22382   4.369   6.391   5.059  0.6151  0.0297 -0.5517
  323TIP3   OH222383   3.801   1.622  14.715 -0.2972 -0.3465 -0.1233
  323TIP3    H122384   3.728   1.630  14.653 -0.6033  0.4207  0.3179
  323TIP3    H222385   3.870   1.578  14.665 -0.2467  0.9639 -1.2829
  324TIP3   OH222386   0.544   2.581   4.192  0.0394 -0.3817  0.3296
  324TIP3    H122387   0.519   2.593   4.283 -0.8418 -0.6955  0.1444
  324TIP3    H222388   0.465   2.601   4.142  0.3972 -0.5878 -0.3443
  325TIP3   OH222389   2.788   6.006  11.594 -0.0864 -0.5124 -0.2041
  325TIP3    H122390   2.798   5.918  11.557  1.5418 -0.7083  0.5945
  325TIP3    H222391   2.694   6.014  11.610 -0.1692 -2.5583  0.7097
  326TIP3   OH222392   5.903   5.130   4.985  0.0746 -0.1297 -0.0100
  326TIP3    H122393   5.899   5.222   5.011  1.7941 -0.1984  0.6292
  326TIP3    H222394   5.834   5.120   4.919  0.9714  2.0465 -1.3844
  327TIP3   OH222395   5.194   6.421   3.131  0.1677  0.3082 -0.1155
  327TIP3    H122396   5.283   6.424   3.096  0.9341  1.4683  1.8337
  327TIP3    H222397   5.187   6.497   3.188 -1.4564 -0.7888  1.2471
  328TIP3   OH222398   5.680   4.541  12.258 -0.4046 -0.6988 -0.6828
  328TIP3    H122399   5.709   4.476  12.193 -0.1731 -0.8940 -0.3864
  328TIP3    H222400   5.685   4.625  12.211  1.0757 -0.6623 -0.5195
  329TIP3   OH222401   4.970   2.622   0.221 -0.1986  0.1388 -0.0193
  329TIP3    H122402   4.990   2.705   0.179  1.7147 -1.8114 -3.3691
  329TIP3    H222403   5.047   2.605   0.277 -1.0857  1.0084  1.5542
  330TIP3   OH222404   4.323   3.092   1.197  0.1726 -0.2698  0.1997
  330TIP3    H122405   4.232   3.115   1.178  0.3351  0.2081 -0.0027
  330TIP3    H222406   4.355   3.051   1.116  0.7108  1.3047 -0.4161
  331TIP3   OH222407   5.196   3.042   5.981 -0.6464  0.3817  0.1116
  331TIP3    H122408   5.109   3.042   5.940 -1.0928  0.2594  1.0499
  331TIP3    H222409   5.196   3.118   6.038 -0.6976 -0.4803  1.2817
  332TIP3   OH222410   1.952   4.643   5.128  0.2897  0.0123  0.0100
  332TIP3    H122411   1.906   4.559   5.122 -0.3153  0.1894  1.7080
  332TIP3    H222412   1.967   4.655   5.222  1.5339  1.1970 -0.3145
  333TIP3   OH222413   2.353   1.647   3.708 -0.2398  0.2258 -0.5507
  333TIP3    H122414   2.428   1.706   3.717  0.9229 -1.4710  1.6717
  333TIP3    H222415   2.383   1.578   3.649 -0.4978  0.1807 -0.6309
  334TIP3   OH222416   4.846   4.105  16.446  0.1149 -0.0888  0.3380
  334TIP3    H122417   4.764   4.079  16.403 -0.7088  0.5335  1.5065
  334TIP3    H222418   4.853   4.046  16.521  0.9783 -0.4267  0.0036
  335TIP3   OH222419   1.597   2.375  13.773 -0.3663  0.2914  0.1352
  335TIP3    H122420   1.639   2.461  13.770  1.8416 -0.7045 -2.5737
  335TIP3    H222421   1.529   2.380  13.706 -0.7392  0.1720  0.5080
  336TIP3   OH222422   5.799   1.412   1.093 -0.3845  0.6172  0.1696
  336TIP3    H122423   5.865   1.352   1.130 -0.5239  0.6896  0.5437
  336TIP3    H222424   5.726   1.355   1.070 -0.2850  0.5674 -0.0216
  337TIP3   OH222425   2.612   2.028   4.053  0.6321 -0.0287  0.1766
  337TIP3    H122426   2.552   2.080   4.106  0.4355 -0.4263  0.3458
  337TIP3    H222427   2.693   2.078   4.053  1.3415 -1.0070  2.6294
  338TIP3   OH222428   2.776   1.026  13.820 -0.1809 -0.0605  0.0702
  338TIP3    H122429   2.744   0.963  13.755  0.8819 -0.2136 -0.3251
  338TIP3    H222430   2.812   0.972  13.890 -0.2677  0.1142  0.2520
  339TIP3   OH222431   4.270   2.252  16.582 -0.5565 -0.0035 -0.2042
  339TIP3    H122432   4.211   2.314  16.627 -0.6997  0.6918 -1.2968
  339TIP3    H222433   4.308   2.304  16.511  0.8121 -0.6606  0.0314
  340TIP3   OH222434   5.379   0.264   6.167  0.1242  0.4990  0.0150
  340TIP3    H122435   5.333   0.185   6.194  0.7204 -0.9604 -2.8618
  340TIP3    H222436   5.472   0.244   6.180  0.3332  0.3087 -1.5713
  341TIP3   OH222437   1.888   3.315  11.052 -0.7960  0.2198 -0.2779
  341TIP3    H122438   1.896   3.351  10.963  0.0659 -0.2771 -0.4077
  341TIP3    H222439   1.793   3.311  11.067 -0.9389  1.5761 -0.6404
  342TIP3   OH222440   5.311   5.560  13.337 -0.7335 -0.2290 -0.7446
  342TIP3    H122441   5.251   5.500  13.380 -0.1564 -0.3244 -0.0613
  342TIP3    H222442   5.382   5.504  13.304  0.1315  0.1302  0.4543
  343TIP3   OH222443   5.392   1.290   2.753  0.4819 -0.1457 -0.2823
  343TIP3    H122444   5.400   1.337   2.670  0.7982  0.5135  0.1184
  343TIP3    H222445   5.424   1.351   2.819 -1.2796 -0.0531  0.5415
  344TIP3   OH222446   0.186   5.890  10.661 -0.8567  0.2905 -0.2578
  344TIP3    H122447   0.273   5.852  10.668 -0.9977  0.0158  0.0430
  344TIP3    H222448   0.166   5.922  10.749 -1.5344 -0.7206 -0.0102
  345TIP3   OH222449   1.160   5.369  16.744 -0.1573  0.2501  0.0263
  345TIP3    H122450   1.121   5.375  16.656 -0.3226  0.7910  0.1307
  345TIP3    H222451   1.251   5.393  16.731 -0.1555  0.2222 -0.0144
  346TIP3   OH222452   5.527   3.429   4.515 -0.0454  0.1769  0.3357
  346TIP3    H122453   5.554   3.349   4.559  0.3061 -0.7346 -1.4336
  346TIP3    H222454   5.432   3.422   4.510  0.0662 -0.8009 -0.9454
  347TIP3   OH222455   1.199   6.218  10.663 -0.2778 -0.1787 -0.3060
  347TIP3    H122456   1.130   6.278  10.633  0.2699 -0.0163 -1.2896
  347TIP3    H222457   1.182   6.137  10.616  0.3342 -0.0597 -0.7532
  348TIP3   OH222458   4.360   0.446   6.594 -0.1232  0.3756 -0.0759
  348TIP3    H122459   4.276   0.490   6.581  0.0043  0.0826 -2.2753
  348TIP3    H222460   4.339   0.352   6.590  0.3831  0.2911 -1.7180
  349TIP3   OH222461   2.172   3.051  12.947  0.3440  0.5380  0.6818
  349TIP3    H122462   2.176   2.992  13.023  1.3957 -1.1310 -0.5971
  349TIP3    H222463   2.083   3.088  12.950 -0.5446 -1.5039  1.2840
  350TIP3   OH222464   5.391   2.036   0.966 -0.1644  0.3718 -0.3995
  350TIP3    H122465   5.354   1.948   0.974  0.4682  0.1010 -0.4677
  350TIP3    H222466   5.317   2.089   0.934 -0.5879 -0.0977 -0.2214
  351TIP3   OH222467   2.848   4.743  13.592 -0.4756  0.2941 -0.5617
  351TIP3    H122468   2.854   4.813  13.527 -0.4837  0.1268 -0.7435
  351TIP3    H222469   2.915   4.763  13.657  0.2303 -0.1022 -1.1631
  352TIP3   OH222470   6.508   0.659  16.264  0.2383  0.0331  0.2030
  352TIP3    H122471   6.449   0.676  16.338  1.2769 -3.8165  2.1940
  352TIP3    H222472   6.464   0.589  16.215  1.3846 -0.2053 -0.5048
  353TIP3   OH222473   5.507   3.300  11.645  0.3355 -0.6283 -1.0129
  353TIP3    H122474   5.475   3.209  11.651 -0.7567 -0.2056  0.0028
  353TIP3    H222475   5.429   3.353  11.661  1.2408  0.4710 -0.0836
  354TIP3   OH222476   6.201   0.799   0.621 -0.5114  0.1918 -0.2686
  354TIP3    H122477   6.203   0.820   0.527  1.6687  1.4754 -0.0053
  354TIP3    H222478   6.293   0.799   0.647 -1.1185  1.4791  2.2030
  355TIP3   OH222479   4.416   2.980  14.627  0.5076 -0.4039  0.3013
  355TIP3    H122480   4.324   2.954  14.618  0.4194  0.2421 -0.7732
  355TIP3    H222481   4.461   2.899  14.650 -0.3938 -0.6286  1.3963
  356TIP3   OH222482   5.696   4.444   6.057 -0.8706  0.0220 -0.0245
  356TIP3    H122483   5.722   4.375   5.996 -0.3802 -0.2485  0.4779
  356TIP3    H222484   5.693   4.400   6.142 -0.2820  0.6803  0.3406
  357TIP3   OH222485   5.524   1.123   1.670 -0.0467 -0.4185  0.0512
  357TIP3    H122486   5.562   1.052   1.722  1.2888  0.2347  0.0084
  357TIP3    H222487   5.471   1.079   1.604 -1.0951 -1.2868  1.4128
  358TIP3   OH222488   6.175   2.652   0.006  0.0781  0.0995 -0.6603
  358TIP3    H122489   6.125   2.570   0.011 -0.1870  0.1756 -1.9233
  358TIP3    H222490   6.265   2.623  -0.011  0.2974  0.0173  0.5164
  359TIP3   OH222491   0.666   6.436  11.738  0.1248  0.1347 -0.4887
  359TIP3    H122492   0.602   6.486  11.688  0.7298  1.3367 -0.1033
  359TIP3    H222493   0.659   6.346  11.705 -1.8374  0.2123 -0.3574
  360TIP3   OH222494   1.866   4.593  16.257  0.1794 -0.0984 -0.4590
  360TIP3    H122495   1.813   4.626  16.330  0.3683  1.4897 -0.9942
  360TIP3    H222496   1.802   4.557  16.196 -0.0013 -1.2062  0.3480
  361TIP3   OH222497   0.312   1.000  14.511 -0.1421  0.0452 -0.5838
  361TIP3    H122498   0.347   1.013  14.423 -2.6647  0.5500 -1.6138
  361TIP3    H222499   0.377   1.040  14.569  1.0585  0.7084 -2.2923
  362TIP3   OH222500   0.712   2.424   4.552 -0.2274 -0.0940 -0.1350
  362TIP3    H122501   0.766   2.495   4.518 -0.8731 -0.5465 -2.2504
  362TIP3    H222502   0.644   2.467   4.603 -0.0833  0.7619 -0.6526
  363TIP3   OH222503   2.952   0.603   2.252  0.1552  0.0252  0.2209
  363TIP3    H122504   2.875   0.660   2.261  0.2167  0.3192 -1.0018
  363TIP3    H222505   3.013   0.636   2.318 -0.3600  0.4535  0.4987
  364TIP3   OH222506   2.516   6.573   3.361 -0.1732  0.4089 -0.6503
  364TIP3    H122507   2.530   6.646   3.422 -1.0684  1.2823 -1.4687
  364TIP3    H222508   2.462   6.610   3.291 -1.8789 -1.4081 -0.3663
  365TIP3   OH222509   2.944   0.514  15.820 -0.1515 -0.2425 -0.3253
  365TIP3    H122510   2.929   0.517  15.915 -0.7897  0.2706 -0.4403
  365TIP3    H222511   2.903   0.594  15.787  0.3365 -0.2667 -1.0006
  366TIP3   OH222512   3.821   0.160   4.852  0.3036  0.7024  0.2714
  366TIP3    H122513   3.889   0.196   4.796 -0.4279  1.4686 -0.1425
  366TIP3    H222514   3.747   0.221   4.843 -0.1729  0.3036  1.2942
  367TIP3   OH222515   3.884   5.598  17.084  0.1243 -0.1108  0.2821
  367TIP3    H122516   3.917   5.568  17.169 -0.0931 -0.5870  0.2036
  367TIP3    H222517   3.957   5.647  17.046  0.4730 -0.4963  0.4444
  368TIP3   OH222518   0.845   0.397  13.932  0.0174  0.0676 -0.0187
  368TIP3    H122519   0.819   0.462  13.867  1.5139  0.8895  0.1586
  368TIP3    H222520   0.940   0.393  13.924  0.2237  0.1100  2.0455
  369TIP3   OH222521   6.589   0.423  15.795  0.4133  0.3717 -0.0947
  369TIP3    H122522   6.628   0.433  15.708 -4.5691 -0.4955 -2.8353
  369TIP3    H222523   6.587   0.328  15.810  0.3531  0.4619  0.4943
  370TIP3   OH222524   3.163   2.228  12.908 -0.0811  0.0565  0.2766
  370TIP3    H122525   3.207   2.312  12.893  0.3548 -0.1653  0.2895
  370TIP3    H222526   3.070   2.250  12.909  0.0618  0.6746  1.1108
  371TIP3   OH222527   4.122   0.389   0.004  0.2809 -0.1369 -0.1529
  371TIP3    H122528   4.082   0.440   0.074  1.7673  0.8928 -0.0084
  371TIP3    H222529   4.177   0.325   0.049 -1.0103 -1.4652 -0.3564
  372TIP3   OH222530   1.344   1.757   2.174 -0.8081  0.2954  0.7909
  372TIP3    H122531   1.260   1.802   2.175 -1.0662 -0.1834  2.3938
  372TIP3    H222532   1.340   1.695   2.246  0.3791 -0.7694 -0.0127
  373TIP3   OH222533   6.251   4.235  12.986  0.0804  0.4533 -0.5212
  373TIP3    H122534   6.241   4.166  13.052  1.1937  0.5415 -0.2319
  373TIP3    H222535   6.181   4.218  12.923 -0.3843 -0.2382  0.1568
  374TIP3   OH222536   1.931   6.282  15.781 -0.1275 -0.0018  0.1127
  374TIP3    H122537   1.871   6.259  15.852  0.0496 -1.1508 -0.0815
  374TIP3    H222538   1.900   6.232  15.706  0.7484 -0.2029 -0.1315
  375TIP3   OH222539   1.238   4.117   0.133  0.6211 -0.1011  0.3678
  375TIP3    H122540   1.295   4.146   0.205  1.6299 -0.3928 -0.2845
  375TIP3    H222541   1.151   4.112   0.172  1.3863 -1.9259  2.0891
  376TIP3   OH222542   2.433   4.635   2.897  0.7101 -0.1021 -0.1135
  376TIP3    H122543   2.495   4.609   2.965 -0.2912  1.5112  1.5241
  376TIP3    H222544   2.384   4.556   2.876  2.2185 -1.0165 -0.2618
  377TIP3   OH222545   6.576   1.194  14.885 -0.5993 -0.1592  0.3314
  377TIP3    H122546   6.528   1.265  14.928 -0.9928 -0.6710  0.7433
  377TIP3    H222547   6.624   1.237  14.814 -0.5666  0.5667  0.7889
  378TIP3   OH222548   2.207   4.747  15.698 -0.4725  0.1135 -0.2724
  378TIP3    H122549   2.275   4.802  15.735  1.0294 -0.2612 -2.2771
  378TIP3    H222550   2.228   4.658  15.729  1.2367 -0.3234 -2.4147
  379TIP3   OH222551   1.263   4.726  16.728 -0.2408 -0.2733 -0.1833
  379TIP3    H122552   1.348   4.685  16.740 -1.0993 -3.0361 -2.4627
  379TIP3    H222553   1.255   4.787  16.802  3.0826 -0.8693  0.8349
  380TIP3   OH222554   1.111   6.592   5.737 -0.2985 -0.1306  0.4358
  380TIP3    H122555   1.193   6.632   5.709 -0.5516 -0.7573 -1.3363
  380TIP3    H222556   1.052   6.666   5.752 -0.1740  0.2664 -0.8801
  381TIP3   OH222557   6.589   0.184   2.165  0.0756  0.6589 -0.2241
  381TIP3    H122558   6.646   0.187   2.088 -1.3121 -2.7092 -1.5700
  381TIP3    H222559   6.604   0.098   2.203  0.7917  2.2281  3.5049
  382TIP3   OH222560   2.695   2.776  11.039  0.2113  0.4247 -0.5783
  382TIP3    H122561   2.743   2.718  10.980 -0.4514  0.0688 -0.7793
  382TIP3    H222562   2.741   2.770  11.122  0.0732 -0.5041 -0.5592
  383TIP3   OH222563   1.398   2.816   2.460  0.3453 -0.3722 -0.0122
  383TIP3    H122564   1.368   2.799   2.549  3.0797 -0.3885  1.0018
  383TIP3    H222565   1.486   2.850   2.470  0.9762 -0.8983 -2.7520
  384TIP3   OH222566   3.463   4.052  16.639  0.0058 -0.5763  0.6510
  384TIP3    H122567   3.413   4.066  16.720 -0.6846  0.9689 -0.0062
  384TIP3    H222568   3.396   4.035  16.573  0.4641 -0.2815  0.1092
  385TIP3   OH222569   2.881   5.462   3.504 -0.6661  0.2406  0.0469
  385TIP3    H122570   2.884   5.381   3.454  0.0112 -2.7894  4.4207
  385TIP3    H222571   2.970   5.497   3.498 -0.7693  0.3262 -1.2745
  386TIP3   OH222572   0.123   1.370  12.797 -0.2688  0.0204 -0.2784
  386TIP3    H122573   0.153   1.420  12.874  0.6825 -0.9174 -0.0155
  386TIP3    H222574   0.045   1.324  12.828 -0.4639  0.4043 -0.1788
  387TIP3   OH222575   0.045   2.868   2.106  0.0925  0.5110  0.1671
  387TIP3    H122576   0.136   2.899   2.111  0.4190 -0.4774  0.7046
  387TIP3    H222577   0.040   2.825   2.020  0.0302  0.8775 -0.0127
  388TIP3   OH222578   3.468   0.168  12.602 -0.0129  0.4928  1.0806
  388TIP3    H122579   3.429   0.166  12.515  0.8482 -1.6105  0.6629
  388TIP3    H222580   3.452   0.256  12.635 -1.1012  1.0609 -0.8586
  389TIP3   OH222581   3.776   2.333   3.936 -0.3144  0.7063  0.2985
  389TIP3    H122582   3.722   2.330   4.015 -0.6174 -0.2661  0.0634
  389TIP3    H222583   3.733   2.399   3.881 -1.6317 -0.4678 -0.1299
  390TIP3   OH222584   2.805   5.477  16.090 -0.7007 -0.2990 -0.0372
  390TIP3    H122585   2.814   5.403  16.150 -0.6158 -0.6343 -0.4541
  390TIP3    H222586   2.881   5.532  16.108 -0.7470 -0.3288  0.2530
  391TIP3   OH222587   1.919   3.843  15.874 -0.4163  0.4483  0.3467
  391TIP3    H122588   1.888   3.917  15.821  2.2374  1.0178 -0.5590
  391TIP3    H222589   1.933   3.881  15.961 -0.4419  0.6510  0.2636
  392TIP3   OH222590   0.989   2.698  14.955  0.0758 -0.2517 -0.0952
  392TIP3    H122591   0.959   2.746  14.878 -2.1625  1.7765  1.8682
  392TIP3    H222592   1.031   2.764  15.009  0.7162 -1.4278  0.8980
  393TIP3   OH222593   5.158   5.683  10.731 -0.0919 -0.3372  0.0225
  393TIP3    H122594   5.206   5.740  10.671 -1.9437 -2.2767 -3.6826
  393TIP3    H222595   5.214   5.606  10.741 -1.1210 -1.4548 -2.1359
  394TIP3   OH222596   4.127   4.962   1.475  0.5348 -0.1301  0.4968
  394TIP3    H122597   4.194   4.940   1.411  0.8677 -0.9929  1.1320
  394TIP3    H222598   4.159   5.042   1.517 -0.7825  1.8280 -1.9612
  395TIP3   OH222599   0.223   3.914  14.429 -0.1319  0.2410  0.5445
  395TIP3    H122600   0.300   3.969  14.416  0.8220 -1.2431 -0.4123
  395TIP3    H222601   0.249   3.828  14.397 -1.6646 -0.7135  1.7044
  396TIP3   OH222602   3.935   4.452  12.912 -0.0405 -0.0083 -0.4497
  396TIP3    H122603   3.857   4.466  12.858 -0.1209  2.9541  0.2212
  396TIP3    H222604   3.991   4.394  12.860 -2.6880 -2.3529 -0.8715
  397TIP3   OH222605   6.372   6.036   4.486 -0.4641 -0.5993  0.3880
  397TIP3    H122606   6.321   6.059   4.408 -0.9424  0.2048  0.9198
  397TIP3    H222607   6.308   6.002   4.547 -0.2219 -0.4455  0.7291
  398TIP3   OH222608   2.781   2.203   1.523  0.3481  0.0955 -0.1156
  398TIP3    H122609   2.779   2.254   1.442 -1.0233 -2.1491 -1.6118
  398TIP3    H222610   2.747   2.117   1.498 -0.1177 -0.7013  2.8568
  399TIP3   OH222611   6.125   1.718   0.388 -0.4627  0.1224  0.3275
  399TIP3    H122612   6.094   1.630   0.370 -1.2627  0.1595  1.4590
  399TIP3    H222613   6.208   1.706   0.433 -0.1371 -0.0208 -0.2945
  400TIP3   OH222614   0.453   5.812  10.694 -0.2162 -0.3168  0.6033
  400TIP3    H122615   0.468   5.794  10.601 -1.6954 -2.1316  0.6573
  400TIP3    H222616   0.488   5.900  10.707 -0.1262  0.0626 -1.7035
  401TIP3   OH222617   6.614   1.302  10.895  0.3669  0.0847  0.1178
  401TIP3    H122618   6.569   1.275  10.815  3.0929 -1.0751 -1.1688
  401TIP3    H222619   6.681   1.364  10.865  0.3265  1.0058  1.7825
  402TIP3   OH222620   0.630   5.781  12.405 -0.5168 -0.1854  0.2017
  402TIP3    H122621   0.621   5.793  12.500 -0.2590 -0.5829  0.2801
  402TIP3    H222622   0.576   5.704  12.386 -0.8179  0.0834 -0.0220
  403TIP3   OH222623   4.816   5.885  15.771 -0.2300  0.5419 -0.3996
  403TIP3    H122624   4.845   5.843  15.691  0.9584 -0.2504  0.4161
  403TIP3    H222625   4.723   5.861  15.779  0.1263 -0.9577 -0.5722
  404TIP3   OH222626   0.537   0.043   4.144  0.3872 -0.3419 -0.2338
  404TIP3    H122627   0.571   0.123   4.105 -0.5297  0.1058 -0.1295
  404TIP3    H222628   0.515   0.068   4.234  0.7359 -0.8892  0.0112
  405TIP3   OH222629   4.677   6.659  16.430 -0.7264 -0.3171  0.4973
  405TIP3    H122630   4.688   6.618  16.516  0.9085  1.7623  1.3682
  405TIP3    H222631   4.608   6.723  16.442 -1.2801 -0.7958 -0.0746
  406TIP3   OH222632   3.841   2.829  12.415  0.2020  0.7426 -0.5202
  406TIP3    H122633   3.911   2.773  12.383  0.3630 -0.0063  1.0544
  406TIP3    H222634   3.810   2.786  12.495 -1.3613  1.6011 -0.6235
  407TIP3   OH222635   3.252   0.640  15.576  0.3827 -0.1927  0.0154
  407TIP3    H122636   3.160   0.636  15.551  0.2562 -0.3638  0.4999
  407TIP3    H222637   3.257   0.591  15.658  0.3705  2.1603  1.5346
  408TIP3   OH222638   4.263   2.329   5.863 -0.5331  0.1797  0.0597
  408TIP3    H122639   4.241   2.256   5.920 -0.5550  0.1173 -0.0276
  408TIP3    H222640   4.203   2.320   5.788 -1.0202  0.6849  0.3708
  409TIP3   OH222641   5.673   1.368  12.354  0.1860  0.7471  0.1927
  409TIP3    H122642   5.580   1.383  12.367  0.2588  0.5711  0.9767
  409TIP3    H222643   5.679   1.324  12.269 -0.5459 -0.2497  0.6397
  410TIP3   OH222644   2.808   2.725   6.462  0.4327  0.3951 -0.2680
  410TIP3    H122645   2.867   2.683   6.525 -1.6133 -1.3908  0.5602
  410TIP3    H222646   2.727   2.739   6.511  0.1012  2.8234 -1.3596
  411TIP3   OH222647   6.774   4.271   1.097  0.4851  0.3824 -0.5358
  411TIP3    H122648   6.840   4.234   1.155 -1.4717 -0.0137  1.5697
  411TIP3    H222649   6.752   4.199   1.037  1.3492  0.2649 -0.7288
  412TIP3   OH222650   2.048   1.325  16.555 -0.3747 -0.1943 -0.2694
  412TIP3    H122651   2.011   1.253  16.606  0.9632 -1.5034 -1.0322
  412TIP3    H222652   2.064   1.394  16.619 -2.2771 -0.3113  0.3789
  413TIP3   OH222653   2.350   4.786  16.523 -0.3140 -0.4723 -0.1377
  413TIP3    H122654   2.340   4.805  16.430  0.3335 -0.0098 -0.1129
  413TIP3    H222655   2.383   4.696  16.526  1.4931  0.1463 -0.4354
  414TIP3   OH222656   5.025   3.477  12.553  0.4919 -0.3143 -0.2584
  414TIP3    H122657   5.041   3.399  12.501  0.1233  0.2577 -1.2654
  414TIP3    H222658   4.957   3.451  12.615  2.6904 -1.7427  1.7243
  415TIP3   OH222659   2.089   5.526  16.474  0.3447  0.4559 -0.1229
  415TIP3    H122660   2.111   5.438  16.507  1.4131  1.1274  1.0522
  415TIP3    H222661   2.147   5.539  16.400 -0.2080 -0.0307 -0.6551
  416TIP3   OH222662   5.155   5.036  14.412 -0.3939  0.2258 -0.0046
  416TIP3    H122663   5.115   4.949  14.414 -1.3223  0.6026 -1.1448
  416TIP3    H222664   5.087   5.093  14.378  0.7625  1.0974 -0.9336
  417TIP3   OH222665   2.145   0.798  15.779 -0.4241  0.3187  0.0714
  417TIP3    H122666   2.130   0.708  15.752  0.7133  0.3967 -0.9048
  417TIP3    H222667   2.141   0.849  15.698  0.7755  0.8697  0.3340
  418TIP3   OH222668   0.706   1.226  16.243  0.3732  0.1837 -0.1605
  418TIP3    H122669   0.778   1.198  16.186  0.7757  2.7395 -1.0427
  418TIP3    H222670   0.628   1.186  16.206  0.4859  2.4463 -3.1871
  419TIP3   OH222671   3.091   3.420  11.881  0.0289 -0.3585 -0.1340
  419TIP3    H122672   3.038   3.341  11.874  0.7212 -0.8428 -0.0664
  419TIP3    H222673   3.029   3.489  11.904 -0.5098 -0.9824  0.3278
  420TIP3   OH222674   4.451   4.464   3.711 -0.0874 -0.2529  0.1573
  420TIP3    H122675   4.427   4.384   3.665 -0.1851 -0.3299  0.3377
  420TIP3    H222676   4.439   4.534   3.647 -1.0635 -0.2598  0.3116
  421TIP3   OH222677   2.876   1.637  15.447  0.4147 -0.1553 -0.6813
  421TIP3    H122678   2.847   1.625  15.356 -1.0653 -0.4090 -0.1971
  421TIP3    H222679   2.935   1.713  15.443 -0.8362  0.8139 -1.6220
  422TIP3   OH222680   4.199   6.647   0.139 -0.0001  0.4991 -0.1217
  422TIP3    H122681   4.138   6.603   0.080  0.2953  0.1324 -0.1596
  422TIP3    H222682   4.283   6.602   0.124  0.0948  0.4636  0.5182
  423TIP3   OH222683   3.111   0.508   4.357  0.0148 -0.4699  0.0610
  423TIP3    H122684   3.081   0.575   4.420  0.2546  0.3055 -0.6294
  423TIP3    H222685   3.055   0.433   4.374  0.2868 -0.3906  1.4253
  424TIP3   OH222686   6.508   5.317   2.554 -0.7255  0.5716  0.3313
  424TIP3    H122687   6.475   5.324   2.644  2.2060 -1.1207  1.6774
  424TIP3    H222688   6.487   5.227   2.528  0.6488  0.2419  0.3193
  425TIP3   OH222689   1.720   6.523  11.564  0.0841  0.1646  0.2451
  425TIP3    H122690   1.748   6.466  11.492  0.6265 -0.0803  0.6385
  425TIP3    H222691   1.795   6.580  11.580  0.3894 -0.5045  1.3226
  426TIP3   OH222692   3.401   5.508   5.022  0.1489 -0.1285  0.3798
  426TIP3    H122693   3.307   5.490   5.025  0.1416 -0.0280  1.6219
  426TIP3    H222694   3.409   5.583   4.963 -0.4759 -0.5225 -0.2208
  427TIP3   OH222695   2.069   1.582   5.370 -0.1771 -0.2990 -0.0922
  427TIP3    H122696   2.026   1.535   5.441 -0.3092  1.0328  0.7237
  427TIP3    H222697   1.998   1.621   5.320 -0.0493 -0.7137 -0.6189
  428TIP3   OH222698   2.102   1.827   0.759  0.1412  0.4019 -0.1558
  428TIP3    H122699   2.021   1.807   0.711 -1.0224 -1.7677  2.5020
  428TIP3    H222700   2.095   1.921   0.777 -1.5456  0.3746 -0.4431
  429TIP3   OH222701   2.364   5.964   5.672 -0.2521  0.1620  0.6945
  429TIP3    H122702   2.427   6.037   5.672 -0.3428  0.2827  2.4619
  429TIP3    H222703   2.283   6.003   5.638  0.1340  0.4648  0.1006
  430TIP3   OH222704   2.725   2.718   4.967  0.0687  0.2864  0.0653
  430TIP3    H122705   2.808   2.683   4.934  0.1525  0.1841  0.3842
  430TIP3    H222706   2.679   2.748   4.888  0.9343  1.5129  0.0160
  431TIP3   OH222707   2.515   4.396   4.465  0.4427  0.2784 -0.6974
  431TIP3    H122708   2.578   4.324   4.465  0.5956  0.3949 -1.8745
  431TIP3    H222709   2.513   4.427   4.375 -1.1895  0.3927 -0.6545
  432TIP3   OH222710   2.867   3.046  14.129  0.0527 -0.2928  0.2606
  432TIP3    H122711   2.897   2.958  14.103 -0.0574 -0.3120  0.2008
  432TIP3    H222712   2.923   3.068  14.204 -1.0254 -1.1106  1.3442
  433TIP3   OH222713   2.346   4.006   2.270  0.1114 -0.2242 -0.3694
  433TIP3    H122714   2.253   4.020   2.291  0.1366 -0.7866  0.1669
  433TIP3    H222715   2.361   4.057   2.191 -0.3254  0.9601  0.2792
  434TIP3   OH222716   1.494   4.586  13.489  0.3462  0.2530 -0.4642
  434TIP3    H122717   1.409   4.613  13.524 -0.2788  0.1142 -1.8125
  434TIP3    H222718   1.558   4.633  13.543 -0.5445 -0.1182  0.9903
  435TIP3   OH222719   1.034   0.467  13.212  0.5236  0.2779 -0.4520
  435TIP3    H122720   0.978   0.534  13.172  0.1117 -0.8892 -1.9491
  435TIP3    H222721   1.078   0.426  13.137 -0.8787 -2.5477  0.1455
  436TIP3   OH222722   2.933   0.592  11.828 -0.3438 -0.5839 -0.3072
  436TIP3    H122723   3.014   0.642  11.820  0.3015 -1.6237 -0.3271
  436TIP3    H222724   2.908   0.600  11.920 -0.8960  0.7418 -0.5416
  437TIP3   OH222725   6.674   1.840   1.862 -0.4481  0.2496  0.6986
  437TIP3    H122726   6.603   1.781   1.834  0.5802 -1.1762  0.9891
  437TIP3    H222727   6.714   1.795   1.936  3.4675 -1.1653 -1.9727
  438TIP3   OH222728   5.041   1.633  15.815  0.5972  0.1112  0.0714
  438TIP3    H122729   5.081   1.688  15.883 -0.0527  1.8362 -0.8947
  438TIP3    H222730   5.115   1.604  15.761  0.8796  0.5391  0.2271
  439TIP3   OH222731   5.529   4.993  11.677 -0.5841  0.1356 -1.0505
  439TIP3    H122732   5.554   5.075  11.720  0.9656 -1.3273  1.0283
  439TIP3    H222733   5.593   4.982  11.607  0.5021 -0.2434 -0.0396
  440TIP3   OH222734   6.139   5.830  11.705 -0.4155  0.0623  0.3051
  440TIP3    H122735   6.115   5.794  11.790 -3.4713 -0.9121 -0.8435
  440TIP3    H222736   6.136   5.925  11.718 -1.7865 -0.0571  1.0959
  441TIP3   OH222737   0.857   6.492   4.670 -0.5527 -0.3995  0.2121
  441TIP3    H122738   0.795   6.522   4.603 -0.7965  2.3022  1.5036
  441TIP3    H222739   0.919   6.437   4.622 -1.5437  0.2478 -1.9390
  442TIP3   OH222740   4.250   6.327   6.626 -0.0187  0.0413  0.3838
  442TIP3    H122741   4.299   6.356   6.703  1.7503 -0.9685 -0.3074
  442TIP3    H222742   4.256   6.400   6.564 -0.2562  0.3100  0.6777
  443TIP3   OH222743   3.548   2.448   1.115  0.2010 -0.1119 -0.0078
  443TIP3    H122744   3.508   2.420   1.033  1.2114  0.0341 -0.5718
  443TIP3    H222745   3.475   2.455   1.177 -0.4675 -0.9767 -0.6803
  444TIP3   OH222746   4.819   2.370  16.110  0.3379 -0.1419  0.0775
  444TIP3    H122747   4.792   2.449  16.063 -0.4948 -1.6391 -2.1196
  444TIP3    H222748   4.862   2.316  16.044 -0.5591 -2.2267  1.1029
  445TIP3   OH222749   0.065   5.041  11.831  0.5013 -0.3021  0.6978
  445TIP3    H122750   0.151   5.082  11.841  0.9291 -1.4038  1.8483
  445TIP3    H222751   0.003   5.111  11.854  1.1129  0.3007  0.5584
  446TIP3   OH222752   1.212   2.913  13.182  0.6793 -0.5806  0.0270
  446TIP3    H122753   1.283   2.849  13.175  1.6752  0.7095 -3.2813
  446TIP3    H222754   1.255   2.998  13.179 -0.9064  0.2395 -1.2760
  447TIP3   OH222755   4.213   2.363  16.936 -0.6909  0.1157 -0.3425
  447TIP3    H122756   4.253   2.284  16.901 -0.8943  0.1886 -0.7520
  447TIP3    H222757   4.126   2.336  16.966 -0.6022  0.0990 -0.1002
  448TIP3   OH222758   2.896   3.837  10.509  0.4317  0.7065 -0.3777
  448TIP3    H122759   2.852   3.800  10.432 -1.6844 -0.4034  1.2684
  448TIP3    H222760   2.976   3.877  10.474 -0.0428 -0.4626 -3.0194
  449TIP3   OH222761   5.978   1.038  12.839 -0.0654  0.1745  0.3015
  449TIP3    H122762   5.986   1.074  12.927 -1.1609  2.6584 -0.5403
  449TIP3    H222763   5.901   1.080  12.802  0.4199 -0.7106 -1.9104
  450TIP3   OH222764   4.863   4.219   0.323  0.0149 -0.6453  0.0496
  450TIP3    H122765   4.906   4.291   0.276 -0.3443 -0.1482  0.4736
  450TIP3    H222766   4.793   4.261   0.373 -0.8423 -1.4262 -0.4777
  451TIP3   OH222767   1.495   0.042   3.666 -0.1718 -0.3089  0.2693
  451TIP3    H122768   1.427   0.009   3.608 -1.0470 -0.0585  1.1162
  451TIP3    H222769   1.493   0.137   3.653  1.1464 -0.4047 -0.8849
  452TIP3   OH222770   3.994   4.972   0.613 -0.0640 -0.7829 -0.1055
  452TIP3    H122771   3.991   4.936   0.524 -1.2017  3.2730 -1.9324
  452TIP3    H222772   4.086   4.996   0.626  0.1942 -1.8107  0.0743
  453TIP3   OH222773   4.778   3.500   2.208  0.4164  0.5485 -0.1364
  453TIP3    H122774   4.807   3.506   2.298 -0.5017 -0.4225  0.2437
  453TIP3    H222775   4.759   3.407   2.194  0.5897  0.6702 -1.3422
  454TIP3   OH222776   1.318   0.644  15.720 -0.0544 -0.0694 -0.1229
  454TIP3    H122777   1.330   0.734  15.751 -0.5352 -0.5210  1.4815
  454TIP3    H222778   1.227   0.641  15.688 -0.3868 -0.2436  0.8154
  455TIP3   OH222779   4.865   3.544   5.864  0.1631  0.3473 -0.6024
  455TIP3    H122780   4.788   3.486   5.863 -1.4357  2.2843  1.2057
  455TIP3    H222781   4.848   3.608   5.795  0.9958 -0.1423 -1.2903
  456TIP3   OH222782   0.983   3.129   0.351  0.0584 -0.5264 -0.1367
  456TIP3    H122783   0.894   3.163   0.358  0.7381  1.3792 -0.1080
  456TIP3    H222784   1.008   3.144   0.260  0.4144 -0.8912 -0.1018
  457TIP3   OH222785   6.340   3.214   2.915 -0.5442 -0.4759 -0.1588
  457TIP3    H122786   6.377   3.182   2.997 -2.0765 -1.3249  0.2482
  457TIP3    H222787   6.416   3.234   2.860  0.5988  1.7336  2.0204
  458TIP3   OH222788   0.037   0.718   2.965 -0.0512  0.6626  0.4213
  458TIP3    H122789   0.030   0.769   2.884 -2.9499  1.9815  1.3715
  458TIP3    H222790   0.090   0.641   2.940 -1.8873  0.3155 -3.0923
  459TIP3   OH222791   2.199   1.521  11.572 -0.1045 -0.1495  0.0706
  459TIP3    H122792   2.252   1.448  11.541 -0.0830 -0.2590  0.3572
  459TIP3    H222793   2.144   1.545  11.498  1.1003  0.6750 -0.5940
  460TIP3   OH222794   0.088   5.487   0.992 -0.0509 -0.1232 -0.1393
  460TIP3    H122795   0.013   5.461   0.940  0.0385  1.5279 -1.1620
  460TIP3    H222796   0.087   5.428   1.068 -1.8111 -0.7232 -0.5960
  461TIP3   OH222797   4.199   1.245   3.723 -0.4498  0.2245  0.5166
  461TIP3    H122798   4.257   1.213   3.793  0.7186 -0.4906 -0.7340
  461TIP3    H222799   4.234   1.205   3.643 -2.3590  0.2153 -0.3612
  462TIP3   OH222800   6.317   2.203   2.926 -0.5980  0.7214 -0.7429
  462TIP3    H122801   6.389   2.260   2.952  0.6960 -1.0413 -0.2697
  462TIP3    H222802   6.329   2.124   2.979 -1.9719 -0.2394 -1.7949
  463TIP3   OH222803   1.584   2.471  16.052 -0.6078 -0.2906 -0.4762
  463TIP3    H122804   1.633   2.408  16.105 -2.5415 -1.1654  0.3854
  463TIP3    H222805   1.638   2.550  16.052  0.5564 -1.0450  0.8115
  464TIP3   OH222806   3.625   1.083   2.709 -0.0439 -0.8895  0.7088
  464TIP3    H122807   3.693   1.149   2.701  1.0896 -2.2290 -1.8265
  464TIP3    H222808   3.543   1.129   2.689  0.1961  0.4775  2.6404
  465TIP3   OH222809   6.543   4.071  15.174  0.1180 -0.0669 -0.6238
  465TIP3    H122810   6.546   4.166  15.176 -1.1544  0.0368 -1.7998
  465TIP3    H222811   6.613   4.043  15.233  0.0934  1.5840  0.2437
  466TIP3   OH222812   1.074   4.981   3.163  0.1316  0.2830  0.7061
  466TIP3    H122813   1.048   5.066   3.197 -0.3438  0.0822  0.8524
  466TIP3    H222814   1.046   4.982   3.071 -0.1415  0.1720  0.7883
  467TIP3   OH222815   1.920   4.141  13.168  0.1280  0.3960 -0.2933
  467TIP3    H122816   1.967   4.103  13.243  2.7064  1.0961 -1.4280
  467TIP3    H222817   1.969   4.111  13.091  0.2504  3.1821 -1.4315
  468TIP3   OH222818   5.918   2.410  12.568  0.0539  0.1871  0.3783
  468TIP3    H122819   5.901   2.365  12.486  0.0559 -0.4171  0.7022
  468TIP3    H222820   5.953   2.343  12.626 -2.0379  0.0408  1.5796
  469TIP3   OH222821   5.685   4.610   2.899 -0.0734  0.0018  0.2919
  469TIP3    H122822   5.621   4.681   2.904 -1.3994 -1.1715  0.8714
  469TIP3    H222823   5.643   4.537   2.945  1.7424 -0.7924  0.7950
  470TIP3   OH222824   2.588   0.834   1.989 -0.3191 -0.1354 -0.4088
  470TIP3    H122825   2.510   0.792   1.952 -1.6301  0.0985  1.8475
  470TIP3    H222826   2.568   0.842   2.083  1.9843  0.9579  0.0652
  471TIP3   OH222827   0.568   3.901  14.681  0.1133  0.2167  0.5151
  471TIP3    H122828   0.541   3.838  14.747 -1.8727 -0.8396 -1.1766
  471TIP3    H222829   0.550   3.987  14.719  1.6109 -0.2135  2.3349
  472TIP3   OH222830   1.693   1.840   5.170  0.4506  0.1575 -0.0831
  472TIP3    H122831   1.634   1.764   5.172  1.5973 -0.7888 -0.5478
  472TIP3    H222832   1.676   1.881   5.085 -0.3498  0.5858  0.2719
  473TIP3   OH222833   5.826   6.298   2.031 -0.1631 -0.3873  0.2550
  473TIP3    H122834   5.829   6.349   2.112 -0.3094 -0.5365  0.3553
  473TIP3    H222835   5.740   6.317   1.994  0.0801  0.0498 -0.1103
  474TIP3   OH222836   2.441   4.952  15.819  0.5801  0.0575 -0.7619
  474TIP3    H122837   2.523   4.961  15.867  1.2761 -1.3639 -1.6285
  474TIP3    H222838   2.405   5.040  15.816  0.1810  0.2021  2.8912
  475TIP3   OH222839   4.646   3.692   3.794 -0.4486 -0.7829 -0.6500
  475TIP3    H122840   4.710   3.749   3.836 -0.5125 -0.3913 -1.0763
  475TIP3    H222841   4.677   3.603   3.813 -0.6058 -0.6185  0.4139
  476TIP3   OH222842   0.111   0.873  12.820  0.3786  0.0027  0.2441
  476TIP3    H122843   0.190   0.860  12.768  0.0832  1.1840 -0.5322
  476TIP3    H222844   0.072   0.953  12.785 -1.9462 -1.3057 -0.4116
  477TIP3   OH222845   3.613   3.660  14.228  0.3502 -0.6633  0.2285
  477TIP3    H122846   3.548   3.656  14.298 -0.2052  0.3234 -0.1886
  477TIP3    H222847   3.695   3.631  14.268  0.1972  0.5113  1.4763
  478TIP3   OH222848   1.507   5.440  12.937 -0.1779  0.4571  0.7694
  478TIP3    H122849   1.568   5.497  12.983  0.0913 -0.3511  1.4432
  478TIP3    H222850   1.504   5.475  12.848  0.8113  0.8628  0.8830
  479TIP3   OH222851   2.398   6.039   3.035  0.5613  0.1010 -0.2978
  479TIP3    H122852   2.431   6.125   3.062 -0.2780  0.9745 -1.9478
  479TIP3    H222853   2.473   5.980   3.045  0.8751  0.7800  1.8117
  480TIP3   OH222854   6.043   0.858  17.088  0.2431 -0.1616  0.1559
  480TIP3    H122855   5.989   0.907  17.150 -0.8083 -1.7682  0.5629
  480TIP3    H222856   6.068   0.778  17.135 -0.3461 -1.2902 -1.3643
  481TIP3   OH222857   2.964   6.013  16.254  0.1629  0.0191 -0.0661
  481TIP3    H122858   2.942   6.104  16.275  1.0090 -0.1021  1.4988
  481TIP3    H222859   2.898   5.987  16.190 -1.0475  1.2483  0.6222
  482TIP3   OH222860   0.802   3.066  13.510  0.0326  0.2186  0.3184
  482TIP3    H122861   0.865   3.022  13.452 -0.5812  0.0578 -0.2364
  482TIP3    H222862   0.767   3.138  13.458 -1.3852 -0.6250  0.0594
  483TIP3   OH222863   3.830   4.021   3.271  0.0280  0.3484  0.2137
  483TIP3    H122864   3.885   4.099   3.270  1.4610 -0.5322  2.4828
  483TIP3    H222865   3.890   3.949   3.257 -1.0850 -0.4579 -0.5836
  484TIP3   OH222866   1.149   2.742  17.013  0.0120 -0.1420 -0.2271
  484TIP3    H122867   1.218   2.731  17.078 -0.1824  1.5266  0.3151
  484TIP3    H222868   1.068   2.746  17.064 -0.2359  0.2248 -0.6372
  485TIP3   OH222869   3.160   2.410   5.673 -0.0221 -0.7265 -0.5069
  485TIP3    H122870   3.128   2.419   5.583  1.7186 -0.8092 -1.1630
  485TIP3    H222871   3.213   2.488   5.687 -1.4276  0.0110  0.9836
  486TIP3   OH222872   4.589   1.282   5.638 -0.6094  0.2237  0.5284
  486TIP3    H122873   4.627   1.311   5.721  0.0385  0.4382  0.1594
  486TIP3    H222874   4.542   1.359   5.605  2.4309  1.4931 -1.2401
  487TIP3   OH222875   6.443   4.724   0.786 -0.6285  0.3316  0.1280
  487TIP3    H122876   6.385   4.800   0.790 -1.4660 -0.2373 -1.0676
  487TIP3    H222877   6.392   4.653   0.824  0.2796  0.3923  1.5729
  488TIP3   OH222878   0.149   4.777  11.904  0.2574 -0.1793  0.4174
  488TIP3    H122879   0.190   4.808  11.985  1.0921  1.3106 -0.5441
  488TIP3    H222880   0.069   4.829  11.896  0.1314 -0.3850  0.3235
  489TIP3   OH222881   2.687   1.455  13.513  0.5332  0.1266 -0.9110
  489TIP3    H122882   2.781   1.464  13.499  0.4811  0.4218 -1.0631
  489TIP3    H222883   2.679   1.388  13.582  0.7959 -1.1698 -2.1006
  490TIP3   OH222884   0.199   0.628   1.691  0.3337  0.1391 -0.6793
  490TIP3    H122885   0.233   0.712   1.724  0.2636  0.9053 -2.4430
  490TIP3    H222886   0.236   0.563   1.750  1.3628  1.3130  0.0330
  491TIP3   OH222887   3.528   6.337   3.103  0.0847  0.1431 -0.3882
  491TIP3    H122888   3.514   6.346   3.197 -0.6635  1.4815 -0.5980
  491TIP3    H222889   3.523   6.427   3.069  1.6421 -0.1614 -1.5405
  492TIP3   OH222890   5.082   1.466  14.041 -0.0687  0.4035 -0.3615
  492TIP3    H122891   5.098   1.372  14.051  3.9290  0.5960 -2.5443
  492TIP3    H222892   5.067   1.477  13.947  0.0485  1.9842 -0.2205
  493TIP3   OH222893   3.460   5.352   0.090  0.7157 -0.6152  0.6508
  493TIP3    H122894   3.405   5.349   0.012  0.5134  3.7508  0.3677
  493TIP3    H222895   3.399   5.369   0.162  1.2509 -0.4475  1.0731
  494TIP3   OH222896   2.704   1.702   5.558  0.3347  0.0422 -0.3852
  494TIP3    H122897   2.729   1.666   5.644  1.1808  0.2347 -0.5433
  494TIP3    H222898   2.736   1.792   5.560 -0.3624  0.2987 -0.6026
  495TIP3   OH222899   5.364   2.160  15.035  0.3433 -0.6926  0.1479
  495TIP3    H122900   5.447   2.195  15.068  0.2857 -0.2349 -0.1783
  495TIP3    H222901   5.377   2.152  14.941  0.5873 -2.2124  0.2903
  496TIP3   OH222902   5.015   5.187  11.833 -0.9583 -0.2971  0.1283
  496TIP3    H122903   5.077   5.256  11.809 -1.4110  0.5329  1.3008
  496TIP3    H222904   5.067   5.107  11.830  0.2185  0.3898  1.2112
  497TIP3   OH222905   3.158   1.366   3.089  0.4834  0.1197 -0.1398
  497TIP3    H122906   3.245   1.333   3.067  0.3228 -1.1372  0.9254
  497TIP3    H222907   3.108   1.357   3.009  1.1721  0.2817 -0.5984
  498TIP3   OH222908   3.336   4.277  15.794 -0.1769  0.1725  0.3522
  498TIP3    H122909   3.284   4.357  15.795  2.1233  1.7509  0.7725
  498TIP3    H222910   3.341   4.253  15.701 -1.7173 -0.0925  0.3191
  499TIP3   OH222911   2.568   0.303  16.503  0.4446 -0.0264 -0.1904
  499TIP3    H122912   2.525   0.386  16.524 -1.6846 -0.1232 -3.5331
  499TIP3    H222913   2.576   0.258  16.587 -1.0480  2.3062  1.3073
  500TIP3   OH222914   6.236   1.677  17.132 -0.6464 -0.0693 -0.3456
  500TIP3    H122915   6.157   1.624  17.124  0.3043 -1.8471  1.1461
  500TIP3    H222916   6.253   1.707  17.043 -2.3928 -0.5417 -0.8863
  501TIP3   OH222917   0.417   6.467  12.554 -0.4572  0.0786 -0.3651
  501TIP3    H122918   0.374   6.553  12.555  0.5286  0.6115 -1.4679
  501TIP3    H222919   0.348   6.407  12.525 -0.7443  0.7717 -1.1924
  502TIP3   OH222920   3.819   5.044   3.566 -0.3763  0.0282 -0.4450
  502TIP3    H122921   3.737   5.061   3.611  0.0411 -0.6780  0.6325
  502TIP3    H222922   3.793   5.015   3.478 -1.2914 -0.4303 -0.0391
  503TIP3   OH222923   1.640   3.741  13.146  0.1039 -1.2175 -0.2619
  503TIP3    H122924   1.617   3.833  13.157  0.2267 -1.1629 -0.4362
  503TIP3    H222925   1.720   3.744  13.093 -0.5608 -1.4594 -1.3188
  504TIP3   OH222926   4.029   3.448   4.810 -0.2194  0.1492  0.0413
  504TIP3    H122927   4.099   3.383   4.806 -1.4919 -1.3776  1.1595
  504TIP3    H222928   4.004   3.451   4.903 -1.4713  0.8044 -0.2922
  505TIP3   OH222929   0.774   2.905   1.745  0.3945 -0.2669  0.2585
  505TIP3    H122930   0.842   2.910   1.813  1.5130  0.9267 -0.8783
  505TIP3    H222931   0.767   2.812   1.724  2.4922 -0.3488 -0.3214
  506TIP3   OH222932   1.345   3.182  12.293  0.6026  0.1835  0.5191
  506TIP3    H122933   1.428   3.144  12.321  0.3847  0.4406  1.5550
  506TIP3    H222934   1.304   3.114  12.240  2.2597  0.6971 -1.6200
  507TIP3   OH222935   2.259   6.433   5.572 -0.2752  0.1235  0.0583
  507TIP3    H122936   2.225   6.429   5.483  2.0826 -2.1835 -0.8655
  507TIP3    H222937   2.225   6.353   5.614  1.5218 -0.6924  0.0260
  508TIP3   OH222938   6.171   5.408   2.300 -0.2139 -0.9886  0.2679
  508TIP3    H122939   6.224   5.330   2.315  1.4115 -0.3036 -1.5088
  508TIP3    H222940   6.189   5.464   2.375  2.0471 -0.5893 -0.4844
  509TIP3   OH222941   2.670   3.191   2.980 -0.5239 -0.1943 -0.0632
  509TIP3    H122942   2.605   3.188   3.051  1.1860 -2.8719  1.5365
  509TIP3    H222943   2.621   3.224   2.905 -3.1977 -0.1243  1.5726
  510TIP3   OH222944   1.883   3.852   5.443  0.5724  0.2046 -0.3486
  510TIP3    H122945   1.971   3.821   5.422  0.7253  1.2164 -1.3177
  510TIP3    H222946   1.876   3.845   5.538  2.5648  2.2732  0.0063
  511TIP3   OH222947   5.239   0.922   0.898 -0.5028 -0.8784  0.1334
  511TIP3    H122948   5.306   0.860   0.866  0.8212  1.2753 -1.5490
  511TIP3    H222949   5.185   0.940   0.822 -2.3977 -1.7323  1.2120
  512TIP3   OH222950   0.019   3.030   2.472 -0.1625  0.2016 -0.7791
  512TIP3    H122951   0.002   3.122   2.492 -1.3737 -0.0639 -0.5227
  512TIP3    H222952  -0.026   2.982   2.541  1.6945 -0.5762 -0.0467
  513TIP3   OH222953   5.638   4.815  11.477  0.1120  0.2900  0.3462
  513TIP3    H122954   5.558   4.835  11.427 -0.5010 -0.2698  1.0830
  513TIP3    H222955   5.695   4.771  11.414 -0.1105  0.7881 -0.2201
  514TIP3   OH222956   0.814   4.118   3.589  0.5694  0.3045 -0.1641
  514TIP3    H122957   0.723   4.103   3.616  1.1126 -0.2365  1.4926
  514TIP3    H222958   0.824   4.068   3.508 -0.4944  0.0409 -0.1459
  515TIP3   OH222959   5.191   0.881   1.418  0.1823  0.2373  0.4814
  515TIP3    H122960   5.133   0.945   1.379 -1.5323  0.1351  2.6644
  515TIP3    H222961   5.215   0.822   1.346 -0.5556  1.6072 -0.9284
  516TIP3   OH222962   2.475   2.196  12.589  0.5900  0.1646  0.2013
  516TIP3    H122963   2.443   2.133  12.524 -0.8623  0.0465  0.9756
  516TIP3    H222964   2.402   2.205  12.651  0.8068  2.4836  0.2174
  517TIP3   OH222965   0.143   0.542   0.052  0.0573 -0.6301  0.5142
  517TIP3    H122966   0.154   0.486   0.129 -0.8205 -1.1357  0.2850
  517TIP3    H222967   0.064   0.509   0.010  1.0818 -1.0327 -1.1726
  518TIP3   OH222968   1.427   0.092  16.383 -0.2787 -0.6470  0.3218
  518TIP3    H122969   1.476   0.174  16.382 -0.5510 -0.4488 -2.0427
  518TIP3    H222970   1.405   0.079  16.475 -0.7073  2.2046  0.7149
  519TIP3   OH222971   4.051   6.476   4.096 -0.3628 -0.4080  0.7762
  519TIP3    H122972   3.981   6.523   4.052 -0.6850 -0.3447  1.3509
  519TIP3    H222973   4.106   6.443   4.025 -0.3005  0.5621  0.3579
  520TIP3   OH222974   4.008   0.300   3.120 -0.1319  0.4039 -0.0200
  520TIP3    H122975   4.070   0.242   3.164 -2.2816 -1.5990  0.5414
  520TIP3    H222976   4.040   0.305   3.030  0.0838 -1.7758 -0.1029
  521TIP3   OH222977   4.602   2.479   1.463 -0.2937 -0.4745 -0.2048
  521TIP3    H122978   4.513   2.472   1.427  0.5593  2.5104 -3.3864
  521TIP3    H222979   4.604   2.566   1.505  0.9943 -0.7169  0.2906
  522TIP3   OH222980   4.664   1.256   4.873  0.0090 -0.0016  0.3982
  522TIP3    H122981   4.729   1.188   4.855  0.8178  0.7010  0.5887
  522TIP3    H222982   4.655   1.303   4.791  1.4347  1.2954  0.9287
  523TIP3   OH222983   6.699   1.905  11.388  0.2988 -0.7231 -0.2779
  523TIP3    H122984   6.719   1.878  11.477  0.9623  0.8248  0.0910
  523TIP3    H222985   6.620   1.958  11.396  2.1066  2.2304  0.0309
  524TIP3   OH222986   4.869   3.139  13.880 -0.2117 -0.2560  0.2456
  524TIP3    H122987   4.865   3.214  13.940  2.2056 -0.7413  1.1249
  524TIP3    H222988   4.784   3.097  13.890 -1.7005  2.3497 -0.3430
  525TIP3   OH222989   6.754   2.304  16.679  0.2953  0.1524  0.3187
  525TIP3    H122990   6.702   2.380  16.653  1.5677  1.2031  0.7360
  525TIP3    H222991   6.767   2.316  16.773 -0.9622 -1.5326  0.7499
  526TIP3   OH222992   1.223   5.703   2.682 -0.0266  0.1818  0.3587
  526TIP3    H122993   1.148   5.645   2.669 -1.7152  2.4123 -0.4522
  526TIP3    H222994   1.282   5.683   2.609 -0.8143 -0.1582 -0.2018
  527TIP3   OH222995   4.385   1.075  16.581  0.0862  0.4566  0.1423
  527TIP3    H122996   4.417   1.049  16.668  4.9404  1.7410 -0.9590
  527TIP3    H222997   4.381   0.993  16.532  1.9255  0.1421  0.4101
  528TIP3   OH222998   1.380   1.627   4.392  0.2315 -0.2018 -0.0530
  528TIP3    H122999   1.298   1.675   4.389  0.0243 -0.4312  1.2704
  528TIP3    H223000   1.427   1.654   4.313 -0.6003  0.8476 -0.2031
  529TIP3   OH223001   5.273   4.641  12.971  0.0665 -0.1481  0.2051
  529TIP3    H123002   5.263   4.597  12.886 -0.1486 -0.2262  0.2717
  529TIP3    H223003   5.344   4.593  13.015 -2.1180 -2.3634  1.5197
  530TIP3   OH223004   6.589   0.982   5.257 -0.0027 -0.3306  0.2037
  530TIP3    H123005   6.561   0.934   5.334  0.0752 -2.3682 -0.9545
  530TIP3    H223006   6.684   0.970   5.255  0.0278 -0.0540 -0.0594
  531TIP3   OH223007   2.002   0.935   2.972  0.2239  0.7064  0.0543
  531TIP3    H123008   2.082   0.966   3.013 -0.0622  1.4787  0.0426
  531TIP3    H223009   1.987   0.994   2.899 -0.5904  0.8536  0.3221
  532TIP3   OH223010   3.985   1.849  14.602 -0.5037  0.8388 -0.2546
  532TIP3    H123011   3.984   1.784  14.532  1.0709  2.3099 -1.7654
  532TIP3    H223012   4.038   1.810  14.671 -0.8661 -0.0690 -0.4752
  533TIP3   OH223013   5.160   0.015   4.497 -0.0490 -0.4606  0.2908
  533TIP3    H123014   5.181  -0.039   4.573 -0.2212 -0.9342  0.0079
  533TIP3    H223015   5.064   0.023   4.499 -0.1989 -1.6951 -0.6774
  534TIP3   OH223016   4.053   1.357  13.822  0.5056  0.0209  0.2616
  534TIP3    H123017   4.053   1.318  13.910  0.5771 -1.3386 -0.3172
  534TIP3    H223018   4.077   1.285  13.764 -1.5398  0.3680 -1.1155
  535TIP3   OH223019   4.410   1.631  14.189 -0.3339  0.1833 -0.2326
  535TIP3    H123020   4.410   1.726  14.204 -0.3233  0.1683 -0.1382
  535TIP3    H223021   4.368   1.620  14.103 -0.1318  0.2909 -0.3480
  536TIP3   OH223022   3.380   0.063   2.430 -0.3709  0.5184  0.1901
  536TIP3    H123023   3.451   0.021   2.383  0.5614  2.1889  0.0243
  536TIP3    H223024   3.401   0.049   2.522  0.7918  1.8939  0.1685
  537TIP3   OH223025   4.857   5.632   0.090 -0.3558 -0.0649  0.1024
  537TIP3    H123026   4.884   5.723   0.079 -1.7113  0.5924  1.8367
  537TIP3    H223027   4.763   5.636   0.104 -0.8463 -1.9620 -1.9364
  538TIP3   OH223028   5.507   5.146   0.464  0.1661  0.4292  0.2901
  538TIP3    H123029   5.450   5.207   0.511 -0.4496 -0.5253  0.8173
  538TIP3    H223030   5.454   5.067   0.453  1.3255 -0.4179  0.6220
  539TIP3   OH223031   5.498   4.093   4.354  0.5519  0.0164  0.1533
  539TIP3    H123032   5.496   4.070   4.261 -0.3812 -0.3097  0.2415
  539TIP3    H223033   5.500   4.009   4.400 -2.8225 -0.0295  0.4790
  540TIP3   OH223034   0.356   4.713   3.003  0.0482  0.5492 -0.4956
  540TIP3    H123035   0.270   4.676   3.021  0.7811 -0.3586  1.3469
  540TIP3    H223036   0.339   4.784   2.941 -1.7634 -0.9061 -1.7698
  541TIP3   OH223037   2.900   6.690  13.738 -0.5886 -0.1877 -0.3678
  541TIP3    H123038   2.985   6.662  13.772 -0.8855 -0.3264  0.2616
  541TIP3    H223039   2.867   6.753  13.803 -1.1466 -0.4383 -0.4034
  542TIP3   OH223040   3.390   0.844  15.132 -0.9053  0.3376  0.2521
  542TIP3    H123041   3.459   0.897  15.091 -1.8730  0.7708 -0.8857
  542TIP3    H223042   3.309   0.891  15.112 -1.6154 -0.6081  0.8245
  543TIP3   OH223043   5.048   1.097  13.159  1.0674  0.3544  0.2486
  543TIP3    H123044   5.070   1.140  13.241  0.2534  0.6504  0.3219
  543TIP3    H223045   5.133   1.073  13.121  1.4377 -0.3132  1.4445
  544TIP3   OH223046   2.755   4.122   3.733 -0.2759  0.3731 -0.2482
  544TIP3    H123047   2.818   4.070   3.783  1.6625  0.6563 -2.2439
  544TIP3    H223048   2.669   4.088   3.759  0.8005 -1.8891  0.5679
  545TIP3   OH223049   0.306   3.579   0.498 -0.1018 -0.3724 -0.2195
  545TIP3    H123050   0.308   3.631   0.578 -0.1028 -0.8221  0.0746
  545TIP3    H223051   0.313   3.488   0.528 -3.5861 -0.8390 -0.4375
  546TIP3   OH223052   1.554   3.357  16.234  0.4236 -0.1880 -0.0205
  546TIP3    H123053   1.585   3.287  16.291 -0.3091  0.3931  1.1300
  546TIP3    H223054   1.476   3.391  16.278  0.7995  1.3983 -0.4914
  547TIP3   OH223055   5.312   3.259   2.277  0.5349  0.7671 -0.1188
  547TIP3    H123056   5.380   3.244   2.343  1.1109  0.6462 -0.7264
  547TIP3    H223057   5.235   3.214   2.312  1.0953 -0.1136  0.0335
  548TIP3   OH223058   3.815   4.820   5.296 -0.2900 -0.5665 -0.1795
  548TIP3    H123059   3.744   4.756   5.305 -1.2607  0.5527  0.3214
  548TIP3    H223060   3.887   4.783   5.347  0.4463 -2.9460 -2.6608
  549TIP3   OH223061   3.221   3.254   1.382  0.3971 -0.4561 -0.3365
  549TIP3    H123062   3.236   3.184   1.446  1.0666 -0.2077 -0.2181
  549TIP3    H223063   3.215   3.334   1.435  3.1846  0.0994 -0.6895
  550TIP3   OH223064   2.193   0.667   0.044 -0.3297 -0.0201  0.2390
  550TIP3    H123065   2.137   0.738   0.077 -1.7970 -0.6474 -0.7872
  550TIP3    H223066   2.269   0.668   0.102 -0.1910  2.5308  0.1157
  551TIP3   OH223067   4.507   1.389  13.861 -0.1540 -0.1187  0.3613
  551TIP3    H123068   4.591   1.379  13.818 -0.5490  0.7197 -0.6482
  551TIP3    H223069   4.454   1.316  13.830 -0.8340  1.1196 -1.6355
  552TIP3   OH223070   6.710   3.995  14.429 -0.3194 -0.5158  0.2458
  552TIP3    H123071   6.664   3.986  14.512  0.4535  2.1673  1.0802
  552TIP3    H223072   6.802   3.979  14.451 -0.0451  0.6896  0.0536
  553TIP3   OH223073   5.907   2.548   0.958  0.2479 -0.1941  0.4621
  553TIP3    H123074   5.953   2.628   0.983  1.3359 -0.9626  0.9921
  553TIP3    H223075   5.899   2.498   1.039 -1.7659 -0.0109  0.4472
  554TIP3   OH223076   0.007   0.398  15.317 -0.4160 -0.2398  0.0610
  554TIP3    H123077  -0.038   0.391  15.401 -1.5419  0.1544 -0.4935
  554TIP3    H223078   0.086   0.450  15.336 -1.6850  1.6241  0.5113
  555TIP3   OH223079   0.551   3.655  14.797  0.6688  0.0367  0.0915
  555TIP3    H123080   0.476   3.613  14.756  1.6087  0.5138 -2.2344
  555TIP3    H223081   0.616   3.586  14.807  0.6608  0.0466  0.2125
  556TIP3   OH223082   4.851   3.953  16.978 -0.0698  0.0471  0.4788
  556TIP3    H123083   4.802   3.917  17.052  1.5774 -0.0146  1.6029
  556TIP3    H223084   4.900   3.878  16.943  0.2489  0.3719  0.2229
  557TIP3   OH223085   2.357   0.706  16.864  0.1100 -0.2129  0.7681
  557TIP3    H123086   2.422   0.729  16.930  1.0151  0.8079 -0.4361
  557TIP3    H223087   2.379   0.759  16.788 -0.6733 -1.6113 -0.5028
  558TIP3   OH223088   3.357   0.411   4.907 -0.5695 -0.3015  0.1449
  558TIP3    H123089   3.267   0.381   4.896 -1.2862  1.5979  0.4163
  558TIP3    H223090   3.375   0.400   5.001 -1.3683  1.4192  0.5333
  559TIP3   OH223091   1.848   4.163  15.764 -0.4990 -0.0857 -0.0722
  559TIP3    H123092   1.760   4.125  15.759 -0.6468  0.3369 -0.8259
  559TIP3    H223093   1.863   4.200  15.677 -0.0130  0.8195  0.3869
  560TIP3   OH223094   1.484   6.424  13.543  0.2148 -0.4542  0.1883
  560TIP3    H123095   1.528   6.339  13.538  2.9229  0.4748  3.7036
  560TIP3    H223096   1.526   6.477  13.475  0.0975 -1.2887 -0.5529
  561TIP3   OH223097   4.362   4.475   5.159 -0.6116 -0.0425  0.0621
  561TIP3    H123098   4.311   4.555   5.172  1.4447  1.3056  0.3898
  561TIP3    H223099   4.336   4.443   5.072 -0.1142  2.0772 -0.9183
  562TIP3   OH223100   6.540   1.235  13.503  0.0858 -0.0605  0.0313
  562TIP3    H123101   6.525   1.317  13.456  0.3134 -0.1939 -0.2776
  562TIP3    H223102   6.524   1.257  13.595 -0.5083  0.1665 -0.1222
  563TIP3   OH223103   0.984   5.981  12.077 -0.3506 -0.0829  0.0508
  563TIP3    H123104   1.028   5.907  12.118 -0.9118 -0.4722 -0.0390
  563TIP3    H223105   0.897   5.982  12.115 -0.5459  0.1724 -0.3871
  564TIP3   OH223106   3.174   4.523   4.408  0.2412  0.3011  0.3662
  564TIP3    H123107   3.168   4.472   4.327  0.0928 -1.7075  1.5638
  564TIP3    H223108   3.151   4.461   4.477  0.3631  1.9489  1.9693
  565TIP3   OH223109   1.072   4.168  10.732 -0.3270 -1.0150 -0.1024
  565TIP3    H123110   1.088   4.241  10.792 -0.5819 -2.5897  2.0427
  565TIP3    H223111   1.160   4.142  10.703 -0.3534  1.8976 -3.3361
  566TIP3   OH223112   1.296   2.921   5.938  0.0532 -0.3386  0.0224
  566TIP3    H123113   1.295   2.954   6.028  0.4415 -0.1806 -0.0277
  566TIP3    H223114   1.341   2.837   5.944 -0.2737 -0.5134  0.0358
  567TIP3   OH223115   6.590   5.586   5.734  0.2249 -0.6253  0.6846
  567TIP3    H123116   6.588   5.515   5.670 -0.3736 -0.8164  0.9151
  567TIP3    H223117   6.549   5.660   5.689  1.5391 -0.1842  0.1696
  568TIP3   OH223118   0.520   1.695   1.589 -0.1044 -0.8026 -0.3161
  568TIP3    H123119   0.548   1.677   1.500 -0.6705  1.7918 -1.1125
  568TIP3    H223120   0.518   1.791   1.595  0.7808 -0.8512  2.7691
  569TIP3   OH223121   1.686   3.559  11.803  0.3009  0.0590  0.2065
  569TIP3    H123122   1.722   3.635  11.849  0.7770  0.1426 -0.2915
  569TIP3    H223123   1.703   3.578  11.711 -0.3819 -0.2381  0.0179
  570TIP3   OH223124   4.208   2.832  12.576  0.5359  0.3743  0.1391
  570TIP3    H123125   4.273   2.762  12.565  1.8749  0.8529  3.8722
  570TIP3    H223126   4.125   2.786  12.591  0.5289 -0.2676 -1.6055
  571TIP3   OH223127   3.821   3.844  12.660  0.0036  0.3329  0.8228
  571TIP3    H123128   3.729   3.860  12.642 -0.0775 -1.3240 -0.3850
  571TIP3    H223129   3.822   3.767  12.717  0.6655  0.0003  0.3710
  572TIP3   OH223130   5.168   4.347   0.732 -0.1604 -0.7370 -0.2008
  572TIP3    H123131   5.245   4.310   0.689 -1.1544 -0.6997 -2.1066
  572TIP3    H223132   5.099   4.343   0.666 -1.1261  1.6438  0.5483
  573TIP3   OH223133   4.920   5.696   4.804  0.1047 -0.2531  0.5726
  573TIP3    H123134   4.907   5.777   4.853  3.1523  0.3377  0.6017
  573TIP3    H223135   4.833   5.674   4.770 -0.7850  3.2405  0.2023
  574TIP3   OH223136   4.038   4.627  12.068 -0.2016  0.1777  0.0202
  574TIP3    H123137   4.013   4.644  11.977 -0.7231 -1.9608 -0.3004
  574TIP3    H223138   4.081   4.707  12.097 -1.2694  1.4249 -1.6551
  575TIP3   OH223139   4.773   2.652  16.356 -0.3332 -0.2420 -0.2265
  575TIP3    H123140   4.824   2.730  16.377  0.4985 -1.0887  1.0851
  575TIP3    H223141   4.744   2.665  16.265 -0.6313  1.7787  0.1218
  576TIP3   OH223142   5.344   0.644  14.020  0.2923 -0.2533  0.2085
  576TIP3    H123143   5.336   0.675  14.110  1.3648 -0.6293  0.4563
  576TIP3    H223144   5.270   0.682  13.974 -0.5856 -0.5177  1.3765
  577TIP3   OH223145   4.160   2.382  12.634  0.3727 -0.1496 -0.0207
  577TIP3    H123146   4.089   2.446  12.645  1.2981  0.9147 -0.0313
  577TIP3    H223147   4.116   2.299  12.617 -0.8617  0.5186 -0.1598
  578TIP3   OH223148   0.703   4.784   3.991 -0.0457  0.6504  0.1738
  578TIP3    H123149   0.720   4.717   3.925  1.2174 -1.0461  2.0546
  578TIP3    H223150   0.610   4.775   4.012 -0.3482  0.8948 -1.0124
  579TIP3   OH223151   1.429   2.817  14.696 -0.0374 -0.0787  0.6224
  579TIP3    H123152   1.480   2.861  14.764  0.4211 -0.7555  0.7220
  579TIP3    H223153   1.418   2.728  14.728  2.2268 -1.1244 -1.2167
  580TIP3   OH223154   6.642   5.520   1.220 -0.2989  0.1187  0.1068
  580TIP3    H123155   6.626   5.442   1.166  0.3373 -0.8787  1.3129
  580TIP3    H223156   6.634   5.593   1.159  0.7522 -0.9868 -1.4304
  581TIP3   OH223157   3.456   1.744  14.367  0.1710 -0.3539  0.4309
  581TIP3    H123158   3.522   1.805  14.400 -0.0069  1.2701 -1.9378
  581TIP3    H223159   3.473   1.738  14.273 -2.5062 -0.5484 -0.1287
  582TIP3   OH223160   0.635   5.534   1.368 -0.1293  0.2018 -0.2230
  582TIP3    H123161   0.681   5.500   1.291  1.5167 -1.3156  1.3135
  582TIP3    H223162   0.689   5.608   1.397  0.8239 -0.8921  0.9421
  583TIP3   OH223163   6.658   0.133  15.851  0.2289 -0.0204  0.1613
  583TIP3    H123164   6.732   0.078  15.824  0.3847  0.3282 -0.1263
  583TIP3    H223165   6.693   0.185  15.924  0.7427  1.2474 -0.9567
  584TIP3   OH223166   2.808   5.555  14.243 -0.7200 -0.0037  0.7348
  584TIP3    H123167   2.770   5.634  14.206 -1.4301 -1.2561 -1.3879
  584TIP3    H223168   2.760   5.483  14.201  2.6301 -1.6554 -0.6565
  585TIP3   OH223169   4.924   6.561   1.446 -0.5195  0.0674 -0.5669
  585TIP3    H123170   4.908   6.653   1.426  0.9486  0.6335  0.7120
  585TIP3    H223171   5.002   6.539   1.395  0.8401  0.3844  1.2902
  586TIP3   OH223172   4.348   5.768   3.901 -0.0806  0.5274  0.7244
  586TIP3    H123173   4.373   5.764   3.809 -2.9504 -1.7426 -0.1168
  586TIP3    H223174   4.379   5.685   3.938 -2.1912 -0.3111  0.7522
  587TIP3   OH223175   4.636   5.617  11.825  0.6640 -0.4012 -0.3482
  587TIP3    H123176   4.577   5.671  11.771  0.5344 -0.6791 -0.4878
  587TIP3    H223177   4.686   5.566  11.761  0.2811 -0.9734 -0.2049
  588TIP3   OH223178   0.907   2.050  11.350  0.5003 -0.2441  0.3054
  588TIP3    H123179   0.947   2.104  11.418 -0.5543  0.4882  0.3686
  588TIP3    H223180   0.834   2.006  11.394 -0.7568  0.9304 -0.5324
  589TIP3   OH223181   0.436   1.434   6.221  0.6460  0.0748 -0.4007
  589TIP3    H123182   0.342   1.417   6.225  0.7374 -1.8209 -3.1015
  589TIP3    H223183   0.446   1.524   6.252 -2.3295  1.0468 -1.8736
  590TIP3   OH223184   4.333   2.606   6.241 -0.1314 -0.5990 -0.3338
  590TIP3    H123185   4.302   2.525   6.283  0.1705 -0.8057 -0.5043
  590TIP3    H223186   4.295   2.676   6.294 -0.0412 -0.8560  0.0771
  591TIP3   OH223187   1.958   5.272  16.274  0.1448  0.7611 -0.2550
  591TIP3    H123188   2.035   5.216  16.288  0.2361  0.4638 -1.7294
  591TIP3    H223189   1.994   5.361  16.273  0.1616  0.7844  1.0116
  592TIP3   OH223190   3.693   0.060  12.655 -0.0921  0.0993 -0.4274
  592TIP3    H123191   3.615   0.109  12.628 -1.0101 -0.6343  0.7253
  592TIP3    H223192   3.686  -0.023  12.608 -0.5660 -0.3496  0.3952
  593TIP3   OH223193   3.665   2.271   4.178 -0.5713  0.8496 -0.3075
  593TIP3    H123194   3.671   2.178   4.197 -1.5568  0.4891 -1.6294
  593TIP3    H223195   3.606   2.305   4.245 -0.8827  0.3700 -0.3378
  594TIP3   OH223196   2.508   0.612   0.531  0.2870 -0.0404  0.1799
  594TIP3    H123197   2.491   0.518   0.542  1.9439 -0.1179  2.8504
  594TIP3    H223198   2.479   0.651   0.614 -0.4133  1.8535 -0.8984
  595TIP3   OH223199   5.790   2.040   2.175  0.0645 -0.6259  0.2839
  595TIP3    H123200   5.699   2.014   2.158  1.2287 -4.4457 -1.3211
  595TIP3    H223201   5.809   2.005   2.262  0.1648 -0.3297  0.3822
  596TIP3   OH223202   4.873   4.038  12.132 -0.5315 -0.3330 -0.2504
  596TIP3    H123203   4.837   3.990  12.206  0.3177 -0.7471 -0.0891
  596TIP3    H223204   4.815   4.017  12.059 -1.3892  0.1004  0.2930
  597TIP3   OH223205   1.164   1.059   1.772  0.1175 -0.5417 -0.0312
  597TIP3    H123206   1.081   1.051   1.725 -0.2547  1.2741  0.2698
  597TIP3    H223207   1.219   1.112   1.715  1.1414 -1.7864 -0.2599
  598TIP3   OH223208   0.662   1.228  16.526 -0.5018 -0.1095  0.2341
  598TIP3    H123209   0.680   1.243  16.433 -1.6094 -0.3796 -0.0401
  598TIP3    H223210   0.606   1.302  16.551 -0.0693  0.0526  0.7350
  599TIP3   OH223211   1.687   1.690  10.933  0.5944  0.2668 -0.6612
  599TIP3    H123212   1.733   1.658  10.856 -0.1348 -0.3393 -0.8534
  599TIP3    H223213   1.600   1.713  10.902  0.5620  0.8153 -0.1827
  600TIP3   OH223214   4.003   5.866   4.792 -0.3319  0.4876  0.1229
  600TIP3    H123215   4.091   5.875   4.756 -0.8098  1.0176 -0.9787
  600TIP3    H223216   3.979   5.775   4.773  0.3436  0.0383  1.3391
  601TIP3   OH223217   6.500   2.165   1.793  0.2713 -0.4225 -0.5046
  601TIP3    H123218   6.525   2.112   1.869  0.4043 -0.4983 -0.6000
  601TIP3    H223219   6.473   2.102   1.727  0.2508 -0.3621 -0.5539
  602TIP3   OH223220   0.219   2.834  13.287 -0.5607 -0.2604 -0.1765
  602TIP3    H123221   0.298   2.880  13.314 -0.4083 -0.1213 -0.8290
  602TIP3    H223222   0.165   2.829  13.366  0.3468 -0.8652  0.4247
  603TIP3   OH223223   5.350   0.736   1.805  0.3360  0.3199  0.0049
  603TIP3    H123224   5.351   0.649   1.845  1.6168  0.9789  1.5186
  603TIP3    H223225   5.257   0.758   1.797  0.0113 -0.8319  0.3925
  604TIP3   OH223226   0.953   3.966  11.265 -0.0107  0.1026  0.0354
  604TIP3    H123227   0.894   3.923  11.327  2.0225 -0.1128  1.9107
  604TIP3    H223228   1.002   3.895  11.224  0.1230  0.3700 -0.2788
  605TIP3   OH223229   3.255   2.288  15.286  0.7013 -0.3894  0.0286
  605TIP3    H123230   3.238   2.229  15.212  2.1583  1.3282 -1.7813
  605TIP3    H223231   3.170   2.330  15.303  0.7727  0.8120 -2.2191
  606TIP3   OH223232   4.236   0.821   0.606 -0.4181  0.6386 -0.3390
  606TIP3    H123233   4.164   0.868   0.648 -1.4283 -0.0445 -1.2515
  606TIP3    H223234   4.195   0.774   0.533  0.7611 -0.6760 -0.1998
  607TIP3   OH223235   3.657   0.652  13.230 -0.2173 -0.1888 -0.2897
  607TIP3    H123236   3.607   0.714  13.284  1.8396 -1.4744  3.4983
  607TIP3    H223237   3.739   0.698  13.210  0.9644 -1.1825  1.8320
  608TIP3   OH223238   6.635   2.623   2.747  0.4784 -0.6013 -0.2660
  608TIP3    H123239   6.574   2.550   2.759  0.0421 -0.5426 -1.8940
  608TIP3    H223240   6.650   2.626   2.653  2.2919 -0.0193  0.0150
  609TIP3   OH223241   5.955   2.765   2.081 -0.0813 -0.4307  0.2797
  609TIP3    H123242   5.921   2.851   2.105  1.8934  0.6566 -0.5288
  609TIP3    H223243   5.893   2.732   2.015  0.0566  1.2099 -0.7387
  610TIP3   OH223244   6.075   5.337  16.596 -0.3944 -0.3708 -0.0493
  610TIP3    H123245   6.097   5.368  16.684  0.7332 -1.9449  0.2506
  610TIP3    H223246   6.157   5.303  16.561 -1.2709 -1.6808 -0.9047
  611TIP3   OH223247   5.983   1.528  14.986 -0.0934  0.2624 -0.2439
  611TIP3    H123248   6.009   1.451  14.937  1.2144  0.8007 -0.4321
  611TIP3    H223249   6.058   1.587  14.981 -0.4082  0.8549  1.3202
  612TIP3   OH223250   2.396   3.498  12.248 -0.0802 -0.4089  0.1849
  612TIP3    H123251   2.318   3.463  12.205  0.1261 -1.4276  0.6061
  612TIP3    H223252   2.409   3.442  12.324 -1.2587  2.2050  2.4716
  613TIP3   OH223253   5.882   2.178   5.195 -0.1898 -0.1496  0.2653
  613TIP3    H123254   5.945   2.107   5.186 -0.0615  0.1313 -1.3284
  613TIP3    H223255   5.852   2.195   5.106 -2.0272  0.1787  0.9171
  614TIP3   OH223256   0.789   0.616   0.233  0.4970  0.4356  0.3394
  614TIP3    H123257   0.843   0.690   0.259  0.8866  0.1688  0.2884
  614TIP3    H223258   0.819   0.593   0.146  0.0169  0.5496  0.1399
  615TIP3   OH223259   3.586   1.460   1.333 -0.4729 -0.0158 -0.5707
  615TIP3    H123260   3.539   1.521   1.390  2.1096 -0.6316  2.4611
  615TIP3    H223261   3.538   1.378   1.342 -0.3840  0.0243  0.3047
  616TIP3   OH223262   0.127   1.704   2.555 -0.0354 -0.0215  0.5776
  616TIP3    H123263   0.068   1.635   2.525 -3.4149  2.4450  0.9954
  616TIP3    H223264   0.117   1.704   2.650 -0.9757  1.6890  0.5156
  617TIP3   OH223265   2.151   5.567   1.877  0.0183 -0.4045 -0.5225
  617TIP3    H123266   2.218   5.636   1.883  1.0029 -1.1750 -2.1001
  617TIP3    H223267   2.163   5.516   1.957  1.1310 -0.3542 -0.6401
  618TIP3   OH223268   2.413   2.960   1.956  0.3167  0.2384 -0.3522
  618TIP3    H123269   2.386   2.895   2.020  0.2543  0.7704  0.1742
  618TIP3    H223270   2.418   2.912   1.873 -2.2542  0.0804 -0.5041
  619TIP3   OH223271   1.437   5.733   4.383 -0.1439  0.0247 -0.2046
  619TIP3    H123272   1.445   5.816   4.432  1.1337 -0.3294  0.2208
  619TIP3    H223273   1.354   5.696   4.413 -0.0223  0.4617  0.7142
  620TIP3   OH223274   5.881   6.370   1.570  0.3696 -0.0340 -0.5376
  620TIP3    H123275   5.885   6.342   1.479  0.0135 -0.8568 -0.3092
  620TIP3    H223276   5.924   6.301   1.619  1.0364  0.6629 -0.1240
  621TIP3   OH223277   5.456   0.198   0.701 -0.7337 -0.1670  0.2260
  621TIP3    H123278   5.397   0.128   0.672  0.4188 -0.6228 -1.1487
  621TIP3    H223279   5.544   0.162   0.689 -0.1163  1.3910 -0.2149
  622TIP3   OH223280   5.918   4.657   4.481 -0.2544 -0.2098  0.0965
  622TIP3    H123281   5.888   4.583   4.429 -0.1298 -0.9804  1.0836
  622TIP3    H223282   5.871   4.733   4.445  0.1220 -0.6484 -1.3535
  623TIP3   OH223283   5.051   4.965   0.807  0.2621  0.2238 -0.3949
  623TIP3    H123284   5.117   4.962   0.738  0.0224  0.0158 -0.6189
  623TIP3    H223285   5.095   4.928   0.884  0.6397  0.7793 -0.3351
  624TIP3   OH223286   5.419   3.291  10.987  0.5554 -0.5108 -0.0223
  624TIP3    H123287   5.505   3.262  10.957  0.5134 -1.2902  0.5702
  624TIP3    H223288   5.360   3.220  10.962 -0.1558  0.5505 -1.5243
  625TIP3   OH223289   5.043   0.972  11.440  0.1670 -0.1939 -0.3373
  625TIP3    H123290   5.017   1.052  11.485 -0.1992 -1.8931  2.8001
  625TIP3    H223291   4.961   0.937  11.405  0.1268  0.1955 -0.6336
  626TIP3   OH223292   6.234   3.345  15.207  0.2455 -0.4437  0.4715
  626TIP3    H123293   6.323   3.309  15.198  0.2276 -0.0480 -2.0076
  626TIP3    H223294   6.242   3.435  15.177 -0.8010 -0.0615  1.2842
  627TIP3   OH223295   3.063   1.773   4.906  0.4866 -0.1889  0.1754
  627TIP3    H123296   3.147   1.818   4.910 -0.1649  1.3100 -1.6295
  627TIP3    H223297   3.006   1.832   4.857 -1.2641 -1.7270  0.2331
  628TIP3   OH223298   4.945   6.136  15.935 -0.4510 -0.0403  0.2682
  628TIP3    H123299   4.948   6.166  15.845 -2.4287  1.8119  0.7269
  628TIP3    H223300   5.036   6.139  15.965 -0.0087  1.0987 -1.1091
  629TIP3   OH223301   4.654   2.212   1.588  0.6492  0.7580  0.8554
  629TIP3    H123302   4.699   2.172   1.514 -1.0232 -2.4444  1.4048
  629TIP3    H223303   4.636   2.302   1.560  0.4314 -0.2192 -2.4635
  630TIP3   OH223304   4.508   1.758   5.533 -0.1308 -0.0694 -0.3149
  630TIP3    H123305   4.590   1.726   5.496  0.9574 -0.9177  2.5540
  630TIP3    H223306   4.440   1.706   5.489  1.1090 -1.4933 -0.6269
  631TIP3   OH223307   2.761   5.430   2.163 -0.3319 -0.5599 -0.1973
  631TIP3    H123308   2.822   5.358   2.145 -0.4509 -0.2225 -2.0995
  631TIP3    H223309   2.812   5.492   2.215  0.4902 -0.9656 -0.5022
  632TIP3   OH223310   2.597   3.979   3.451  0.3662  0.4254  0.0408
  632TIP3    H123311   2.568   3.996   3.540  1.0760  0.4870  0.2660
  632TIP3    H223312   2.548   4.041   3.397 -1.9073 -1.2424  0.0737
  633TIP3   OH223313   2.429   4.481  14.840 -0.2015 -0.1541 -0.1346
  633TIP3    H123314   2.423   4.540  14.914  2.3092 -1.7202  1.4783
  633TIP3    H223315   2.523   4.474  14.822 -0.3087 -3.6539 -0.1077
  634TIP3   OH223316   1.064   3.779  10.453  0.2959  0.2670  0.0575
  634TIP3    H123317   1.138   3.774  10.514 -0.0769 -0.0849  0.4794
  634TIP3    H223318   0.995   3.824  10.502 -0.3006 -0.7758  0.1937
  635TIP3   OH223319   4.289   3.657  10.585 -0.1863  0.1600  0.6847
  635TIP3    H123320   4.345   3.607  10.645  0.5803  1.2082  0.8684
  635TIP3    H223321   4.204   3.613  10.590 -0.5010  0.8952  3.4278
  636TIP3   OH223322   2.605   2.790   3.497  0.2509  0.2776  0.0138
  636TIP3    H123323   2.688   2.783   3.545 -0.1625  2.0517  1.0500
  636TIP3    H223324   2.590   2.884   3.487 -3.0002  0.1666  2.3367
  637TIP3   OH223325   2.615   0.571  17.250 -0.0053 -0.3850 -0.0560
  637TIP3    H123326   2.529   0.552  17.213  0.3352  0.6667 -1.4680
  637TIP3    H223327   2.676   0.552  17.179  0.5720  3.2070 -0.7091
  638TIP3   OH223328   0.515   5.207   1.287  0.0777  0.3071 -0.2319
  638TIP3    H123329   0.481   5.123   1.317  0.6093  0.6633  1.4894
  638TIP3    H223330   0.482   5.216   1.197  1.1234 -2.3541 -0.9855
  639TIP3   OH223331   6.741   1.639  15.223  0.2068  0.4824 -0.1134
  639TIP3    H123332   6.792   1.590  15.159 -0.7027 -0.1518 -0.3736
  639TIP3    H223333   6.678   1.576  15.257 -0.6468  1.3259 -0.0854
  640TIP3   OH223334   5.080   1.296   3.788 -0.0345  0.0145  0.0320
  640TIP3    H123335   5.040   1.224   3.836 -0.1564 -0.6792 -1.0632
  640TIP3    H223336   5.033   1.374   3.817 -0.7558 -0.5143  0.3084
  641TIP3   OH223337   0.763   0.286  13.229  0.4199 -0.2507  0.2077
  641TIP3    H123338   0.728   0.203  13.198 -0.2175  0.2740 -0.5003
  641TIP3    H223339   0.805   0.325  13.153 -0.3012  0.6023  0.2378
  642TIP3   OH223340   6.386   0.175   2.586 -0.3435 -0.1052 -0.2312
  642TIP3    H123341   6.393   0.261   2.627  3.5915 -0.0471 -0.6824
  642TIP3    H223342   6.392   0.113   2.658 -0.6635 -0.0221 -0.1302
  643TIP3   OH223343   5.312   5.736  12.671 -0.3597  0.1232  0.2304
  643TIP3    H123344   5.295   5.770  12.583 -0.1093  0.7586  0.4255
  643TIP3    H223345   5.249   5.664  12.681  0.8345 -1.1715 -1.1591
  644TIP3   OH223346   4.513   2.150  12.325  0.6958  0.6121  0.2463
  644TIP3    H123347   4.452   2.141  12.252  1.9063  0.9675 -0.8283
  644TIP3    H223348   4.483   2.228  12.372  0.5144  0.9661 -0.4501
  645TIP3   OH223349   1.261   0.963   4.694 -0.2366 -0.8040 -0.5906
  645TIP3    H123350   1.328   0.905   4.658  1.2426 -0.4755  1.4590
  645TIP3    H223351   1.215   0.910   4.759  0.6451  0.0640  0.7799
  646TIP3   OH223352   1.749   3.913   3.801 -0.4656 -0.0005  0.0787
  646TIP3    H123353   1.684   3.850   3.832 -0.1302  0.5766  2.0570
  646TIP3    H223354   1.726   3.995   3.843  2.0442  0.0017  1.6424
  647TIP3   OH223355   2.145   2.395  13.128  0.3802  0.1183  0.3364
  647TIP3    H123356   2.102   2.311  13.143 -0.5701  0.5718  0.2275
  647TIP3    H223357   2.213   2.376  13.064 -1.4951 -0.1144 -1.7286
  648TIP3   OH223358   3.640   0.314   0.245  0.2457  0.2733  0.0254
  648TIP3    H123359   3.554   0.337   0.281 -0.1900  1.4928 -1.6754
  648TIP3    H223360   3.634   0.221   0.226 -0.9902  0.4924 -0.7774
  649TIP3   OH223361   4.016   4.664   5.528 -0.1763  0.3831 -0.3023
  649TIP3    H123362   3.944   4.649   5.590  1.0315 -0.7846  0.8875
  649TIP3    H223363   3.987   4.621   5.448 -1.6588  1.6986 -0.5102
  650TIP3   OH223364   4.339   6.128  12.822  0.5559 -0.2693  0.1801
  650TIP3    H123365   4.433   6.117  12.832  0.8492  0.4710 -1.5007
  650TIP3    H223366   4.328   6.165  12.735 -1.1992  1.0107  0.8931
  651TIP3   OH223367   0.245   3.771  15.870 -0.7740  0.4277 -0.2811
  651TIP3    H123368   0.221   3.681  15.895  1.3932  0.3027  1.7604
  651TIP3    H223369   0.289   3.762  15.786 -0.8334 -0.3968 -0.2331
  652TIP3   OH223370   4.602   6.033   2.144 -0.1119  0.6807  0.5272
  652TIP3    H123371   4.664   5.965   2.120 -1.4455 -1.1209  1.9204
  652TIP3    H223372   4.590   6.084   2.064 -0.5261 -1.9101 -1.1836
  653TIP3   OH223373   4.827   0.332  10.793 -0.6200 -0.5011 -0.6108
  653TIP3    H123374   4.804   0.247  10.830 -1.6102 -0.4360 -1.0518
  653TIP3    H223375   4.754   0.389  10.817 -0.4714 -0.0475 -1.2183
  654TIP3   OH223376   2.782   1.381   1.707  0.0821  0.4665 -0.2648
  654TIP3    H123377   2.793   1.325   1.630 -0.2642  1.0359 -0.7453
  654TIP3    H223378   2.712   1.442   1.681 -0.1851  0.5258  0.5822
  655TIP3   OH223379   3.038   6.102   0.180  0.2142  0.4441 -0.5553
  655TIP3    H123380   3.009   6.070   0.266  0.4301 -2.7625 -1.5391
  655TIP3    H223381   3.127   6.136   0.196 -0.3293  1.3496  0.7241
  656TIP3   OH223382   4.056   1.937   0.957  0.2558 -0.1111 -0.0394
  656TIP3    H123383   4.017   1.974   1.037 -2.4250 -0.0070 -1.2742
  656TIP3    H223384   4.100   2.010   0.916 -2.3589  1.1093 -0.9050
  657TIP3   OH223385   3.234   5.504   5.604 -0.0825  0.6538  0.0884
  657TIP3    H123386   3.307   5.444   5.597 -0.5179  0.0298  0.7599
  657TIP3    H223387   3.274   5.591   5.608  0.7466  0.2412  2.1315
  658TIP3   OH223388   2.840   3.954   1.590 -0.8302  0.1822  0.6238
  658TIP3    H123389   2.867   3.915   1.507 -0.0216  1.2136  0.3751
  658TIP3    H223390   2.761   4.004   1.569 -2.4031 -1.9414  1.1244
  659TIP3   OH223391   4.876   6.286  15.139  0.2588 -0.0671  0.5392
  659TIP3    H123392   4.812   6.321  15.201 -0.0367  1.8224 -0.7336
  659TIP3    H223393   4.825   6.271  15.059  0.7064 -2.1054  0.5949
  660TIP3   OH223394   5.751   0.083   2.335  0.3416 -0.2110  0.1603
  660TIP3    H123395   5.741   0.013   2.271 -1.9628  0.1217  0.0921
  660TIP3    H223396   5.777   0.159   2.282 -1.8385  0.1378 -0.4871
  661TIP3   OH223397   6.432   4.865  14.553  0.0352  0.1780  0.4458
  661TIP3    H123398   6.513   4.815  14.556 -0.2117 -0.2206  0.4833
  661TIP3    H223399   6.371   4.817  14.610 -0.2630  0.4128  0.3317
  662TIP3   OH223400   0.286   2.314   4.193 -0.1819 -0.1562  0.6679
  662TIP3    H123401   0.256   2.397   4.155  2.0673  0.0426 -0.8888
  662TIP3    H223402   0.289   2.331   4.287  1.0981  1.9121  0.3209
  663TIP3   OH223403   5.774   5.884   6.111 -0.2438  0.0148 -0.2090
  663TIP3    H123404   5.692   5.842   6.138  0.1075 -0.4866  0.0819
  663TIP3    H223405   5.793   5.946   6.180 -0.1689 -0.1494 -0.0835
  664TIP3   OH223406   2.517   2.706  14.731 -0.4035 -0.5494  0.3445
  664TIP3    H123407   2.487   2.794  14.707  2.1534 -0.2203 -2.2404
  664TIP3    H223408   2.574   2.720  14.806  1.2810  0.3520 -1.0244
  665TIP3   OH223409   1.152   6.250   0.586  0.2663 -0.2485 -0.1485
  665TIP3    H123410   1.222   6.301   0.547  0.3482 -0.1971  0.0653
  665TIP3    H223411   1.190   6.214   0.666  0.5439 -1.5069 -0.8238
  666TIP3   OH223412   3.377   3.014   5.224  0.1988  0.5694  0.1131
  666TIP3    H123413   3.298   3.052   5.186  0.8652  1.5919 -0.3072
  666TIP3    H223414   3.427   2.983   5.148  0.3282  0.1969  0.3503
  667TIP3   OH223415   1.329   0.442  16.774 -0.0536 -0.7417 -0.3020
  667TIP3    H123416   1.391   0.372  16.796 -1.4081 -1.3951  1.6160
  667TIP3    H223417   1.356   0.516  16.829 -0.1581 -0.5624 -0.4892
  668TIP3   OH223418   0.374   2.366   4.460 -0.6872 -0.2310 -0.4177
  668TIP3    H123419   0.321   2.438   4.494 -0.2713 -0.1090 -0.0154
  668TIP3    H223420   0.413   2.326   4.538  0.6554  0.3419 -0.7700
  669TIP3   OH223421   2.698   3.071  11.002  0.1562 -0.0411 -0.2536
  669TIP3    H123422   2.665   3.094  11.089 -0.0902  0.0766 -0.3751
  669TIP3    H223423   2.718   2.978  11.007  0.2325 -0.0132 -0.0419
  670TIP3   OH223424   0.112   5.724  14.147  0.1934 -0.2398  0.0330
  670TIP3    H123425   0.192   5.683  14.112  0.0685 -1.3166  0.9535
  670TIP3    H223426   0.047   5.710  14.079  1.0977  1.9627 -1.4023
  671TIP3   OH223427   0.813   3.277  12.278  0.2780 -0.8230  0.2807
  671TIP3    H123428   0.828   3.187  12.308  1.6093 -1.0456 -0.9498
  671TIP3    H223429   0.843   3.332  12.351  0.6938 -1.3679  0.5312
  672TIP3   OH223430   3.870   0.435  11.880  0.3059 -0.3251 -0.2166
  672TIP3    H123431   3.912   0.455  11.964  0.1059 -0.8619  0.0134
  672TIP3    H223432   3.916   0.358  11.848 -1.8009 -2.2374  1.0279
  673TIP3   OH223433   6.707   6.649   1.231 -0.3430  0.2825  0.3858
  673TIP3    H123434   6.623   6.631   1.273 -1.4133 -0.9678 -2.1027
  673TIP3    H223435   6.703   6.742   1.209 -0.8162  0.3644  0.8028
  674TIP3   OH223436   6.573   1.458  14.282  0.2125  0.2406  0.5821
  674TIP3    H123437   6.520   1.521  14.234  1.0365  1.0020  0.6390
  674TIP3    H223438   6.528   1.374  14.270  0.0937  0.5144 -1.0332
  675TIP3   OH223439   3.030   4.905   6.142 -0.1841  0.0382  0.1737
  675TIP3    H123440   2.952   4.960   6.144 -2.0214 -2.4132  1.4860
  675TIP3    H223441   3.067   4.913   6.229  0.9716  1.0132 -0.3781
  676TIP3   OH223442   5.390   6.326  15.147 -0.5348 -0.1070  0.0002
  676TIP3    H123443   5.424   6.357  15.063  0.6801 -0.0968  0.4746
  676TIP3    H223444   5.302   6.294  15.127 -0.2310 -0.2012 -1.2906
  677TIP3   OH223445   6.144   6.718   0.611 -0.0741 -0.1768 -0.3274
  677TIP3    H123446   6.159   6.811   0.594  0.8071  0.0291  1.4024
  677TIP3    H223447   6.110   6.715   0.700  0.6554 -1.5606 -0.0663
  678TIP3   OH223448   4.783   2.573   5.897  0.1190  0.4911 -0.0584
  678TIP3    H123449   4.779   2.553   5.991 -1.9621 -1.7970 -0.5244
  678TIP3    H223450   4.873   2.553   5.872 -0.0912 -2.0816  0.9105
  679TIP3   OH223451   4.368   5.050  14.861  0.0619  0.2158 -0.0996
  679TIP3    H123452   4.379   5.084  14.772 -0.2459 -3.2419 -1.6086
  679TIP3    H223453   4.294   4.990  14.855  1.3034 -1.6730  1.9423
  680TIP3   OH223454   2.191   6.373  12.002  0.3889  0.2200 -0.9584
  680TIP3    H123455   2.121   6.382  11.937 -0.1776 -0.4974 -0.4597
  680TIP3    H223456   2.246   6.303  11.968 -0.6883 -1.1316  0.0016
  681TIP3   OH223457   4.269   0.071   5.062  0.2974 -0.2289 -0.1392
  681TIP3    H123458   4.173   0.071   5.070  0.2876 -0.7183 -0.2249
  681TIP3    H223459   4.294  -0.019   5.084  0.6704 -0.3172 -0.9094
  682TIP3   OH223460   4.473   1.546   4.126  0.1599  0.2116 -0.0086
  682TIP3    H123461   4.415   1.602   4.178 -0.3018 -0.0881 -0.1921
  682TIP3    H223462   4.508   1.482   4.188 -0.2808 -0.0596 -0.0375
  683TIP3   OH223463   0.912   0.808   0.830  0.5149  0.2401  0.3051
  683TIP3    H123464   0.975   0.865   0.786  0.2392  0.5641  0.3278
  683TIP3    H223465   0.966   0.741   0.871  1.0403  1.6181  2.0054
  684TIP3   OH223466   0.021   5.751  16.720  0.3140 -0.0296 -0.4450
  684TIP3    H123467   0.017   5.836  16.764  0.4031 -0.4170  0.3140
  684TIP3    H223468  -0.052   5.753  16.657 -1.7415 -0.6216  1.7854
  685TIP3   OH223469   5.683   4.530  11.137 -0.0345 -0.3719 -0.1848
  685TIP3    H123470   5.640   4.522  11.222  0.0550 -1.9205 -0.2661
  685TIP3    H223471   5.758   4.586  11.153  0.5459 -1.4444  0.9949
  686TIP3   OH223472   1.485   4.244   4.109  0.4223 -0.1587  0.6108
  686TIP3    H123473   1.548   4.316   4.119 -0.3188  0.4765  0.8027
  686TIP3    H223474   1.421   4.258   4.179 -2.2500  1.6607 -1.9361
  687TIP3   OH223475   5.074   4.184   5.214 -0.0506  0.0074  0.0968
  687TIP3    H123476   5.126   4.264   5.218 -0.2932  0.2952 -1.6692
  687TIP3    H223477   4.984   4.214   5.220 -0.1097 -0.2483  0.5311
  688TIP3   OH223478   4.339   6.158   6.439  0.0871  0.6015  0.8643
  688TIP3    H123479   4.397   6.086   6.466 -0.2861 -0.6235 -1.4187
  688TIP3    H223480   4.320   6.205   6.521  1.9234 -0.6955  2.1171
  689TIP3   OH223481   6.093   2.209  15.329 -0.3452  0.4273  0.0690
  689TIP3    H123482   6.039   2.182  15.254 -0.0095  1.7666 -0.6913
  689TIP3    H223483   6.183   2.188  15.303 -0.2673  0.4988  0.2749
  690TIP3   OH223484   3.157   3.818   0.406  0.9618 -0.2205 -0.8944
  690TIP3    H123485   3.228   3.881   0.423  2.6711 -1.3135 -3.3198
  690TIP3    H223486   3.088   3.870   0.366  1.4987  0.4391 -0.9761
  691TIP3   OH223487   1.682   5.425   1.365  0.3043  0.5361  0.2594
  691TIP3    H123488   1.608   5.442   1.423 -1.1898  1.3879 -1.8108
  691TIP3    H223489   1.758   5.457   1.414 -0.5957 -0.4640  2.4807
  692TIP3   OH223490   0.728   0.415   5.930  0.6513  0.3266 -0.0247
  692TIP3    H123491   0.762   0.363   6.003  1.3885  0.2905 -0.3827
  692TIP3    H223492   0.699   0.497   5.970  1.0171  0.2923  0.3127
  693TIP3   OH223493   2.009   5.295   5.711  0.1772 -0.2958  0.2955
  693TIP3    H123494   2.071   5.273   5.642 -0.1910 -0.5051  0.0336
  693TIP3    H223495   2.060   5.350   5.771  0.3980  0.2140 -0.3359
  694TIP3   OH223496   2.494   0.906   2.240 -0.0208  0.4404  0.1051
  694TIP3    H123497   2.411   0.877   2.278 -0.9300 -0.7695 -2.5554
  694TIP3    H223498   2.482   0.999   2.223 -0.4306  0.4995  0.6939
  695TIP3   OH223499   1.084   0.062   1.644  0.1676 -0.4273  0.4104
  695TIP3    H123500   1.177   0.085   1.634  0.1829 -0.8831 -0.6147
  695TIP3    H223501   1.038   0.146   1.640  0.4662 -0.2786 -0.0831
  696TIP3   OH223502   2.097   5.081   4.175  0.2182 -0.9473 -0.0526
  696TIP3    H123503   2.181   5.034   4.176 -0.2149 -1.7297 -0.0625
  696TIP3    H223504   2.058   5.063   4.260  0.9479  1.0972  0.7931
  697TIP3   OH223505   2.357   2.759   3.212 -0.1377  0.1376 -0.2347
  697TIP3    H123506   2.424   2.783   3.277 -0.2185 -0.4660  0.0850
  697TIP3    H223507   2.280   2.809   3.238  0.5017  1.7349 -1.2949
  698TIP3   OH223508   2.132   2.883   3.295  0.2366  0.3884 -0.0766
  698TIP3    H123509   2.038   2.887   3.313  0.1033  4.0598 -0.8303
  698TIP3    H223510   2.164   2.972   3.314  3.2711 -0.3231 -1.2652
  699TIP3   OH223511   6.260   3.737  12.461  0.7375  0.6213 -0.1057
  699TIP3    H123512   6.246   3.662  12.518  1.9717  0.7334  0.3888
  699TIP3    H223513   6.288   3.698  12.378  1.1149  0.5113  0.0668
  700TIP3   OH223514   5.957   6.110   3.354 -0.1763 -0.5576 -0.1051
  700TIP3    H123515   5.975   6.201   3.380 -0.0974 -0.7907  0.6987
  700TIP3    H223516   5.980   6.107   3.261 -1.6281  0.6224 -0.5530
  701TIP3   OH223517   2.516   6.037  13.228 -0.2913  0.4674  0.3773
  701TIP3    H123518   2.479   6.081  13.304 -0.3163  0.3806  0.4149
  701TIP3    H223519   2.597   6.085  13.210 -0.4423  0.6837  0.2664
  702TIP3   OH223520   5.355   1.605   0.697  0.2310  0.2090  0.7387
  702TIP3    H123521   5.271   1.561   0.704  0.9956 -1.7440 -1.2479
  702TIP3    H223522   5.417   1.546   0.742  1.1778 -0.5622 -1.4519
  703TIP3   OH223523   5.536   3.779  13.076 -0.6123  0.4291  0.5005
  703TIP3    H123524   5.580   3.851  13.121 -1.9814  2.7493 -1.6339
  703TIP3    H223525   5.446   3.810  13.064 -1.1753 -1.5198 -0.7828
  704TIP3   OH223526   3.877   3.711  13.868 -0.4605 -0.0932  0.5959
  704TIP3    H123527   3.851   3.793  13.909  1.9760  0.6692  0.7669
  704TIP3    H223528   3.898   3.652  13.941 -3.2992 -1.3590  0.5144
  705TIP3   OH223529   2.827   2.247  16.110  0.1625  0.2039 -0.2496
  705TIP3    H123530   2.868   2.162  16.093  0.0612  0.4353 -1.8645
  705TIP3    H223531   2.883   2.289  16.176 -0.0333 -1.2664  0.8934
  706TIP3   OH223532   4.587   2.864  13.625  0.1893 -0.2201 -0.2117
  706TIP3    H123533   4.556   2.867  13.715 -1.6114 -0.8496 -0.7702
  706TIP3    H223534   4.532   2.928  13.579  1.2379  0.2566 -0.8343
  707TIP3   OH223535   1.482   1.788  12.474  0.0591  0.1146 -0.3525
  707TIP3    H123536   1.535   1.868  12.473 -0.9602  0.8241  0.4574
  707TIP3    H223537   1.532   1.726  12.420  3.0601 -0.1598  2.4603
  708TIP3   OH223538   6.779   3.497  16.904  0.2218 -0.2481 -0.3804
  708TIP3    H123539   6.716   3.463  16.841  0.1316  0.9577 -0.9647
  708TIP3    H223540   6.731   3.566  16.950  1.1424  0.7848 -0.9351
  709TIP3   OH223541   4.513   3.908   2.109 -0.0410 -0.2166 -0.2721
  709TIP3    H123542   4.577   3.935   2.043 -0.2250  1.3483  0.1555
  709TIP3    H223543   4.532   3.963   2.185  0.1077 -1.9021  0.9882
  710TIP3   OH223544   5.712   0.136  13.060  0.4558  0.6520 -0.3510
  710TIP3    H123545   5.644   0.191  13.098 -0.8145 -0.3787 -1.0197
  710TIP3    H223546   5.707   0.154  12.966  0.7732  0.2108 -0.4580
  711TIP3   OH223547   3.718   0.893  11.791  0.4815  0.4700  0.2823
  711TIP3    H123548   3.703   0.956  11.862  0.9519 -0.0385  0.8373
  711TIP3    H223549   3.657   0.822  11.808 -0.3568  0.9514 -0.5892
  712TIP3   OH223550   1.660   6.260   4.521 -0.3725 -0.3009  0.3388
  712TIP3    H123551   1.679   6.187   4.580  1.5908 -1.1749 -1.2367
  712TIP3    H223552   1.564   6.263   4.517 -0.5611 -3.4332 -0.2023
  713TIP3   OH223553   4.750   1.946  11.878 -0.1863 -0.5274 -0.0821
  713TIP3    H123554   4.668   1.959  11.926 -0.3977  2.3168 -1.0060
  713TIP3    H223555   4.816   1.937  11.947 -0.8729  0.4406  0.7353
  714TIP3   OH223556   4.133   0.600  12.863 -0.0157  0.1579  0.1013
  714TIP3    H123557   4.151   0.507  12.854 -2.1644 -0.4651  1.3943
  714TIP3    H223558   4.139   0.616  12.958 -0.7065  1.0733  0.0060
  715TIP3   OH223559   5.257   4.492   6.219  0.4035 -0.0537  0.4700
  715TIP3    H123560   5.181   4.533   6.261  0.9488  0.6773  0.7649
  715TIP3    H223561   5.330   4.509   6.279  0.6084 -1.7183  0.7406
  716TIP3   OH223562   4.139   4.648  12.894  0.3360 -0.0686  0.0908
  716TIP3    H123563   4.157   4.641  12.800 -0.0155  1.0928 -0.0696
  716TIP3    H223564   4.057   4.599  12.906  0.7697 -0.8457 -0.0727
  717TIP3   OH223565   4.634   1.500   0.636  0.0721  0.2159 -0.7044
  717TIP3    H123566   4.721   1.481   0.602 -0.0738  1.7571 -2.0444
  717TIP3    H223567   4.650   1.539   0.722  0.6341 -0.3947 -0.5242
  718TIP3   OH223568   1.361   5.776  13.209  0.4171 -0.2813 -0.5736
  718TIP3    H123569   1.312   5.695  13.224 -0.1485  0.2308  0.4784
  718TIP3    H223570   1.451   5.754  13.232  0.1328 -0.4126  0.4678
  719TIP3   OH223571   3.780   3.558  11.590  0.2840 -0.5197 -0.0119
  719TIP3    H123572   3.792   3.466  11.612 -0.8680 -0.5441  0.6032
  719TIP3    H223573   3.802   3.605  11.670 -0.9106 -0.3997  0.2626
  720TIP3   OH223574   4.984   2.173   3.542 -0.2991  0.0947  0.7463
  720TIP3    H123575   4.900   2.216   3.554  1.2706  2.8883  3.0726
  720TIP3    H223576   5.045   2.243   3.519  1.7734 -1.4179  1.2301
  721TIP3   OH223577   5.922   2.663  16.403  0.3719 -0.3042  0.0216
  721TIP3    H123578   5.931   2.697  16.493  1.2195 -0.5629  0.0430
  721TIP3    H223579   5.959   2.575  16.407  1.9799  0.2804 -0.9440
  722TIP3   OH223580   4.090   1.760  15.851 -0.0311  0.0288  0.1911
  722TIP3    H123581   4.114   1.739  15.941  0.0995 -0.9041 -0.0574
  722TIP3    H223582   4.172   1.755  15.802 -0.4976 -2.1332 -0.4677
  723TIP3   OH223583   0.661   3.629  11.840  0.5481 -0.2057 -0.2957
  723TIP3    H123584   0.691   3.625  11.931 -1.2622  0.8957  0.4039
  723TIP3    H223585   0.598   3.559  11.832  0.3541 -0.0013 -0.5679
  724TIP3   OH223586   2.837   3.224   2.228  0.6792  0.2130 -0.2012
  724TIP3    H123587   2.877   3.215   2.314  2.0992  2.6631 -0.5217
  724TIP3    H223588   2.881   3.159   2.173 -0.6746 -1.8103  0.9672
  725TIP3   OH223589   5.907   1.779   3.452  0.3292 -0.4796 -1.0355
  725TIP3    H123590   5.973   1.729   3.500 -0.4705 -0.8800 -0.2987
  725TIP3    H223591   5.826   1.730   3.467 -0.1786  0.1432 -1.6925
  726TIP3   OH223592   3.405   3.110  16.887 -0.4356  0.5993  0.2344
  726TIP3    H123593   3.495   3.139  16.904 -0.6606  0.9356  0.8798
  726TIP3    H223594   3.410   3.067  16.802  0.2762  0.9017  0.1120
  727TIP3   OH223595   3.897   3.620  11.849  0.5425 -0.7394  0.1162
  727TIP3    H123596   3.850   3.597  11.929  0.1792  0.4015  0.2362
  727TIP3    H223597   3.972   3.671  11.878 -0.5975  1.3159 -0.3394
  728TIP3   OH223598   0.096   5.553  17.169 -0.2076  0.3795  0.2457
  728TIP3    H123599   0.005   5.578  17.154 -1.1822 -0.7832  3.4512
  728TIP3    H223600   0.138   5.632  17.202 -0.5601  0.4130  0.6115
  729TIP3   OH223601   0.398   2.082  16.102 -0.2361 -0.1659  0.1156
  729TIP3    H123602   0.368   2.056  16.189 -2.1546 -0.8375 -0.7098
  729TIP3    H223603   0.452   2.160  16.118  3.5656 -2.9013  2.3786
  730TIP3   OH223604   1.205   5.369  14.298 -0.4653  0.1066 -0.4782
  730TIP3    H123605   1.186   5.317  14.375  0.9767 -0.7953 -0.6898
  730TIP3    H223606   1.158   5.325  14.227  0.5698 -0.8132 -0.6164
  731TIP3   OH223607   4.410   3.324   3.067  0.2985 -0.2816 -0.1243
  731TIP3    H123608   4.433   3.417   3.061 -0.6924 -0.0552 -0.7000
  731TIP3    H223609   4.442   3.286   2.985  1.1057 -0.5507  0.3079
  732TIP3   OH223610   3.213   4.351   0.953  0.0125  0.5987  0.2468
  732TIP3    H123611   3.125   4.359   0.988 -0.5915  0.1423 -1.0915
  732TIP3    H223612   3.264   4.417   1.000 -0.6591 -0.1740  2.1516
  733TIP3   OH223613   2.875   5.888  15.532  0.1596 -0.3989  0.0534
  733TIP3    H123614   2.862   5.814  15.591 -3.0139  1.0887  1.4391
  733TIP3    H223615   2.893   5.962  15.590  0.7236  0.4103 -1.1253
  734TIP3   OH223616   6.210   4.891  11.208  0.1378 -0.2952 -0.0174
  734TIP3    H123617   6.220   4.979  11.172 -2.8967  0.1571  0.0424
  734TIP3    H223618   6.191   4.836  11.132  1.4408 -0.8486  0.0231
  735TIP3   OH223619   5.048   3.313   3.741  0.4197 -0.9878 -0.4044
  735TIP3    H123620   5.040   3.323   3.646 -0.2826 -1.6896 -0.4242
  735TIP3    H223621   5.117   3.248   3.753  1.3687 -0.0086 -0.3919
  736TIP3   OH223622   2.031   2.528   6.012  0.3104 -0.2426 -0.4540
  736TIP3    H123623   1.991   2.568   6.089 -0.8792  0.0572 -1.1985
  736TIP3    H223624   2.090   2.595   5.978  1.0451 -0.4762  0.3332
  737TIP3   OH223625   3.043   1.651  11.599  1.0820 -0.2622 -0.4553
  737TIP3    H123626   3.015   1.713  11.666  0.2635  0.0019 -1.0203
  737TIP3    H223627   2.983   1.577  11.608  0.9746 -0.2302 -0.8814
  738TIP3   OH223628   0.689   5.541  15.337 -0.0927  0.1139 -0.6689
  738TIP3    H123629   0.600   5.504  15.340 -1.5648  3.3031 -1.3179
  738TIP3    H223630   0.699   5.586  15.421 -0.4214  2.4302 -1.7976
  739TIP3   OH223631   0.352   2.669  13.098 -0.3286  0.0713  0.1171
  739TIP3    H123632   0.305   2.721  13.163  0.5343 -0.2439  1.0283
  739TIP3    H223633   0.297   2.592  13.084  0.7975 -1.3623  2.7732
  740TIP3   OH223634   6.280   3.047  14.938 -0.3659 -0.3286 -0.1098
  740TIP3    H123635   6.224   3.040  15.015  0.8335 -0.4224  0.7758
  740TIP3    H223636   6.353   3.103  14.966  0.3214 -0.7344 -1.0357
  741TIP3   OH223637   1.909   2.376  15.640  0.4155  0.4868  0.0106
  741TIP3    H123638   1.961   2.296  15.640  1.4350  1.1218  0.7050
  741TIP3    H223639   1.818   2.346  15.642  0.7882 -0.6474  0.7371
  742TIP3   OH223640   2.759   5.874   2.724 -0.0785  0.3689  0.3016
  742TIP3    H123641   2.767   5.797   2.781 -0.3115  0.3095  0.2557
  742TIP3    H223642   2.787   5.843   2.638  0.8830  0.6229  0.5120
  743TIP3   OH223643   2.026   4.040   2.648  0.7020  0.3658  0.7235
  743TIP3    H123644   2.035   4.095   2.726 -1.1492  0.4331  0.9470
  743TIP3    H223645   1.932   4.025   2.641  0.7647  0.7175 -1.7516
  744TIP3   OH223646   1.700   4.258   0.125 -0.0793 -0.0081  0.4991
  744TIP3    H123647   1.681   4.324   0.192  0.2888  0.8320 -0.1874
  744TIP3    H223648   1.772   4.296   0.075 -0.1634 -0.7376 -0.1964
  745TIP3   OH223649   1.673   1.770  13.550  0.1726  0.2536  0.2552
  745TIP3    H123650   1.735   1.843  13.543  0.4421 -0.0185 -0.1572
  745TIP3    H223651   1.600   1.807  13.601 -0.1090  1.0906 -0.7031
  746TIP3   OH223652   1.698   2.240  12.165  0.4665 -0.2298  0.2797
  746TIP3    H123653   1.676   2.215  12.075  0.4837  0.0365  0.2018
  746TIP3    H223654   1.730   2.330  12.158  1.0436 -0.4130  0.4661
  747TIP3   OH223655   2.109   6.374   5.118  0.0565 -0.3110 -0.4691
  747TIP3    H123656   2.103   6.357   5.212  1.4582 -0.0416 -0.3092
  747TIP3    H223657   2.043   6.442   5.103  1.0416  0.9695  0.6866
  748TIP3   OH223658   1.446   4.387   3.433 -0.2218 -0.1348 -0.2826
  748TIP3    H123659   1.355   4.395   3.403 -0.3580  0.3959  0.2581
  748TIP3    H223660   1.439   4.383   3.528  0.3960  1.1028 -0.1660
  749TIP3   OH223661   2.187   1.736  11.096  0.5186 -0.6292  0.1484
  749TIP3    H123662   2.181   1.680  11.018  0.1424 -0.9339  0.3939
  749TIP3    H223663   2.103   1.725  11.140  1.0960 -1.2523  1.1300
  750TIP3   OH223664   1.772   2.352  12.673  0.3898 -0.2604 -0.6273
  750TIP3    H123665   1.775   2.368  12.579  2.3994 -2.2741 -0.9886
  750TIP3    H223666   1.774   2.257  12.682 -2.9588 -0.3077  1.4754
  751TIP3   OH223667   6.667   4.131   0.372  0.1411 -0.3705 -0.5001
  751TIP3    H123668   6.756   4.096   0.377  0.0182 -0.9252 -1.7077
  751TIP3    H223669   6.667   4.185   0.293 -0.3294  0.4644  0.0538
  752TIP3   OH223670   6.429   4.239   3.589 -0.0741  0.4602  0.0119
  752TIP3    H123671   6.449   4.283   3.507 -2.8588  0.3096 -0.8432
  752TIP3    H223672   6.470   4.294   3.656  0.7649  1.5440 -1.3282
  753TIP3   OH223673   3.085   2.416   5.406 -0.4434 -0.2502 -0.4483
  753TIP3    H123674   3.108   2.490   5.350  1.2791 -1.4096 -1.3579
  753TIP3    H223675   3.083   2.340   5.346  1.8125 -1.5910  1.0417
  754TIP3   OH223676   3.980   6.503  12.129  0.0865  0.1862  0.0271
  754TIP3    H123677   3.910   6.566  12.149  1.3784  1.7451 -0.2076
  754TIP3    H223678   3.960   6.428  12.184 -3.2638 -0.5702 -1.8959
  755TIP3   OH223679   0.949   4.134  16.188  0.3782  0.4031 -0.2311
  755TIP3    H123680   0.956   4.076  16.112 -0.0715  0.1134 -0.0551
  755TIP3    H223681   1.035   4.176  16.194 -0.0332  1.5731 -1.8127
  756TIP3   OH223682   2.279   2.217   1.507 -0.7405 -0.1726  0.5577
  756TIP3    H123683   2.361   2.187   1.467 -0.0802  1.2612  0.7881
  756TIP3    H223684   2.306   2.270   1.582 -1.7836  1.8307 -0.3949
  757TIP3   OH223685   5.309   4.193   2.555  1.1752 -0.5647  0.0373
  757TIP3    H123686   5.288   4.155   2.640 -0.1590  1.0830  0.5052
  757TIP3    H223687   5.395   4.234   2.568  1.0513 -0.4624  0.5573
  758TIP3   OH223688   5.434   0.123  15.696  0.0191  0.5325 -0.1633
  758TIP3    H123689   5.520   0.146  15.659  0.9474  0.5314  1.8612
  758TIP3    H223690   5.387   0.207  15.700  0.1164  0.6218 -0.7811
  759TIP3   OH223691   0.442   1.525   0.172 -0.0338 -0.0572 -0.1077
  759TIP3    H123692   0.384   1.457   0.206  1.5293 -1.6872 -0.5480
  759TIP3    H223693   0.529   1.502   0.207  1.0206  0.1345 -2.3953
  760TIP3   OH223694   4.090   2.513  17.160  0.3794 -0.4156 -0.3025
  760TIP3    H123695   4.114   2.553  17.077 -4.3196  0.5041 -1.5313
  760TIP3    H223696   4.138   2.563  17.226  0.7131  2.0115 -2.2347
  761TIP3   OH223697   5.255   2.628   1.952 -0.2333 -0.2781  0.5410
  761TIP3    H123698   5.244   2.540   1.917  0.6943 -0.7424  1.3837
  761TIP3    H223699   5.167   2.654   1.980 -0.2974 -1.4601  1.4909
  762TIP3   OH223700   2.591   5.474   3.698 -0.3898 -0.1812 -0.0400
  762TIP3    H123701   2.533   5.458   3.623 -0.1276 -1.5423  0.0352
  762TIP3    H223702   2.598   5.389   3.742  0.6451  0.2618  0.6848
  763TIP3   OH223703   3.888   1.374  12.041 -0.4357  0.1865  0.6474
  763TIP3    H123704   3.975   1.406  12.065  0.7574 -2.5681  0.3439
  763TIP3    H223705   3.881   1.392  11.947  1.0837 -2.0935  0.0281
  764TIP3   OH223706   5.477   2.754   0.047 -0.2310  0.0931 -0.2319
  764TIP3    H123707   5.504   2.663   0.034 -0.6299 -0.3841  1.8574
  764TIP3    H223708   5.558   2.801   0.065 -0.0879  0.0577 -0.7553
  765TIP3   OH223709   5.218   6.519  13.336  0.3775  0.6954 -0.0019
  765TIP3    H123710   5.128   6.525  13.303  0.9742  0.3504 -1.8283
  765TIP3    H223711   5.261   6.598  13.302  1.2044 -0.0436 -0.7252
  766TIP3   OH223712   5.416   0.480   5.948  0.4625 -0.2536 -0.1577
  766TIP3    H123713   5.394   0.543   5.879  1.6722  0.7533  0.3489
  766TIP3    H223714   5.389   0.522   6.029  0.5741 -0.7176  0.1254
  767TIP3   OH223715   0.815   5.850   0.365  0.2705  0.2755  0.0561
  767TIP3    H123716   0.826   5.943   0.343 -0.0984  0.4105  0.4463
  767TIP3    H223717   0.887   5.831   0.425 -1.7351  1.2878  3.0070
  768TIP3   OH223718   3.731   5.826   0.236  0.2795 -0.1059 -0.2897
  768TIP3    H123719   3.776   5.765   0.294  2.7983  1.1141 -0.7797
  768TIP3    H223720   3.773   5.813   0.151 -0.6794  0.7723 -0.9198
  769TIP3   OH223721   4.380   3.770   3.830  0.1030 -0.5116  0.2588
  769TIP3    H123722   4.324   3.748   3.755  0.9842 -0.5869 -0.3924
  769TIP3    H223723   4.469   3.762   3.797  0.5051  0.6408  0.9828
  770TIP3   OH223724   2.712   2.353  16.508  0.2350 -0.3148  0.2957
  770TIP3    H123725   2.748   2.285  16.450  0.1885  0.1106 -0.2440
  770TIP3    H223726   2.725   2.319  16.596  2.2080 -0.0705  0.1525
  771TIP3   OH223727   1.653   3.156  12.075  0.0571  0.2529 -0.2964
  771TIP3    H123728   1.716   3.116  12.135 -0.7410  0.9933  1.0806
  771TIP3    H223729   1.707   3.188  12.002  1.0421 -0.6645 -0.0051
  772TIP3   OH223730   1.135   5.836   2.172 -0.2204  0.2577  0.5519
  772TIP3    H123731   1.170   5.756   2.210 -0.8064  0.1524  0.8756
  772TIP3    H223732   1.040   5.826   2.177 -0.3766 -0.2968 -2.0044
  773TIP3   OH223733   0.113   6.652   2.650  0.8953 -0.5044  0.2567
  773TIP3    H123734   0.112   6.568   2.697  1.7551 -0.6938 -0.0464
  773TIP3    H223735   0.167   6.709   2.705  2.0647 -0.7825 -0.5715
  774TIP3   OH223736   1.668   2.279   0.146 -0.0822 -0.3172 -0.5168
  774TIP3    H123737   1.675   2.201   0.092 -2.5594 -0.6422 -0.4544
  774TIP3    H223738   1.655   2.351   0.084  3.8757  0.4889 -0.7204
  775TIP3   OH223739   6.777   3.511   2.417  0.2383 -0.4606  0.2680
  775TIP3    H123740   6.867   3.477   2.416  0.8779  1.1216  0.9298
  775TIP3    H223741   6.772   3.564   2.337 -0.2902 -0.9348 -0.0227
  776TIP3   OH223742   5.261   2.869  17.129  0.5093  0.2219  0.3332
  776TIP3    H123743   5.288   2.853  17.038 -0.7758 -1.1456  0.1342
  776TIP3    H223744   5.324   2.820  17.181  0.4230 -0.1707  0.0768
  777TIP3   OH223745   1.789   4.064   4.825 -0.0366 -0.4412  0.3657
  777TIP3    H123746   1.724   4.003   4.788 -0.2374 -0.1541  0.2451
  777TIP3    H223747   1.866   4.053   4.770 -0.3010 -0.0876 -0.0853
  778TIP3   OH223748   3.612   0.346   4.839  0.5462 -0.6613  0.1248
  778TIP3    H123749   3.526   0.356   4.880  0.0821 -1.7249 -0.5402
  778TIP3    H223750   3.668   0.407   4.886  0.0324 -1.7882  2.3460
  779TIP3   OH223751   1.244   2.036   1.029 -0.8469  0.1503  0.0487
  779TIP3    H123752   1.315   1.991   0.983 -0.2957  0.2524  0.7745
  779TIP3    H223753   1.271   2.127   1.032 -1.6050  0.4071 -0.7534
  780TIP3   OH223754   1.163   0.135   3.262  0.8476  0.2348  0.2789
  780TIP3    H123755   1.106   0.146   3.337  1.5601 -1.3735  1.1248
  780TIP3    H223756   1.104   0.132   3.187  0.0972  1.5172  0.7952
  781TIP3   OH223757   4.305   2.012   4.879  0.1978 -0.0474 -0.7956
  781TIP3    H123758   4.355   1.984   4.955 -0.2531  1.3544  0.0395
  781TIP3    H223759   4.371   2.036   4.814  0.9102  4.5532  1.2393
  782TIP3   OH223760   2.395   6.770  12.211  0.0638 -0.3085  0.2100
  782TIP3    H123761   2.464   6.704  12.203  0.8127  0.3223  1.1798
  782TIP3    H223762   2.436   6.851  12.180  0.3988  0.4488  2.4233
  783TIP3   OH223763   2.970   4.019  11.729 -0.0318 -0.4078 -0.7506
  783TIP3    H123764   2.897   4.022  11.668  2.0627  0.7071 -3.4148
  783TIP3    H223765   3.033   4.082  11.694  2.3860 -1.5778  1.1669
  784TIP3   OH223766   5.385   1.484   0.257  0.2438 -0.1471 -0.0043
  784TIP3    H123767   5.316   1.515   0.316 -1.0469 -0.6686 -1.2047
  784TIP3    H223768   5.432   1.417   0.308 -0.4603 -0.1595  0.6396
  785TIP3   OH223769   2.397   4.862  11.544  0.4438 -0.8190 -0.0830
  785TIP3    H123770   2.380   4.869  11.638  0.1769  0.9600 -0.2311
  785TIP3    H223771   2.314   4.887  11.503  1.3246  1.1545 -0.7721
  786TIP3   OH223772   5.642   3.354   4.046 -0.4651  0.9101 -0.3274
  786TIP3    H123773   5.645   3.416   4.120  0.8530  1.3655 -0.7182
  786TIP3    H223774   5.588   3.282   4.077  0.2995  0.9526  1.2113
  787TIP3   OH223775   4.182   3.182  11.129 -0.0403 -0.2642  0.0860
  787TIP3    H123776   4.092   3.203  11.105 -0.5512 -2.1399  0.1654
  787TIP3    H223777   4.230   3.188  11.046 -0.0563  1.4556  0.1712
  788TIP3   OH223778   5.320   1.746  13.556 -0.0998  1.0184 -0.0923
  788TIP3    H123779   5.388   1.755  13.490  0.6483 -0.4614  0.4137
  788TIP3    H223780   5.348   1.670  13.608 -2.8043 -0.5216 -0.6886
  789TIP3   OH223781   2.039   6.738  12.776  1.2550 -0.2937  0.2872
  789TIP3    H123782   2.100   6.802  12.740  0.9493 -0.6865 -0.9702
  789TIP3    H223783   2.061   6.656  12.731 -0.1482 -0.4540 -0.1342
  790TIP3   OH223784   6.684   0.687   5.784 -0.0305 -0.8597  0.5914
  790TIP3    H123785   6.735   0.689   5.865  0.2860  1.2373  0.3787
  790TIP3    H223786   6.596   0.661   5.811 -0.3470  1.3516  1.9015
  791TIP3   OH223787   0.038   4.294  14.104  0.3984 -0.2790  0.0912
  791TIP3    H123788   0.067   4.319  14.016  2.8183  0.5143  1.0552
  791TIP3    H223789  -0.039   4.240  14.088  0.0078  0.8509 -2.4591
  792TIP3   OH223790   2.611   3.319  12.929 -0.4078 -0.5344 -0.1500
  792TIP3    H123791   2.597   3.402  12.974 -2.4401 -1.1821  0.5263
  792TIP3    H223792   2.530   3.304  12.881 -0.4311 -2.5300  0.4174
  793TIP3   OH223793   2.282   4.367   3.991 -0.5019  0.3625  0.2134
  793TIP3    H123794   2.216   4.332   4.051 -0.5737 -3.5982 -1.8459
  793TIP3    H223795   2.247   4.348   3.904  2.4872 -0.2654 -0.9809
  794TIP3   OH223796   6.763   1.190   0.038  0.3785  1.0205 -0.4727
  794TIP3    H123797   6.694   1.212   0.101 -0.6114 -0.4531 -0.9800
  794TIP3    H223798   6.777   1.096   0.051  1.7899  1.1571 -0.8901
  795TIP3   OH223799   5.194   2.530   0.373  0.3141 -0.2406 -0.7958
  795TIP3    H123800   5.185   2.542   0.467  0.4876 -0.5790 -0.7345
  795TIP3    H223801   5.190   2.435   0.360  0.7218 -0.2230 -1.0815
  796TIP3   OH223802   5.985   6.060  16.987  0.2632 -0.5014  0.2935
  796TIP3    H123803   5.995   6.004  16.909  2.3681 -1.0631  0.9029
  796TIP3    H223804   6.030   6.141  16.964  0.4455 -0.4753  0.7318
  797TIP3   OH223805   5.411   4.517   5.425 -0.7993  0.7616  0.1158
  797TIP3    H123806   5.421   4.589   5.364  2.5389  0.2639 -0.1348
  797TIP3    H223807   5.437   4.553   5.510 -0.4120  0.2380  0.2328
  798TIP3   OH223808   1.662   3.581  14.731  0.3142 -0.1948  0.7777
  798TIP3    H123809   1.648   3.658  14.676 -3.0063 -0.4292  1.1074
  798TIP3    H223810   1.702   3.615  14.811  1.9049  0.6530 -0.3241
  799TIP3   OH223811   6.189   4.459   5.524 -0.6310 -0.3711 -0.3913
  799TIP3    H123812   6.127   4.497   5.585 -0.9695 -0.7710 -0.4803
  799TIP3    H223813   6.152   4.373   5.503 -0.4516 -0.2913 -1.0543
  800TIP3   OH223814   5.138   5.935   1.967  0.0178  0.2283 -0.0591
  800TIP3    H123815   5.207   5.904   1.908 -2.5229 -3.2088 -1.5099
  800TIP3    H223816   5.070   5.969   1.909 -0.5862  1.2477  1.1892
  801TIP3   OH223817   3.119   3.558   5.230  0.0940  0.7908  0.1283
  801TIP3    H123818   3.130   3.484   5.290  1.3066 -0.3403 -1.3802
  801TIP3    H223819   3.027   3.556   5.206  0.2222 -0.6762 -0.3600
  802TIP3   OH223820   1.154   1.643   5.514 -0.2650  0.3235  0.2428
  802TIP3    H123821   1.149   1.559   5.468 -4.2078  0.2477  0.4024
  802TIP3    H223822   1.169   1.619   5.606  3.4488  0.2247 -0.2697
  803TIP3   OH223823   4.836   4.902   2.475 -0.5058 -0.1485 -0.2379
  803TIP3    H123824   4.810   4.924   2.564 -0.2891  0.9523 -0.4355
  803TIP3    H223825   4.858   4.986   2.434  1.0218 -0.7938 -0.8242
  804TIP3   OH223826   1.478   2.381  14.458  0.5575 -0.3298  0.2243
  804TIP3    H123827   1.441   2.367  14.371  1.4031 -0.1933 -0.1688
  804TIP3    H223828   1.542   2.451  14.446 -1.5333  1.9502  1.5825
  805TIP3   OH223829   6.031   4.588   3.028  0.6079  0.2202  0.0649
  805TIP3    H123830   5.944   4.579   2.990 -0.0686 -0.2345  1.6241
  805TIP3    H223831   6.037   4.680   3.054  1.2111  0.6169 -1.4087
  806TIP3   OH223832   4.968   4.793   4.193 -0.1824 -0.5193  0.2212
  806TIP3    H123833   5.013   4.878   4.195 -0.6750 -0.2643  1.0193
  806TIP3    H223834   4.947   4.780   4.100  1.3395 -0.5541 -0.1320
  807TIP3   OH223835   1.050   3.037   2.884  0.1191  0.1704 -0.1301
  807TIP3    H123836   1.032   3.108   2.822 -0.5485 -0.9479 -1.2417
  807TIP3    H223837   1.013   3.069   2.967 -1.4640  0.5494 -0.9388
  808TIP3   OH223838   3.510   3.932   5.839  0.3860 -0.2518 -0.3442
  808TIP3    H123839   3.545   3.980   5.914  2.2748 -0.3228 -1.1030
  808TIP3    H223840   3.477   3.850   5.876 -0.3802  0.4711  0.6191
  809TIP3   OH223841   1.382   5.814  16.914 -0.2935 -0.1634 -0.4021
  809TIP3    H123842   1.463   5.864  16.905  0.0461 -0.5270  0.4934
  809TIP3    H223843   1.314   5.873  16.883  0.4307 -0.2966 -2.3858
  810TIP3   OH223844   4.757   3.968   1.070  0.1397 -0.4520  0.0437
  810TIP3    H123845   4.805   3.966   1.152 -1.0482  0.6261  0.7955
  810TIP3    H223846   4.690   3.900   1.080 -0.8247  0.5481  0.5090
  811TIP3   OH223847   4.942   1.122  13.751  0.4689 -0.0390 -0.2750
  811TIP3    H123848   4.961   1.073  13.670  0.0566  0.4420 -0.6646
  811TIP3    H223849   4.871   1.073  13.792  0.7457 -0.3408 -0.1444
  812TIP3   OH223850   5.492   5.386  13.202 -0.2267  0.1157 -0.3806
  812TIP3    H123851   5.436   5.330  13.149  0.3527  0.0465 -0.9231
  812TIP3    H223852   5.545   5.435  13.139  0.3001  0.2038  0.1204
  813TIP3   OH223853   1.531   5.738   2.180  0.3370 -0.1111  0.2025
  813TIP3    H123854   1.524   5.737   2.085 -1.4310 -2.0821  0.3020
  813TIP3    H223855   1.479   5.813   2.207  1.7710  1.1524 -0.3813
  814TIP3   OH223856   0.628   4.477  11.519 -0.0425 -0.1958 -0.1552
  814TIP3    H123857   0.715   4.460  11.554 -0.1988  1.1778  0.9767
  814TIP3    H223858   0.606   4.397  11.471  0.8935 -1.4771  1.4541
  815TIP3   OH223859   1.919   5.461   1.504  0.4200 -0.5224  0.6854
  815TIP3    H123860   1.999   5.491   1.546  0.1661  1.9524 -0.4444
  815TIP3    H223861   1.942   5.452   1.412 -0.1275 -1.7197  0.6466
  816TIP3   OH223862   2.926   5.851  16.994  0.1411 -0.7234  0.5168
  816TIP3    H123863   3.014   5.815  17.003  0.3607  0.0198  1.6303
  816TIP3    H223864   2.922   5.920  17.060 -0.3386  1.1012 -1.3070
  817TIP3   OH223865   0.675   1.229  15.575  0.4506  0.8008 -0.0872
  817TIP3    H123866   0.737   1.262  15.640  1.1220 -0.1575 -0.2309
  817TIP3    H223867   0.728   1.212  15.497 -0.0968  0.5271 -0.4084
  818TIP3   OH223868   2.277   4.515   5.795 -0.0470 -0.5406 -0.6583
  818TIP3    H123869   2.227   4.589   5.761 -0.5259 -1.3443 -1.7321
  818TIP3    H223870   2.212   4.458   5.836  0.5091  0.3781  1.6264
  819TIP3   OH223871   5.162   1.107  16.965  0.0170 -0.5999  0.0218
  819TIP3    H123872   5.114   1.030  16.993  0.3571 -0.7720  0.1416
  819TIP3    H223873   5.254   1.083  16.975  0.1797  0.7889  2.8439
  820TIP3   OH223874   1.012   1.363  11.474  0.0501 -0.0326  0.1035
  820TIP3    H123875   1.017   1.385  11.381 -0.5792 -1.5687 -0.3252
  820TIP3    H223876   1.089   1.404  11.512  1.2805 -0.8385 -1.4198
  821TIP3   OH223877   2.080   1.713  11.714 -0.2385  0.1565 -0.2148
  821TIP3    H123878   2.128   1.653  11.657 -0.7645 -1.1722  0.6689
  821TIP3    H223879   2.042   1.777  11.655  0.1416 -0.5275 -1.2352
  822TIP3   OH223880   2.045   1.458   6.168 -0.7324  0.1195  0.2365
  822TIP3    H123881   2.014   1.548   6.161 -0.1787  0.5333  2.2879
  822TIP3    H223882   1.977   1.413   6.219  0.5398  0.2991  2.2053
  823TIP3   OH223883   1.261   4.915  13.737 -0.1527 -0.0676 -0.2349
  823TIP3    H123884   1.165   4.913  13.745 -0.3284 -0.2568 -2.0226
  823TIP3    H223885   1.284   5.007  13.749 -0.4045 -0.2009  1.4865
  824TIP3   OH223886   1.764   2.472   3.828  0.5899  0.7537 -0.7246
  824TIP3    H123887   1.737   2.399   3.772 -0.2820  0.2968  0.2513
  824TIP3    H223888   1.739   2.550   3.780 -0.5959  0.3650 -0.7706
  825TIP3   OH223889   5.277   5.362  16.131 -0.3933  0.0172 -0.6754
  825TIP3    H123890   5.363   5.348  16.092 -0.8035 -1.2361 -1.1972
  825TIP3    H223891   5.288   5.439  16.186  1.1641 -0.3279 -0.4389
  826TIP3   OH223892   6.701   1.917  16.228 -0.2963 -0.9668  0.4700
  826TIP3    H123893   6.771   1.940  16.166 -0.1869 -0.6977  0.6914
  826TIP3    H223894   6.737   1.843  16.277 -0.4569 -1.3011  0.0881
  827TIP3   OH223895   3.077   5.160   1.925  0.0331 -0.5471  0.4406
  827TIP3    H123896   3.011   5.179   1.991  0.6543 -0.6504  1.1109
  827TIP3    H223897   3.088   5.065   1.928 -0.4144 -0.6339 -0.2968
  828TIP3   OH223898   4.648   2.381  14.732  0.0851  0.2938  0.1348
  828TIP3    H123899   4.612   2.293  14.731  0.3608  0.1414  1.7126
  828TIP3    H223900   4.740   2.370  14.757  0.1088  1.0231  0.4051
  829TIP3   OH223901   5.441   3.474  14.082 -0.5529  0.0701  0.3255
  829TIP3    H123902   5.509   3.454  14.146 -0.8016  1.2754  0.9845
  829TIP3    H223903   5.470   3.429  14.002  0.9843  0.5134  0.5989
  830TIP3   OH223904   5.700   1.566  16.796 -0.4643 -0.1782  0.7221
  830TIP3    H123905   5.732   1.476  16.786  1.3277  0.2070  2.2660
  830TIP3    H223906   5.682   1.575  16.890  0.9181  1.4976  0.8802
  831TIP3   OH223907   3.881   6.233   5.670  0.1109 -0.0162  0.3864
  831TIP3    H123908   3.836   6.155   5.703  0.2285 -0.1895  0.1409
  831TIP3    H223909   3.835   6.306   5.711 -0.8991 -0.1523 -0.4456
  832TIP3   OH223910   2.879   6.146  12.087  0.3213  0.6875  0.3565
  832TIP3    H123911   2.945   6.142  12.018 -0.6489  2.8398 -0.8056
  832TIP3    H223912   2.799   6.173  12.042 -0.4723  1.6912  2.2393
  833TIP3   OH223913   3.208   0.183   1.344  0.0171 -0.7185  0.1283
  833TIP3    H123914   3.300   0.170   1.367  0.0762 -0.6065 -0.0443
  833TIP3    H223915   3.169   0.096   1.350  0.1380 -0.7685  0.1862
  834TIP3   OH223916   1.036   3.227   2.020  0.1284 -0.4790  0.0479
  834TIP3    H123917   1.064   3.137   2.036 -1.5799 -1.4646 -2.0094
  834TIP3    H223918   0.999   3.256   2.104  0.6201 -1.7262  0.7190
  835TIP3   OH223919   4.143   0.532  14.510  0.5488 -0.1204 -0.5017
  835TIP3    H123920   4.105   0.468  14.451  3.1025 -1.9580 -0.3388
  835TIP3    H223921   4.181   0.599  14.452 -1.3093  0.8240 -0.6970
  836TIP3   OH223922   3.088   2.559   1.366  0.4726  0.1907  0.2047
  836TIP3    H123923   3.064   2.540   1.457 -0.0859  1.0956  0.2629
  836TIP3    H223924   3.125   2.478   1.333 -0.1722 -0.4236  0.9685
  837TIP3   OH223925   5.119   6.719   0.374  0.1528  0.2666 -0.7901
  837TIP3    H123926   5.101   6.625   0.373  0.5727  0.1735 -0.2970
  837TIP3    H223927   5.102   6.748   0.285  0.6138 -0.3956 -1.1015
  838TIP3   OH223928   0.333   0.408  13.670 -1.0123  0.1032 -0.5874
  838TIP3    H123929   0.296   0.377  13.587 -0.4587 -0.7315 -0.5427
  838TIP3    H223930   0.409   0.459  13.645 -1.8675  1.3777 -0.6572
  839TIP3   OH223931   1.249   1.503  12.401 -0.2689  0.8542  0.2710
  839TIP3    H123932   1.305   1.430  12.429  0.8157  1.5635 -0.0204
  839TIP3    H223933   1.254   1.566  12.472 -1.4574  0.5402  0.6632
  840TIP3   OH223934   0.481   3.198  16.534 -0.6798 -0.0871 -0.3695
  840TIP3    H123935   0.577   3.196  16.528 -0.5678  0.3921  1.0912
  840TIP3    H223936   0.456   3.106  16.532 -0.0432 -0.3184  1.0174
  841TIP3   OH223937   4.994   2.271   2.359  0.5368  0.1835 -0.1640
  841TIP3    H123938   5.082   2.309   2.350  0.3398  0.8281  0.5199
  841TIP3    H223939   4.969   2.291   2.449 -1.2104  2.0428 -0.9746
  842TIP3   OH223940   6.330   6.350   3.775 -0.4600  0.1218  0.5573
  842TIP3    H123941   6.269   6.424   3.776 -0.5112  0.0774  1.1838
  842TIP3    H223942   6.356   6.340   3.867  2.6532  1.8968  0.0104
  843TIP3   OH223943   1.928   5.222  13.777 -0.4442 -0.4718  0.0383
  843TIP3    H123944   1.862   5.247  13.714  0.0156  1.3163  0.2035
  843TIP3    H223945   1.997   5.182  13.725 -1.4627 -2.0190 -0.1748
  844TIP3   OH223946   1.706   3.286  11.572  0.9623  0.2869  0.7326
  844TIP3    H123947   1.659   3.212  11.535  0.7630  0.0859  1.3750
  844TIP3    H223948   1.733   3.338  11.496 -1.2679  1.0074  0.3397
  845TIP3   OH223949   0.720   5.148   0.379  0.0927 -0.1222  0.2321
  845TIP3    H123950   0.777   5.094   0.324  0.8130  1.2349 -0.3942
  845TIP3    H223951   0.634   5.107   0.372  0.7884 -1.7007  0.4913
  846TIP3   OH223952   3.140   4.299   6.025  0.6480  0.4712 -0.3619
  846TIP3    H123953   3.140   4.281   6.119  0.9346  0.5701 -0.3442
  846TIP3    H223954   3.079   4.372   6.015  1.5257  1.2506 -0.1034
  847TIP3   OH223955   0.946   2.485  16.454  0.3439  0.2580  0.1971
  847TIP3    H123956   0.987   2.570  16.464  3.9560 -1.4799  1.7627
  847TIP3    H223957   0.877   2.484  16.520  0.0477  2.0072 -0.0328
  848TIP3   OH223958   2.224   3.845  14.267  0.5781  0.1115  0.0723
  848TIP3    H123959   2.310   3.826  14.230 -0.1373 -0.6639 -1.2711
  848TIP3    H223960   2.205   3.770  14.324  0.3965 -0.1806 -0.3690
  849TIP3   OH223961   1.578   1.067  14.968 -0.1194  0.7213 -0.4662
  849TIP3    H123962   1.515   1.138  14.982 -0.2640  0.3300  1.0789
  849TIP3    H223963   1.652   1.109  14.923 -1.0614  1.3943 -1.4202
  850TIP3   OH223964   1.408   0.139  14.320 -0.2216 -0.4196 -0.0237
  850TIP3    H123965   1.371   0.227  14.334  0.1605 -0.4851  1.5428
  850TIP3    H223966   1.369   0.085  14.388  0.1704 -1.2966 -0.4730
  851TIP3   OH223967   4.880   4.739   4.742  0.1890 -0.0489  0.4081
  851TIP3    H123968   4.865   4.715   4.651  1.4558 -0.9302  0.4128
  851TIP3    H223969   4.796   4.775   4.771 -0.3881 -0.2500 -0.9399
  852TIP3   OH223970   6.659   2.525  17.004  0.7620 -0.4390 -0.0013
  852TIP3    H123971   6.573   2.489  16.980 -0.5227  2.1397  0.3198
  852TIP3    H223972   6.663   2.516  17.099  0.7390 -0.3544  0.0083
  853TIP3   OH223973   0.132   3.551  12.599  0.2514 -0.1500 -0.0289
  853TIP3    H123974   0.112   3.625  12.542  0.9368 -0.1439 -0.2670
  853TIP3    H223975   0.199   3.584  12.659  1.6245 -0.9647 -1.0526
  854TIP3   OH223976   6.737   4.105  16.959 -0.2692 -0.7034  0.8263
  854TIP3    H123977   6.731   4.140  17.048 -1.7894  0.0848  0.4505
  854TIP3    H223978   6.796   4.165  16.913 -0.7860 -0.1407  0.8827
  855TIP3   OH223979   4.787   2.975  17.235  0.3340 -0.8795 -0.3500
  855TIP3    H123980   4.760   3.049  17.289 -1.3874 -0.5866 -1.5427
  855TIP3    H223981   4.748   2.992  17.149  1.2419 -2.3827 -1.1098
  856TIP3   OH223982   1.321   3.027  13.581 -0.0542 -0.1720 -0.2587
  856TIP3    H123983   1.271   3.072  13.513 -0.7178 -0.5439 -0.0194
  856TIP3    H223984   1.401   2.997  13.537  0.7587  1.8485 -0.2622
  857TIP3   OH223985   3.487   5.900   4.196  0.3010  0.2968  0.5924
  857TIP3    H123986   3.509   5.919   4.104 -1.0083 -1.4466 -0.1420
  857TIP3    H223987   3.475   5.805   4.198 -3.3101  0.6044  1.6645
  858TIP3   OH223988   3.804   1.747   3.195  0.3117 -0.4204  0.1242
  858TIP3    H123989   3.757   1.676   3.151 -0.9425  1.3647 -1.6251
  858TIP3    H223990   3.794   1.822   3.136  1.8996  1.1261  1.6967
  859TIP3   OH223991   6.562   1.251   3.474  0.1714 -0.2821 -0.3958
  859TIP3    H123992   6.616   1.202   3.411 -0.4958 -0.5468 -0.7767
  859TIP3    H223993   6.607   1.241   3.557 -0.5087 -2.5162 -0.2209
  860TIP3   OH223994   2.494   1.086   4.008 -0.0276 -0.6561  0.4829
  860TIP3    H123995   2.537   1.166   4.040  2.4592 -1.4184 -0.6480
  860TIP3    H223996   2.540   1.015   4.052 -0.1346 -1.5179 -0.7344
  861TIP3   OH223997   5.779   1.348  13.482  0.1864  0.4615  0.0607
  861TIP3    H123998   5.758   1.265  13.525  3.5255  0.1852  1.4569
  861TIP3    H223999   5.801   1.324  13.392 -1.8750  0.3608 -0.4809
  862TIP3   OH224000   6.600   4.546   3.531 -0.1532 -0.3620 -0.5518
  862TIP3    H124001   6.684   4.553   3.486 -0.8649  1.5766 -1.7149
  862TIP3    H224002   6.619   4.495   3.610  2.4051  1.0719 -0.1117
  863TIP3   OH224003   5.876   6.624   5.637 -0.3624  0.2942  0.0367
  863TIP3    H124004   5.868   6.604   5.543  3.4848  2.6487 -1.0069
  863TIP3    H224005   5.788   6.610   5.671 -1.2847 -3.9276 -3.1500
  864TIP3   OH224006   5.610   4.175  12.520  0.3203 -0.0849 -0.9614
  864TIP3    H124007   5.610   4.161  12.425  0.5201  0.2437 -1.0078
  864TIP3    H224008   5.525   4.141  12.548 -0.1054  0.6033 -1.3786
  865TIP3   OH224009   0.148   4.373  13.853  0.1537  0.6451  0.3690
  865TIP3    H124010   0.153   4.461  13.814  0.8660  0.8080  0.8066
  865TIP3    H224011   0.231   4.332  13.830 -0.1054  0.1489  0.3207
  866TIP3   OH224012   2.774   0.892  14.568 -0.3192 -0.2047  0.1786
  866TIP3    H124013   2.852   0.850  14.605 -1.1233 -2.8291 -0.9160
  866TIP3    H224014   2.805   0.936  14.489  0.2690 -0.0343  0.4956
  867TIP3   OH224015   4.567   1.802  15.348 -0.0621 -0.7469  0.2001
  867TIP3    H124016   4.581   1.895  15.368 -2.1078 -0.1450 -0.8943
  867TIP3    H224017   4.608   1.790  15.262 -0.9714 -0.4940 -0.2776
  868TIP3   OH224018   5.198   1.626  11.313  0.2338  0.0284 -0.3125
  868TIP3    H124019   5.171   1.583  11.395  0.1810  0.8755  0.1250
  868TIP3    H224020   5.223   1.714  11.340  1.1295  0.0183 -1.0796
  869TIP3   OH224021   6.103   2.940  16.101 -0.8249  0.1621  0.1537
  869TIP3    H124022   6.146   2.858  16.126  1.5897  0.9776 -0.9339
  869TIP3    H224023   6.073   2.979  16.183 -1.0694 -1.2933  0.7800
  870TIP3   OH224024   6.270   2.634   0.899 -0.3120 -0.2499  0.0248
  870TIP3    H124025   6.306   2.663   0.983 -1.5787  0.7709  0.2595
  870TIP3    H224026   6.283   2.709   0.840 -0.6374 -0.4411 -0.3005
  871TIP3   OH224027   1.730   1.537  11.580  0.3394  0.5320 -0.4420
  871TIP3    H124028   1.727   1.520  11.486 -1.1975  1.4843 -0.5992
  871TIP3    H224029   1.646   1.506  11.613  0.3681  1.2869  0.4021
  872TIP3   OH224030   4.232   6.036   2.679  0.5487 -0.4228  0.0776
  872TIP3    H124031   4.249   6.091   2.756 -0.0432  0.7470 -0.5982
  872TIP3    H224032   4.136   6.036   2.671  0.5655 -1.2153 -0.1866
  873TIP3   OH224033   2.540   3.967   3.092 -0.3806  0.4440 -0.7834
  873TIP3    H124034   2.557   4.036   3.157 -1.1768  0.8158 -0.9594
  873TIP3    H224035   2.512   3.892   3.143  1.5231 -0.1254 -0.4977
  874TIP3   OH224036   3.363   6.279  15.938  0.0519  0.1559  0.5385
  874TIP3    H124037   3.269   6.288  15.921 -0.9217  1.5276  5.2822
  874TIP3    H224038   3.397   6.368  15.931  0.0682  0.3680  2.6816
  875TIP3   OH224039   2.281   5.088   3.442  0.1975 -0.0585 -0.4042
  875TIP3    H124040   2.353   5.041   3.401  1.6114  0.7616  1.0166
  875TIP3    H224041   2.305   5.092   3.535 -0.5330  2.2303 -0.2552
  876TIP3   OH224042   2.065   6.559  13.858 -0.5214  0.0927 -0.1212
  876TIP3    H124043   2.030   6.647  13.846  2.7253  1.4430 -0.9279
  876TIP3    H224044   2.117   6.565  13.939  0.5569 -0.7431 -0.7222
  877TIP3   OH224045   1.383   6.506   0.071  0.1117  0.0316  0.3944
  877TIP3    H124046   1.298   6.540   0.097  0.5622  0.3078  1.5977
  877TIP3    H224047   1.445   6.576   0.093  0.3740  1.2866 -3.5779
  878TIP3   OH224048   1.808   5.559  12.880 -0.5758  0.5526  0.3273
  878TIP3    H124049   1.803   5.643  12.926  2.4749  0.8883  0.2782
  878TIP3    H224050   1.889   5.564  12.829 -0.8723 -2.0070 -0.5635
  879TIP3   OH224051   5.428   4.012   0.221  0.6190  0.6104 -0.3179
  879TIP3    H124052   5.495   3.958   0.264  0.4470 -1.1786 -2.1439
  879TIP3    H224053   5.467   4.099   0.216  0.8871  0.7730  2.7886
  880TIP3   OH224054   0.912   4.438   5.915 -0.3155  0.1912 -0.2825
  880TIP3    H124055   0.900   4.374   5.984  2.6665 -0.7730 -0.5038
  880TIP3    H224056   0.973   4.502   5.951  0.1400  0.4825 -1.4918
  881TIP3   OH224057   5.370   1.228  15.556  0.2833  0.3885 -0.3346
  881TIP3    H124058   5.332   1.311  15.530 -1.3330 -0.7100 -1.7103
  881TIP3    H224059   5.457   1.228  15.515  0.8313  1.8743  0.7431
  882TIP3   OH224060   4.694   6.440  17.252  0.2067 -0.6823 -0.3313
  882TIP3    H124061   4.672   6.365  17.197 -1.2212 -1.5536  1.3275
  882TIP3    H224062   4.768   6.410  17.306 -1.6575 -1.7522  1.7980
  883TIP3   OH224063   1.292   3.251   6.406 -0.1282 -0.2927  0.5042
  883TIP3    H124064   1.351   3.315   6.446  0.2619  0.0986 -0.6580
  883TIP3    H224065   1.251   3.207   6.480 -0.0355  0.9617  1.3380
  884TIP3   OH224066   3.910   1.362  13.501  0.1636 -0.0536  0.4392
  884TIP3    H124067   3.944   1.321  13.421 -0.6840 -0.8558  0.4765
  884TIP3    H224068   3.886   1.289  13.558  0.9112  0.5042  1.5121
  885TIP3   OH224069   2.791   3.577  10.704 -0.0222 -0.1914 -0.1599
  885TIP3    H124070   2.733   3.531  10.643  0.6159 -0.2575 -0.7394
  885TIP3    H224071   2.876   3.536  10.690 -0.1187 -1.1745  1.7894
  886TIP3   OH224072   0.084   4.993  15.874 -0.2029  0.1741 -0.3420
  886TIP3    H124073   0.104   4.900  15.876 -1.5256 -0.1541 -1.1800
  886TIP3    H224074   0.111   5.022  15.787  0.4381  0.6370  0.0049
  887TIP3   OH224075   3.569   3.302  13.283  0.2065 -0.1403 -0.1570
  887TIP3    H124076   3.574   3.384  13.333  1.4478 -0.6331  0.5689
  887TIP3    H224077   3.523   3.326  13.203 -1.3409  0.8139  0.9466
  888TIP3   OH224078   3.022   1.646  15.128  0.0291 -0.4211 -0.2936
  888TIP3    H124079   3.094   1.703  15.100  0.5237 -0.8301  0.1155
  888TIP3    H224080   3.006   1.590  15.052 -0.9547  0.7179 -0.9657
  889TIP3   OH224081   1.727   2.410  14.065  0.3824  0.9372 -0.1028
  889TIP3    H124082   1.746   2.363  14.146 -0.9253  1.1423  0.3512
  889TIP3    H224083   1.798   2.386  14.006  1.8581  1.4925  1.3869
  890TIP3   OH224084   2.515   0.855   2.581  0.2021  0.7685  0.0470
  890TIP3    H124085   2.495   0.948   2.593 -0.1279  0.8593 -1.0823
  890TIP3    H224086   2.576   0.853   2.508  0.4328  0.1110  0.2480
  891TIP3   OH224087   5.074   0.904   2.448 -0.3927  0.0153 -0.1223
  891TIP3    H124088   5.052   0.866   2.533  0.0969  1.4921  0.7008
  891TIP3    H224089   5.042   0.994   2.453  0.1239  0.2855 -1.3001
  892TIP3   OH224090   3.743   6.585  12.253  0.8218  0.8144  0.2498
  892TIP3    H124091   3.648   6.596  12.257  0.4913 -0.8994 -1.2791
  892TIP3    H224092   3.776   6.629  12.331 -1.3514  0.3008  1.5338
  893TIP3   OH224093   3.860   6.737  15.301  0.0937  0.5507 -0.4389
  893TIP3    H124094   3.919   6.664  15.280  0.7228  0.7186  0.6864
  893TIP3    H224095   3.908   6.815  15.273  1.0418  0.7966  1.7146
  894TIP3   OH224096   3.495   2.506   0.305  0.5642 -0.1819 -0.0276
  894TIP3    H124097   3.555   2.436   0.332 -0.5904 -0.3134  2.4436
  894TIP3    H224098   3.411   2.462   0.292  0.3904  0.3929 -0.9198
  895TIP3   OH224099   1.856   3.512  14.509  0.2338  0.1850 -0.3614
  895TIP3    H124100   1.772   3.500  14.466 -0.3856  0.3068  0.7766
  895TIP3    H224101   1.900   3.580  14.458 -0.7666  0.8214 -0.3957
  896TIP3   OH224102   6.322   2.090  16.042 -0.0213 -0.2859 -0.0988
  896TIP3    H124103   6.286   2.074  15.955  0.8401 -0.9845 -0.3402
  896TIP3    H224104   6.384   2.019  16.056  1.2968  0.8948  0.2918
  897TIP3   OH224105   1.903   5.416  17.158 -0.1358 -0.5473  0.1746
  897TIP3    H124106   1.953   5.406  17.239  0.2968  0.3449  0.0300
  897TIP3    H224107   1.881   5.509  17.155  0.8751 -0.3160 -1.2987
  898TIP3   OH224108   1.660   2.234  11.887  0.0288 -0.2417  0.6982
  898TIP3    H124109   1.714   2.258  11.813 -0.6025  0.0854  0.3343
  898TIP3    H224110   1.595   2.174  11.851 -0.3941  0.0610  0.9442
  899TIP3   OH224111   3.939   0.307   0.601  0.5040  0.2376 -0.4562
  899TIP3    H124112   3.907   0.375   0.542 -0.8933  1.0736  1.2174
  899TIP3    H224113   4.025   0.338   0.630 -0.0411  1.1811  0.1450
  900TIP3   OH224114   0.713   6.040  13.821  0.0191  0.4172 -0.2981
  900TIP3    H124115   0.673   6.080  13.744  0.8972  0.5991 -0.6756
  900TIP3    H224116   0.807   6.039  13.801  0.1181 -0.9033  0.1318
  901TIP3   OH224117   4.656   5.627  13.889  0.0938 -0.0440 -0.0913
  901TIP3    H124118   4.624   5.575  13.962  0.9983  0.7803  0.9138
  901TIP3    H224119   4.739   5.663  13.919  0.8900 -0.3413 -1.8258
  902TIP3   OH224120   0.936   2.715  12.722 -0.3166  0.1772 -0.3265
  902TIP3    H124121   0.997   2.684  12.655  0.3997 -0.5366  0.6211
  902TIP3    H224122   0.991   2.734  12.798 -0.9418  2.2335 -0.3268
  903TIP3   OH224123   6.279   0.843  10.834  0.5262  0.5617  0.7038
  903TIP3    H124124   6.232   0.904  10.891  1.1899  0.6817  1.1474
  903TIP3    H224125   6.335   0.900  10.780  0.4230  0.4049  0.4319
  904TIP3   OH224126   6.055   1.665  12.225 -0.4117  0.1855  0.7431
  904TIP3    H124127   6.124   1.630  12.169 -0.4429  1.5967 -0.2349
  904TIP3    H224128   6.022   1.589  12.273  0.9730 -0.7233  0.3248
  905TIP3   OH224129   1.513   5.253  16.665 -0.2109 -0.6822 -0.7319
  905TIP3    H124130   1.498   5.345  16.687  1.4368 -0.0965 -1.8459
  905TIP3    H224131   1.428   5.211  16.677 -0.9266  0.9194  0.0877
  906TIP3   OH224132   0.464   1.773  14.551  0.1590 -0.1604 -0.3323
  906TIP3    H124133   0.429   1.782  14.640  1.4627  0.1218  0.1716
  906TIP3    H224134   0.544   1.825  14.551  0.1846 -0.1539 -1.6840
  907TIP3   OH224135   5.077   0.373  13.275 -0.0712 -0.0090 -0.3523
  907TIP3    H124136   5.073   0.370  13.370  0.1198 -1.1553 -0.3659
  907TIP3    H224137   5.072   0.466  13.253 -0.1712  0.2566  0.7700
  908TIP3   OH224138   3.969   1.890   4.644  0.7511  0.0556  0.3625
  908TIP3    H124139   4.042   1.846   4.687  0.1598 -1.2129  0.0902
  908TIP3    H224140   3.927   1.941   4.713  1.4088  0.1520  0.6940
  909TIP3   OH224141   5.962   4.750   1.452  0.1968  0.0566  0.6214
  909TIP3    H124142   6.027   4.738   1.383 -2.0798  0.2313 -1.6802
  909TIP3    H224143   5.991   4.691   1.522  1.5255 -1.6727 -1.2639
  910TIP3   OH224144   6.519   5.549  16.764  0.3034 -0.9475 -0.1021
  910TIP3    H124145   6.511   5.603  16.685 -1.2633 -0.3089  0.4416
  910TIP3    H224146   6.554   5.609  16.830 -1.4705 -0.5078  0.5118
  911TIP3   OH224147   0.843   2.005  13.917  0.1235  0.0127 -0.4737
  911TIP3    H124148   0.876   2.004  13.827 -0.5538 -3.8769 -0.8503
  911TIP3    H224149   0.922   2.016  13.971  0.9003 -0.4102 -1.4924
  912TIP3   OH224150   3.158   1.511  13.911  0.7592  0.2331 -0.1319
  912TIP3    H124151   3.253   1.501  13.922  0.6272  0.3898  1.4588
  912TIP3    H224152   3.147   1.604  13.890  1.0343 -0.0662 -1.7144
  913TIP3   OH224153   1.682   1.518  15.098  0.2788 -0.5466  0.2868
  913TIP3    H124154   1.646   1.429  15.100 -1.3333  0.0616  0.5816
  913TIP3    H224155   1.699   1.539  15.190 -0.4965 -0.1312  0.3421
  914TIP3   OH224156   5.221   0.345   4.812 -0.5986 -0.4482  0.2910
  914TIP3    H124157   5.177   0.374   4.732 -0.5754 -0.8687  0.1191
  914TIP3    H224158   5.311   0.375   4.804 -0.9273  0.7168  0.7997
  915TIP3   OH224159   4.703   2.853   4.484 -0.0621  0.2673  0.1222
  915TIP3    H124160   4.772   2.867   4.549  0.7556 -1.4689 -0.3380
  915TIP3    H224161   4.635   2.805   4.531  0.1766 -0.2863 -0.0984
  916TIP3   OH224162   2.724   1.939  14.150 -0.5833  0.1432  0.3056
  916TIP3    H124163   2.675   1.973  14.225 -0.1813 -0.5016  0.8599
  916TIP3    H224164   2.760   2.017  14.108 -1.5178  0.5751  0.2814
  917TIP3   OH224165   0.205   3.708  13.881 -0.3862  0.0360 -0.5114
  917TIP3    H124166   0.244   3.792  13.855 -0.3491 -0.0389 -0.6982
  917TIP3    H224167   0.123   3.704  13.832 -1.1880  0.7059  0.7078
  918TIP3   OH224168   0.592   0.407   1.112 -0.0957  0.5352  0.0922
  918TIP3    H124169   0.525   0.393   1.045 -0.3241 -2.9605  0.8753
  918TIP3    H224170   0.544   0.400   1.195  0.7783  1.0491  0.6523
  919TIP3   OH224171   3.519   3.201  13.906 -0.2873 -0.1690  0.6538
  919TIP3    H124172   3.428   3.210  13.934 -1.0984 -1.3269 -1.3871
  919TIP3    H224173   3.544   3.112  13.932 -0.3697 -0.5058 -0.3705
  920TIP3   OH224174   3.882   5.579  13.949 -0.8190  0.6774 -0.0506
  920TIP3    H124175   3.903   5.670  13.971  0.3395  0.6869 -1.0598
  920TIP3    H224176   3.881   5.534  14.033 -1.9804  1.7245  0.5229
  921TIP3   OH224177   2.440   3.975   4.625 -0.3572  0.3622  0.0093
  921TIP3    H124178   2.515   3.922   4.652 -0.6343  0.1755  0.4099
  921TIP3    H224179   2.445   3.974   4.529  0.0245  0.1645  0.0261
  922TIP3   OH224180   5.545   5.678   1.654  0.4253  0.1603 -0.2225
  922TIP3    H124181   5.629   5.723   1.644  1.2394 -1.1019  0.5960
  922TIP3    H224182   5.518   5.697   1.743 -0.1123  0.4603 -0.4453
  923TIP3   OH224183   4.658   2.208  10.681  0.3982  0.5833 -0.0499
  923TIP3    H124184   4.675   2.120  10.646  1.9653  1.1969 -0.9206
  923TIP3    H224185   4.613   2.253  10.610 -2.0055  0.0048  1.0263
  924TIP3   OH224186   3.006   2.446  15.339 -0.8487 -0.5132  0.4127
  924TIP3    H124187   3.015   2.538  15.364 -2.4040 -0.0964 -0.4403
  924TIP3    H224188   2.983   2.401  15.420  0.0495 -0.1777  0.8597
  925TIP3   OH224189   4.891   5.878  12.800 -0.3892 -0.1887  0.4609
  925TIP3    H124190   4.983   5.870  12.823 -0.5674  0.3285  1.4096
  925TIP3    H224191   4.889   5.947  12.734 -0.0294 -0.6754 -0.0696
  926TIP3   OH224192   4.256   4.183  17.100  0.6835  0.0263 -0.2955
  926TIP3    H124193   4.310   4.115  17.141 -0.8641 -1.1400 -0.0998
  926TIP3    H224194   4.182   4.136  17.064  0.4086  1.4401 -1.6794
  927TIP3   OH224195   1.629   2.365  11.274 -0.1158 -0.3859  0.4458
  927TIP3    H124196   1.688   2.335  11.205  0.1612 -1.1749  1.0002
  927TIP3    H224197   1.584   2.286  11.303 -2.4908  0.4000 -0.8889
  928TIP3   OH224198   0.099   1.429  11.211  0.2389  0.1640 -0.3500
  928TIP3    H124199   0.008   1.429  11.240  0.0264  0.5385 -1.0071
  928TIP3    H224200   0.147   1.385  11.282 -0.2598  1.1483  0.6293
  929TIP3   OH224201   0.377   4.555  16.690  0.0597  0.5696 -0.3872
  929TIP3    H124202   0.354   4.647  16.704 -1.3316 -0.1477  3.1317
  929TIP3    H224203   0.473   4.554  16.693  0.0647  1.7735  1.0016
  930TIP3   OH224204   6.194   4.021  16.403 -0.0086  1.2499 -0.1014
  930TIP3    H124205   6.194   3.951  16.338 -2.0301  0.1664  0.9891
  930TIP3    H224206   6.195   4.101  16.351 -2.0308  0.4246 -1.5289
  931TIP3   OH224207   6.087   5.498  14.871  0.6588  0.4414 -0.0583
  931TIP3    H124208   6.142   5.433  14.915 -1.8327 -2.5598 -1.0166
  931TIP3    H224209   6.122   5.503  14.783 -0.5864 -1.6967 -0.7613
  932TIP3   OH224210   4.652   5.804   0.399  0.6484  0.1375 -0.3069
  932TIP3    H124211   4.635   5.730   0.340  1.7828  0.7027 -1.3785
  932TIP3    H224212   4.720   5.772   0.458  0.1322 -0.1369  0.1455
  933TIP3   OH224213   1.823   6.553   1.221 -0.5345  0.2460  0.5203
  933TIP3    H124214   1.863   6.630   1.262 -0.5164  0.4078  0.2042
  933TIP3    H224215   1.842   6.564   1.128 -2.7253  1.1870  0.1122
  934TIP3   OH224216   0.769   6.544   0.133 -0.2212 -0.3401  0.0572
  934TIP3    H124217   0.703   6.588   0.079 -0.3499 -1.2523 -0.5560
  934TIP3    H224218   0.723   6.519   0.213 -0.3805 -0.1741  0.0174
  935TIP3   OH224219   0.265   6.557  12.033 -0.3153  0.3868 -0.0615
  935TIP3    H124220   0.189   6.604  11.999 -0.3011  2.5357  2.6022
  935TIP3    H224221   0.340   6.599  11.991 -0.4543 -0.9881 -1.8217
  936TIP3   OH224222   0.738   3.200   2.987  0.3194 -0.1560  0.5786
  936TIP3    H124223   0.716   3.291   2.965  1.8496  0.1204  0.1078
  936TIP3    H224224   0.720   3.151   2.907 -0.7044 -0.3254  0.8956
  937TIP3   OH224225   5.932   5.702   4.793 -0.9971 -0.2816  0.5410
  937TIP3    H124226   5.856   5.760   4.790 -1.7384 -1.2582 -0.5299
  937TIP3    H224227   5.949   5.679   4.701 -0.4325 -1.3586  0.8939
  938TIP3   OH224228   3.343   1.253  13.832 -0.5986 -0.0698 -0.4753
  938TIP3    H124229   3.323   1.168  13.793 -2.1879  0.0949 -0.0551
  938TIP3    H224230   3.268   1.273  13.888 -0.1774  1.5425 -0.4340
  939TIP3   OH224231   3.756   4.128  11.777 -0.0118 -0.0997 -0.7864
  939TIP3    H124232   3.747   4.128  11.681  2.1741  1.6410 -1.0884
  939TIP3    H224233   3.667   4.137  11.810 -0.6484  2.0085 -2.7726
  940TIP3   OH224234   3.715   0.160  16.450  0.2166  0.3433  0.0442
  940TIP3    H124235   3.688   0.234  16.396 -0.7239 -1.0101 -1.4078
  940TIP3    H224236   3.642   0.099  16.446  0.6251 -0.3253  1.8924
  941TIP3   OH224237   0.343   5.192   1.851  0.2486 -0.0539  0.0776
  941TIP3    H124238   0.336   5.268   1.793  1.4557 -0.1971 -0.2661
  941TIP3    H224239   0.252   5.169   1.870 -0.1492  1.6124  0.3720
  942TIP3   OH224240   6.230   6.289   2.603  0.0909  0.2068  0.1362
  942TIP3    H124241   6.279   6.210   2.628 -0.0922  0.2964  0.8203
  942TIP3    H224242   6.180   6.310   2.682  0.8190  1.5260  0.2677
  943TIP3   OH224243   6.203   0.528   0.938  0.3811 -0.1900 -0.0304
  943TIP3    H124244   6.146   0.533   1.015 -1.1760  0.9291 -1.1847
  943TIP3    H224245   6.264   0.601   0.949  0.5124 -0.3549  0.3788
  944TIP3   OH224246   2.195   4.720   4.129 -0.2642 -0.0799  0.3829
  944TIP3    H124247   2.160   4.689   4.212  0.3524 -2.1079 -0.0729
  944TIP3    H224248   2.273   4.770   4.153 -0.4054 -0.1674  1.0473
  945TIP3   OH224249   6.052   4.611   3.442  0.6498 -0.5850  0.3375
  945TIP3    H124250   6.021   4.543   3.502  1.2811 -0.4723  0.8051
  945TIP3    H224251   6.147   4.604   3.445  0.7132 -1.4497 -1.6698
  946TIP3   OH224252   1.626   3.775  14.495 -0.5168  0.2674  0.7371
  946TIP3    H124253   1.595   3.734  14.414 -0.2189  1.4783 -0.0364
  946TIP3    H224254   1.682   3.846  14.464 -0.0403  0.4734  2.0362
  947TIP3   OH224255   2.119   2.685   5.061  0.6048  0.3189  0.2004
  947TIP3    H124256   2.078   2.630   5.128  0.6910  0.6816  0.5528
  947TIP3    H224257   2.201   2.714   5.100  1.1031 -0.2226 -0.4187
  948TIP3   OH224258   6.479   6.716   0.894 -0.3763 -0.5326 -0.0155
  948TIP3    H124259   6.559   6.764   0.917 -0.0791 -1.2077  0.3785
  948TIP3    H224260   6.423   6.782   0.853  1.4927 -0.5873 -2.9776
  949TIP3   OH224261   5.216   4.653   3.804 -0.4288  0.4457 -0.5848
  949TIP3    H124262   5.309   4.637   3.820 -0.7901 -0.4003  0.7755
  949TIP3    H224263   5.195   4.728   3.860 -0.5943  0.5909 -0.8388
  950TIP3   OH224264   5.822   3.885   4.925 -0.3254  0.1298 -0.6445
  950TIP3    H124265   5.867   3.969   4.918  1.5332 -0.5830  1.3998
  950TIP3    H224266   5.729   3.906   4.916 -0.0100  2.5992  0.9794
  951TIP3   OH224267   4.889   1.066   0.068 -0.4098 -0.2888  0.5548
  951TIP3    H124268   4.833   1.025   0.003 -2.6172 -0.6331  2.5260
  951TIP3    H224269   4.978   1.051   0.037 -1.3366  0.1300 -2.6518
  952TIP3   OH224270   2.061   0.294  11.909 -0.2805  0.0297 -0.9511
  952TIP3    H124271   2.137   0.301  11.851  0.2128  1.4939 -0.1700
  952TIP3    H224272   1.993   0.255  11.854  0.7380 -0.3870 -1.9499
  953TIP3   OH224273   5.808   2.773   1.277  0.0495  0.0852  0.3377
  953TIP3    H124274   5.840   2.772   1.186 -1.4613  0.8109 -0.2352
  953TIP3    H224275   5.764   2.689   1.287 -2.4342  1.1886 -0.6506
  954TIP3   OH224276   2.966   3.627  15.004 -0.0881  0.5174  0.0057
  954TIP3    H124277   3.059   3.620  15.029 -0.5090  0.2461  1.5990
  954TIP3    H224278   2.968   3.649  14.911  1.5936  1.4253  0.2142
  955TIP3   OH224279   5.628   3.333   2.562 -0.2079  0.3117  0.0709
  955TIP3    H124280   5.549   3.279   2.561 -0.2873  0.4203  0.4245
  955TIP3    H224281   5.604   3.413   2.517  0.2150 -0.3682 -1.4221
  956TIP3   OH224282   1.450   2.356  15.779  0.3032  0.7159  0.1079
  956TIP3    H124283   1.375   2.336  15.834  0.1299 -1.1987 -0.7364
  956TIP3    H224284   1.489   2.434  15.818 -0.8432  0.4642  1.8471
  957TIP3   OH224285   5.758   5.245   3.235 -0.5397  0.2891 -0.3372
  957TIP3    H124286   5.707   5.308   3.184  0.4088  1.4324  0.0970
  957TIP3    H224287   5.761   5.282   3.323  0.8653  0.1440 -0.3062
  958TIP3   OH224288   2.025   6.264   4.789 -0.4962  0.3195 -0.7413
  958TIP3    H124289   2.102   6.303   4.832 -0.6809 -1.0850  0.9810
  958TIP3    H224290   2.051   6.256   4.697  1.8645 -1.0743 -0.0409
  959TIP3   OH224291   6.555   6.029  16.244  0.6203 -0.5225 -0.0486
  959TIP3    H124292   6.525   6.019  16.154  0.5726 -1.7777  0.0878
  959TIP3    H224293   6.596   5.945  16.265  0.2316 -0.4030  1.2470
  960TIP3   OH224294   1.904   1.637  13.369  0.2129  0.6542 -0.4303
  960TIP3    H124295   1.818   1.602  13.390  0.5101 -0.7208 -1.3496
  960TIP3    H224296   1.927   1.693  13.443 -0.9758  0.1246  0.3479
  961TIP3   OH224297   4.431   4.094  14.380 -0.2959  0.4378 -0.1676
  961TIP3    H124298   4.462   4.177  14.418 -0.4275  0.2245  0.4236
  961TIP3    H224299   4.509   4.055  14.341 -0.5270  1.5914 -1.9148
  962TIP3   OH224300   0.877   4.214  11.616 -0.1543 -0.0692  0.1925
  962TIP3    H124301   0.882   4.309  11.606  1.2177  0.1139  2.1135
  962TIP3    H224302   0.785   4.196  11.635 -0.2213  1.0446  1.0015
  963TIP3   OH224303   2.448   1.142   4.388  0.5906  0.0962  0.7886
  963TIP3    H124304   2.533   1.103   4.368  1.2879  0.7668  2.2422
  963TIP3    H224305   2.462   1.186   4.472 -0.6345  1.9560  0.0833
  964TIP3   OH224306   5.451   3.567  15.137  0.2177 -0.2861  0.3940
  964TIP3    H124307   5.503   3.629  15.187  0.2878  0.3928 -0.5001
  964TIP3    H224308   5.452   3.487  15.189  0.6416  0.2734  1.2598
  965TIP3   OH224309   0.802   3.437  17.192 -0.1804 -0.1802  0.0345
  965TIP3    H124310   0.844   3.519  17.168  1.6493 -0.1657  2.8016
  965TIP3    H224311   0.781   3.395  17.109  0.5967  2.1930 -1.4555
  966TIP3   OH224312   6.445   1.353  11.842  0.1447  0.2435  0.2918
  966TIP3    H124313   6.516   1.333  11.904  0.4071 -0.9530 -0.3690
  966TIP3    H224314   6.366   1.324  11.887  0.4893 -2.1564 -0.5272
  967TIP3   OH224315   0.080   5.879   4.552 -0.1338  0.3540  0.6487
  967TIP3    H124316   0.018   5.944   4.586 -0.2045 -0.1520  1.5171
  967TIP3    H224317   0.148   5.874   4.619  0.2072  0.0134  0.2766
  968TIP3   OH224318   2.164   0.369   2.992  0.2535  0.5294  0.1023
  968TIP3    H124319   2.222   0.360   2.916 -1.2810 -0.1738 -1.0503
  968TIP3    H224320   2.119   0.453   2.978  1.3257  1.3431  1.2752
  969TIP3   OH224321   5.870   3.487  12.052 -0.0604 -0.3591  0.2701
  969TIP3    H124322   5.961   3.462  12.066  0.0890 -0.1439 -0.2953
  969TIP3    H224323   5.834   3.416  11.998  0.4358  0.7154 -1.5643
  970TIP3   OH224324   6.001   2.851  14.972 -0.4958 -0.2570 -0.4073
  970TIP3    H124325   5.939   2.924  14.970 -0.3991 -0.1756 -2.0955
  970TIP3    H224326   6.086   2.892  14.987 -0.7740 -0.3600  1.8102
  971TIP3   OH224327   6.136   5.789   1.345 -0.1576  0.1175 -1.0114
  971TIP3    H124328   6.125   5.851   1.418  1.4517 -0.4424 -0.2398
  971TIP3    H224329   6.182   5.839   1.278 -1.1148  0.4672 -1.4117
  972TIP3   OH224330   6.444   2.691   3.828  0.3820  0.1090 -0.4149
  972TIP3    H124331   6.352   2.715   3.823 -0.3473 -1.8462  1.8369
  972TIP3    H224332   6.478   2.736   3.905  0.6843 -0.9253  0.0808
  973TIP3   OH224333   2.212   1.168  15.458 -0.8347 -0.2421 -0.1095
  973TIP3    H124334   2.258   1.147  15.539 -1.9071  1.4580  0.9921
  973TIP3    H224335   2.205   1.263  15.457 -0.8873 -0.2186 -2.2017
  974TIP3   OH224336   2.019   1.321   1.554  0.7255  0.0322  0.1436
  974TIP3    H124337   2.066   1.368   1.623 -0.2813  0.5371  0.5033
  974TIP3    H224338   1.963   1.387   1.513  0.4843 -0.5080 -0.4139
  975TIP3   OH224339   4.311   0.626   5.631 -0.6305 -0.1899 -0.0199
  975TIP3    H124340   4.352   0.695   5.684  0.1832 -1.8113  1.5421
  975TIP3    H224341   4.260   0.674   5.565  0.8408  1.9005  0.2638
  976TIP3   OH224342   5.492   3.916   2.373 -0.2158 -0.1808  0.2717
  976TIP3    H124343   5.492   4.004   2.334  2.9462  0.0123  0.4451
  976TIP3    H224344   5.504   3.932   2.467  3.2492 -0.6815  0.0523
  977TIP3   OH224345   0.520   1.635  12.932 -0.1005  0.2364  0.3195
  977TIP3    H124346   0.521   1.653  12.838  1.5268 -1.3797 -0.0329
  977TIP3    H224347   0.475   1.551  12.940 -0.8368  0.6979  1.0638
  978TIP3   OH224348   4.751   5.470   3.080 -0.1880 -0.0671 -0.3191
  978TIP3    H124349   4.710   5.541   3.130  1.5896 -1.2678  3.1333
  978TIP3    H224350   4.699   5.392   3.101  0.6123 -0.6166 -0.3192
  979TIP3   OH224351   3.510   3.686   5.028  0.5362 -0.1234  0.1162
  979TIP3    H124352   3.585   3.688   4.969  1.7280  0.7018  1.5937
  979TIP3    H224353   3.494   3.778   5.051 -1.3816 -0.2095 -0.6809
  980TIP3   OH224354   1.588   2.013   1.259 -0.5513 -0.2475  0.5401
  980TIP3    H124355   1.672   2.055   1.240 -1.1936  0.1446 -1.6931
  980TIP3    H224356   1.610   1.940   1.317  0.7328  2.4225  3.7922
  981TIP3   OH224357   3.813   0.786   2.302  0.2087 -0.0667  0.2557
  981TIP3    H124358   3.740   0.750   2.252  0.4916 -2.5378  1.4619
  981TIP3    H224359   3.772   0.853   2.358 -0.5259  0.8977 -1.3719
  982TIP3   OH224360   5.860   3.798   5.213  0.4577 -0.0770  0.1498
  982TIP3    H124361   5.850   3.781   5.119  0.3632 -0.9080  0.2994
  982TIP3    H224362   5.778   3.768   5.251  0.5652  0.0959  0.5184
  983TIP3   OH224363   6.007   5.352  17.005 -0.0364  0.3770  0.3311
  983TIP3    H124364   6.010   5.271  16.955  0.1503  0.0979  0.7915
  983TIP3    H224365   5.996   5.421  16.938 -0.9128 -0.0714 -0.0059
  984TIP3   OH224366   0.167   0.223  13.134 -0.5978 -0.5005  0.4274
  984TIP3    H124367   0.261   0.243  13.129 -0.8444  0.4501 -1.2594
  984TIP3    H224368   0.162   0.148  13.194  1.0334  0.5257  1.9711
  985TIP3   OH224369   1.166   0.885   4.091 -0.0280  0.3258 -0.1633
  985TIP3    H124370   1.233   0.838   4.042 -1.1249  0.8035 -2.2358
  985TIP3    H224371   1.152   0.966   4.041 -2.8064 -0.1915 -0.3638
  986TIP3   OH224372   3.383   5.556  11.891 -0.7177  0.3807 -0.4053
  986TIP3    H124373   3.406   5.492  11.958 -0.5964  1.8175  0.9971
  986TIP3    H224374   3.296   5.587  11.916  0.2298  2.5796  0.5154
  987TIP3   OH224375   2.396   3.572   3.970 -0.3327 -0.1582 -0.0682
  987TIP3    H124376   2.456   3.626   3.918 -0.6578 -0.7461 -1.0887
  987TIP3    H224377   2.338   3.634   4.012  1.8493  0.5553  2.1376
  988TIP3   OH224378   5.754   6.494  16.798  0.1592  0.2579 -0.0333
  988TIP3    H124379   5.752   6.401  16.818 -0.5998  0.4877  1.0776
  988TIP3    H224380   5.807   6.501  16.719 -0.4387 -1.1946 -0.5921
  989TIP3   OH224381   5.398   0.594  12.290 -0.0505 -0.1995  0.5768
  989TIP3    H124382   5.405   0.521  12.229 -0.7434  0.6940 -0.6232
  989TIP3    H224383   5.305   0.596  12.314  0.3469 -1.0243  2.3101
  990TIP3   OH224384   5.978   3.616  16.453 -0.4459  0.2490  0.1655
  990TIP3    H124385   6.072   3.611  16.467 -0.0635  1.1419 -1.7505
  990TIP3    H224386   5.947   3.526  16.463  0.9798 -0.4571 -1.3499
  991TIP3   OH224387   5.066   0.199   0.561 -0.3643  0.6450 -0.1675
  991TIP3    H124388   5.144   0.251   0.541 -0.9192  1.3971 -0.4121
  991TIP3    H224389   5.069   0.127   0.498 -0.6490  1.5015 -1.1941
  992TIP3   OH224390   1.558   6.050   3.410  0.6718 -0.2277  0.0465
  992TIP3    H124391   1.582   6.138   3.378  1.7519 -0.3059  0.5814
  992TIP3    H224392   1.554   6.060   3.505 -1.4495 -0.2502  0.0013
  993TIP3   OH224393   3.244   4.613   2.518 -0.1135  0.4301 -0.5100
  993TIP3    H124394   3.211   4.644   2.434  1.7779  2.9294 -0.4576
  993TIP3    H224395   3.214   4.679   2.581  1.9302  0.8830  0.0605
  994TIP3   OH224396   2.992   3.276   0.527 -0.3468 -0.0481 -0.0998
  994TIP3    H124397   3.041   3.303   0.605  0.3374 -1.1856 -0.1105
  994TIP3    H224398   3.047   3.304   0.453 -0.1476 -0.5204 -0.1321
  995TIP3   OH224399   0.864   4.149  12.834 -1.0098  0.4813 -0.7175
  995TIP3    H124400   0.936   4.145  12.897 -1.2586 -1.3425 -0.5066
  995TIP3    H224401   0.787   4.168  12.887 -1.2044 -0.9624 -0.4532
  996TIP3   OH224402   2.987   4.819   0.125 -0.1535  0.1175 -0.8387
  996TIP3    H124403   3.076   4.852   0.117 -0.2128  0.1805 -1.2491
  996TIP3    H224404   2.950   4.825   0.037 -1.1878  1.8394 -0.3269
  997TIP3   OH224405   2.788   1.973   6.736  0.0767 -0.2108  0.2807
  997TIP3    H124406   2.843   2.030   6.682  0.3330  0.0865  0.8551
  997TIP3    H224407   2.819   1.884   6.718  0.1604 -0.1138 -0.0561
  998TIP3   OH224408   3.755   2.915  13.096  0.1491  0.4819  0.1415
  998TIP3    H124409   3.720   2.907  13.008 -0.3931  1.7056  0.2253
  998TIP3    H224410   3.706   2.851  13.148 -1.2527  1.4249  0.0377
  999TIP3   OH224411   1.791   0.067   2.299  0.0070  0.3038  0.2380
  999TIP3    H124412   1.800   0.139   2.236  1.1214 -0.4742 -0.5409
  999TIP3    H224413   1.743  -0.001   2.252  0.3303 -0.0591  0.4225
 1000TIP3   OH224414   5.212   5.000  15.040  0.2187  0.3509  0.0229
 1000TIP3    H124415   5.214   4.990  15.135 -1.7960  2.2149  0.3160
 1000TIP3    H224416   5.192   4.912  15.007 -0.0327 -0.1199  1.3777
 1001TIP3   OH224417   6.585   2.784  11.891 -0.0521 -0.7338  0.0071
 1001TIP3    H124418   6.669   2.740  11.900  0.1403 -0.1809  1.0572
 1001TIP3    H224419   6.545   2.778  11.978  0.7016  2.5386  0.7132
 1002TIP3   OH224420   1.406   6.015  16.581  0.6574 -0.3219 -0.1246
 1002TIP3    H124421   1.393   5.959  16.504 -2.7373 -0.1949  0.2033
 1002TIP3    H224422   1.443   5.956  16.647  0.2960 -1.3387 -0.8064
 1003TIP3   OH224423   4.980   1.015   3.591 -0.1189  0.1831  0.2272
 1003TIP3    H124424   5.029   1.079   3.642  0.1879 -0.2394  0.4583
 1003TIP3    H224425   4.893   1.055   3.581 -0.5749 -0.2498  2.1034
 1004TIP3   OH224426   6.717   1.380  17.139 -0.7176  0.2622  0.9546
 1004TIP3    H124427   6.742   1.315  17.206 -1.6767 -1.0655  0.0836
 1004TIP3    H224428   6.647   1.337  17.090 -0.1858  1.2942 -0.7754
 1005TIP3   OH224429   3.862   1.844  12.379 -0.3314 -0.1680  0.2801
 1005TIP3    H124430   3.780   1.839  12.329 -0.5434 -0.2927  0.6373
 1005TIP3    H224431   3.911   1.766  12.353 -0.7951 -0.6720  0.8748
 1006TIP3   OH224432   0.912   4.576   0.353 -0.0249 -0.0311 -0.1793
 1006TIP3    H124433   0.912   4.541   0.264  1.4187 -2.1255  0.5389
 1006TIP3    H224434   0.899   4.499   0.408  2.6953  0.5981  1.5200
 1007TIP3   OH224435   5.938   5.726  11.524  0.3952  0.4307  0.1053
 1007TIP3    H124436   6.022   5.750  11.562  0.3248  0.4853  0.2255
 1007TIP3    H224437   5.874   5.741  11.594  0.2647  0.5441 -0.0377
 1008TIP3   OH224438   0.864   0.154  11.948  0.4042 -0.1322 -0.1389
 1008TIP3    H124439   0.848   0.059  11.948  0.4471 -0.1615 -1.7066
 1008TIP3    H224440   0.958   0.162  11.962  0.4852 -0.3538 -0.5300
 1009TIP3   OH224441   6.397   0.834   0.396 -0.2057 -0.4019 -0.0551
 1009TIP3    H124442   6.451   0.759   0.374 -0.2408 -0.6385  0.6376
 1009TIP3    H224443   6.354   0.858   0.314  2.0504  0.7064 -0.9990
 1010TIP3   OH224444   4.135   2.277  11.574  0.2037 -0.0148  0.6040
 1010TIP3    H124445   4.221   2.311  11.548  0.0258  0.0010  0.0260
 1010TIP3    H224446   4.154   2.189  11.608  0.1996 -0.9904 -1.7293
 1011TIP3   OH224447   6.733   1.688   1.162 -0.3167 -0.1764  0.8876
 1011TIP3    H124448   6.827   1.685   1.181 -0.4029 -1.3599  1.1826
 1011TIP3    H224449   6.729   1.726   1.074  0.4548 -0.2564  0.8024
 1012TIP3   OH224450   2.109   1.079   2.266 -0.3723  0.4430 -0.0959
 1012TIP3    H124451   2.073   1.053   2.181 -1.2596  0.5493  0.2437
 1012TIP3    H224452   2.143   0.997   2.303  0.8894  0.5456 -0.9430
 1013TIP3   OH224453   5.525   4.853   3.875 -0.2180 -0.1040 -0.2937
 1013TIP3    H124454   5.512   4.837   3.968  0.0737  0.2868 -0.1857
 1013TIP3    H224455   5.520   4.766   3.835 -1.6798 -0.1367 -0.0797
 1014TIP3   OH224456   4.022   6.179   1.388  0.1529  0.1570  0.1827
 1014TIP3    H124457   4.023   6.099   1.441  0.8444  0.9290  1.3711
 1014TIP3    H224458   4.106   6.179   1.342 -0.2798 -0.3052 -0.6453
 1015TIP3   OH224459   1.069   4.366  12.220  0.3903 -0.4506  0.4406
 1015TIP3    H124460   1.138   4.399  12.164 -0.1942  2.0995  1.0605
 1015TIP3    H224461   0.997   4.345  12.161 -0.2040  2.1574  0.1213
 1016TIP3   OH224462   4.256   3.384  15.170  0.0272 -0.2852  0.2606
 1016TIP3    H124463   4.324   3.357  15.109  0.8168 -0.3557  1.1618
 1016TIP3    H224464   4.267   3.327  15.246 -2.5520 -1.9892 -0.4788
 1017TIP3   OH224465   2.389   2.889  14.998 -0.3889 -0.0926  0.4844
 1017TIP3    H124466   2.375   2.795  15.006  2.4799 -0.6474 -0.0015
 1017TIP3    H224467   2.391   2.905  14.903 -2.7346  0.8688  0.5206
 1018TIP3   OH224468   5.996   3.427  16.853 -0.0585 -0.2039  0.7003
 1018TIP3    H124469   6.023   3.389  16.769  1.4876  1.2970  0.4699
 1018TIP3    H224470   6.003   3.354  16.915 -0.9984 -1.2785 -0.4026
 1019TIP3   OH224471   3.592   3.292   3.788 -0.0959 -0.3587 -0.1173
 1019TIP3    H124472   3.583   3.198   3.806 -0.6544 -0.4474 -0.8284
 1019TIP3    H224473   3.506   3.328   3.809 -0.2359 -0.1925 -0.9383
 1020TIP3   OH224474   1.203   6.555  11.795 -0.2941 -0.4282  0.2838
 1020TIP3    H124475   1.273   6.493  11.775 -0.8125 -0.8231 -0.3286
 1020TIP3    H224476   1.216   6.576  11.887 -0.9331 -2.5029  0.9032
 1021TIP3   OH224477   6.405   3.975   4.470 -0.1614 -0.0570 -0.4799
 1021TIP3    H124478   6.368   4.047   4.521 -0.1928 -0.2815 -0.1797
 1021TIP3    H224479   6.351   3.899   4.494 -0.2378 -0.1436 -0.9232
 1022TIP3   OH224480   6.178   6.552   3.857  0.3607  0.1363 -0.1729
 1022TIP3    H124481   6.229   6.631   3.876 -0.1595  0.6385 -0.8416
 1022TIP3    H224482   6.087   6.579   3.869  0.1986 -0.4775  0.0012
 1023TIP3   OH224483   3.148   5.478  16.120  0.6892  1.0777  0.0789
 1023TIP3    H124484   3.105   5.561  16.099  2.6301  1.6814 -2.0296
 1023TIP3    H224485   3.242   5.497  16.109  1.2224 -1.1919  0.2748
 1024TIP3   OH224486   5.653   3.191   3.016 -0.4894 -0.3704 -0.1020
 1024TIP3    H124487   5.695   3.272   3.045 -1.3540 -0.2942  1.0317
 1024TIP3    H224488   5.718   3.122   3.034 -0.2921 -0.0901  0.2832
 1025TIP3   OH224489   4.077   4.783  16.718  0.1858  0.2817  0.0080
 1025TIP3    H124490   4.032   4.865  16.737 -0.2314 -0.0334  0.4210
 1025TIP3    H224491   4.006   4.719  16.709  0.4628  0.1077 -1.0654
 1026TIP3   OH224492   0.404   0.413  16.536  0.1319  0.4932  0.2226
 1026TIP3    H124493   0.455   0.482  16.579 -0.1535 -0.6750  2.6251
 1026TIP3    H224494   0.457   0.387  16.461  1.5556  1.4325  0.8510
 1027TIP3   OH224495   0.301   3.125   4.245 -0.0481  0.2897 -0.2779
 1027TIP3    H124496   0.332   3.088   4.162 -0.1729 -0.8694  0.1865
 1027TIP3    H224497   0.380   3.165   4.283 -0.0062  0.9083 -0.9754
 1028TIP3   OH224498   4.691   3.136   3.131 -0.8489 -0.3695 -0.1939
 1028TIP3    H124499   4.694   3.228   3.106 -2.7927  0.2220  1.4732
 1028TIP3    H224500   4.765   3.125   3.192 -0.6477  0.0957 -0.3515
 1029TIP3   OH224501   1.617   1.401  14.126  0.2645 -0.3767  0.4256
 1029TIP3    H124502   1.668   1.419  14.048  1.5346  0.0098  1.3142
 1029TIP3    H224503   1.564   1.325  14.103  1.5777 -1.0794 -0.3907
 1030TIP3   OH224504   6.063   4.577  15.665 -0.1424 -0.5040  0.3131
 1030TIP3    H124505   6.077   4.507  15.729 -0.5538  0.7645  1.8835
 1030TIP3    H224506   5.993   4.631  15.704  2.2882  2.5819  0.8099
 1031TIP3   OH224507   4.281   2.714   0.784  0.3978 -0.3728 -0.0558
 1031TIP3    H124508   4.344   2.782   0.763  0.7794 -0.8091 -0.3312
 1031TIP3    H224509   4.333   2.634   0.792 -0.3996 -1.2876 -2.9547
 1032TIP3   OH224510   6.020   3.838  12.350 -0.4614 -0.1562 -0.0923
 1032TIP3    H124511   6.079   3.824  12.424 -0.0272  0.2490 -0.3526
 1032TIP3    H224512   6.067   3.801  12.275 -0.1053  0.9974 -0.4675
 1033TIP3   OH224513   5.497   3.807   3.781 -0.4298 -0.1609 -0.0395
 1033TIP3    H124514   5.575   3.764   3.815  0.0087 -0.1179 -0.9648
 1033TIP3    H224515   5.488   3.773   3.692 -0.4435  1.1853 -0.5674
 1034TIP3   OH224516   4.474   2.284   5.204  0.1859  0.6503 -0.4459
 1034TIP3    H124517   4.538   2.227   5.248 -0.6105  0.2063  0.1672
 1034TIP3    H224518   4.505   2.290   5.114  1.0602  0.3958 -0.1702
 1035TIP3   OH224519   1.743   5.971   0.651  0.4553  0.4587  0.0190
 1035TIP3    H124520   1.704   5.964   0.565 -0.3093 -0.6773  0.4303
 1035TIP3    H224521   1.680   6.021   0.703 -0.7151 -1.7032  0.7862
 1036TIP3   OH224522   0.832   1.906  16.999  0.3019  0.2339  0.2869
 1036TIP3    H124523   0.753   1.954  17.021  0.1219 -0.6886  1.7607
 1036TIP3    H224524   0.903   1.955  17.041  0.3547  0.3055  0.1147
 1037TIP3   OH224525   0.304   3.948   2.324  0.3009 -0.1937 -0.2693
 1037TIP3    H124526   0.219   3.906   2.332 -0.4417  1.0410 -1.3115
 1037TIP3    H224527   0.293   4.033   2.366  0.7672  0.2946 -1.0959
 1038TIP3   OH224528   4.015   5.052  12.341  0.0149  0.1902 -0.1738
 1038TIP3    H124529   3.921   5.051  12.357  0.2539  1.5481  1.6704
 1038TIP3    H224530   4.036   5.143  12.321  1.2650  0.5261  2.2486
 1039TIP3   OH224531   6.229   2.352   4.362 -0.4668 -0.3273  0.6074
 1039TIP3    H124532   6.192   2.373   4.448  1.8952  0.9117  1.4215
 1039TIP3    H224533   6.316   2.316   4.382 -0.1601 -0.6987 -1.2549
 1040TIP3   OH224534   1.960   6.167   6.113 -0.1233  0.2805  0.6565
 1040TIP3    H124535   1.876   6.123   6.125  0.5990 -1.2591  0.3315
 1040TIP3    H224536   2.024   6.096   6.113  0.9243  1.1281 -1.8916
 1041TIP3   OH224537   4.149   4.502  13.248  0.3351 -0.5600 -0.2858
 1041TIP3    H124538   4.223   4.449  13.219  0.0824 -1.0859  0.0200
 1041TIP3    H224539   4.074   4.444  13.243  0.1806 -0.4813  0.8200
 1042TIP3   OH224540   5.908   3.790  11.890  0.3853  0.5782  0.1176
 1042TIP3    H124541   5.826   3.825  11.855  0.4650  0.7239  0.0764
 1042TIP3    H224542   5.944   3.737  11.820  0.6761  1.0805 -0.1249
 1043TIP3   OH224543   5.726   4.213   5.589  0.2808  0.5271  0.2334
 1043TIP3    H124544   5.813   4.200   5.628  0.5430 -1.7420 -0.9338
 1043TIP3    H224545   5.738   4.284   5.526  1.8186 -0.8957 -1.1951
 1044TIP3   OH224546   6.153   6.610   2.686  0.2856 -0.2049  0.1324
 1044TIP3    H124547   6.241   6.593   2.652  0.7683 -0.5264  1.5101
 1044TIP3    H224548   6.125   6.689   2.638  2.1832  1.1890  1.1786
 1045TIP3   OH224549   6.372   6.246   0.524  0.1724  0.0666 -0.3177
 1045TIP3    H124550   6.373   6.326   0.472  1.5125 -0.3015 -0.8962
 1045TIP3    H224551   6.464   6.223   0.534 -0.1842 -1.3320 -0.0476
 1046TIP3   OH224552   2.572   5.237   3.838  0.0930 -0.4097  0.2579
 1046TIP3    H124553   2.633   5.180   3.885  0.6864  0.3573  0.4425
 1046TIP3    H224554   2.498   5.247   3.898  0.3784 -0.2836  0.5909
 1047TIP3   OH224555   2.998   0.817  14.239 -0.6958  0.0499  0.2290
 1047TIP3    H124556   3.075   0.864  14.270  0.0082  0.0746 -1.4440
 1047TIP3    H224557   3.014   0.726  14.263 -1.0056  0.2952  1.4581
 1048TIP3   OH224558   0.502   0.321   4.432  0.0523  0.8385  0.1879
 1048TIP3    H124559   0.487   0.337   4.338 -0.6422  0.3469  0.2006
 1048TIP3    H224560   0.551   0.397   4.462  1.3627  0.4432 -0.8350
 1049TIP3   OH224561   1.659   5.691  12.535 -0.0473  0.1579 -0.1383
 1049TIP3    H124562   1.686   5.600  12.533  1.0052  0.4175  1.0844
 1049TIP3    H224563   1.616   5.705  12.451 -0.9971 -1.6772 -0.0142
 1050TIP3   OH224564   1.983   2.182  15.228 -0.0496  0.1414 -0.2292
 1050TIP3    H124565   1.908   2.235  15.252  1.0421  0.9296  1.6414
 1050TIP3    H224566   1.981   2.179  15.132 -1.4489  1.6109 -0.2778
 1051TIP3   OH224567   6.129   6.469   0.050  0.2426 -0.1302 -0.3282
 1051TIP3    H124568   6.222   6.483   0.065  0.4369 -0.6712 -0.9483
 1051TIP3    H224569   6.117   6.375   0.064 -0.3854  0.0783  0.6090
 1052TIP3   OH224570   5.705   4.878   5.526 -0.3278 -0.3659  0.1370
 1052TIP3    H124571   5.626   4.929   5.547  0.1487  0.4220  0.0390
 1052TIP3    H224572   5.677   4.816   5.459 -0.8096  0.0711 -0.0692
 1053TIP3   OH224573   6.384   2.019   3.312  0.0910 -0.0621  0.2110
 1053TIP3    H124574   6.410   2.009   3.220 -2.2236  1.4858 -0.6973
 1053TIP3    H224575   6.381   1.929   3.346 -0.0755 -0.7633 -1.5522
 1054TIP3   OH224576   6.011   1.531   4.571  0.0890 -0.1290  0.3416
 1054TIP3    H124577   5.972   1.445   4.585  1.7938 -1.6275 -2.8689
 1054TIP3    H224578   6.068   1.544   4.647  0.9661 -2.6213  0.2202
 1055TIP3   OH224579   1.196   2.086  12.631  0.3462  0.8683 -1.1696
 1055TIP3    H124580   1.168   2.023  12.697 -0.4427  2.3966  0.0314
 1055TIP3    H224581   1.120   2.097  12.574 -0.4281  2.4837  0.0780
 1056TIP3   OH224582   5.695   6.742   1.685  0.3690 -0.1766  0.1703
 1056TIP3    H124583   5.670   6.686   1.611  0.8148  0.1592 -0.2465
 1056TIP3    H224584   5.722   6.681   1.754 -0.5751 -0.5095  0.2553
 1057TIP3   OH224585   3.330   5.098  17.133  0.2217  0.0395  0.4365
 1057TIP3    H124586   3.405   5.158  17.136  1.1407 -1.0829  0.4849
 1057TIP3    H224587   3.319   5.079  17.040  0.1459  0.0240  0.4496
 1058TIP3   OH224588   1.301   4.924  11.247  0.5666 -0.6696  0.0018
 1058TIP3    H124589   1.357   5.001  11.262 -1.1503  1.4335 -3.2024
 1058TIP3    H224590   1.242   4.923  11.321  1.4347  0.3445  0.7516
 1059TIP3   OH224591   1.731   1.943  16.852 -0.0354  0.1270 -0.2079
 1059TIP3    H124592   1.770   1.905  16.931  0.0996 -0.8356 -0.7252
 1059TIP3    H224593   1.682   1.871  16.813  0.0188  0.5571 -1.0781
 1060TIP3   OH224594   2.078   1.924   1.127  0.1662  0.3929 -0.0609
 1060TIP3    H124595   2.052   1.940   1.036 -0.2417 -0.6574 -0.1370
 1060TIP3    H224596   2.157   1.870   1.120 -0.0272  0.0797  0.2203
 1061TIP3   OH224597   3.072   4.107  11.364 -0.0063 -0.4368  0.1785
 1061TIP3    H124598   3.095   4.191  11.405 -0.3046  0.0284 -0.5754
 1061TIP3    H224599   3.015   4.132  11.290  1.2713 -1.1609 -1.0972
 1062TIP3   OH224600   6.146   3.531   5.653  0.5720 -0.2772  0.5827
 1062TIP3    H124601   6.102   3.463   5.703  1.0216 -0.5579  0.5946
 1062TIP3    H224602   6.103   3.529   5.567  1.6185 -1.6372  0.0558
 1063TIP3   OH224603   6.037   2.757  12.766 -0.3796  0.1355  0.0978
 1063TIP3    H124604   5.959   2.787  12.814 -0.4565  0.3697 -0.1720
 1063TIP3    H224605   6.104   2.821  12.788 -0.7970  1.0781 -1.2335
 1064TIP3   OH224606   4.989   4.859  11.441  0.0732  0.3319 -0.2725
 1064TIP3    H124607   5.021   4.916  11.511  1.8425  0.4637 -1.1329
 1064TIP3    H224608   5.030   4.893  11.362 -1.1269 -0.4021 -1.2454
 1065TIP3   OH224609   4.327   4.545   6.313 -0.1706 -0.2292  0.2725
 1065TIP3    H124610   4.262   4.595   6.264 -1.7580 -0.3070  2.1559
 1065TIP3    H224611   4.312   4.454   6.288  1.4531 -0.0050 -1.7290
 1066TIP3   OH224612   4.181   6.239   1.746  0.3798  0.5356  0.4936
 1066TIP3    H124613   4.167   6.292   1.824 -0.2911  1.6404 -0.3430
 1066TIP3    H224614   4.131   6.284   1.678 -0.0233 -1.0452 -0.3067
 1067TIP3   OH224615   5.559   3.472   5.165 -0.1231  0.1024  0.1048
 1067TIP3    H124616   5.552   3.561   5.200  1.4429  0.4797 -0.4776
 1067TIP3    H224617   5.561   3.483   5.070 -0.0656 -0.5661  0.0232
 1068TIP3   OH224618   5.293   1.429   1.093  0.2325  0.5428 -0.3602
 1068TIP3    H124619   5.269   1.337   1.079 -0.9740  0.9786 -1.3603
 1068TIP3    H224620   5.368   1.443   1.036  1.8482 -0.3746  1.4575
 1069TIP3   OH224621   3.319   2.426   0.060  0.0392 -0.0040  0.3192
 1069TIP3    H124622   3.244   2.465   0.104  1.8220  1.4699  2.2782
 1069TIP3    H224623   3.333   2.342   0.104  0.9881  0.8489  1.7004
 1070TIP3   OH224624   2.047   5.657   4.807 -0.0433  0.3913  0.1699
 1070TIP3    H124625   2.131   5.704   4.810  1.4639 -2.1103  0.1093
 1070TIP3    H224626   2.027   5.650   4.714  0.5483 -0.3929  0.0920
 1071TIP3   OH224627   5.827   0.455   5.402  0.6069 -0.5410 -0.0428
 1071TIP3    H124628   5.849   0.503   5.322  1.9227  0.2048  0.7342
 1071TIP3    H224629   5.755   0.505   5.441  1.2602  0.2109  0.2180
 1072TIP3   OH224630   5.171   5.806   0.094 -0.0163 -0.5229  0.0283
 1072TIP3    H124631   5.241   5.855   0.138 -0.4509 -1.1335  1.4609
 1072TIP3    H224632   5.090   5.849   0.123 -0.3317 -1.2400  0.2456
 1073TIP3   OH224633   1.941   5.793   0.764  0.5312  0.0528  0.0124
 1073TIP3    H124634   1.892   5.715   0.793  0.0308  0.3537 -0.0220
 1073TIP3    H224635   1.874   5.857   0.743  0.9494  0.6160  0.3610
 1074TIP3   OH224636   5.230   0.190   2.177 -0.2508 -0.0483  0.1212
 1074TIP3    H124637   5.233   0.161   2.086 -0.6776  0.8918 -0.2046
 1074TIP3    H224638   5.306   0.149   2.218  0.3764  0.1142 -0.8439
 1075TIP3   OH224639   0.687   0.324   5.206  0.1096 -0.0251 -0.0493
 1075TIP3    H124640   0.595   0.330   5.178  0.2163 -1.0403 -0.6380
 1075TIP3    H224641   0.686   0.358   5.296 -0.9366 -0.5349  0.1487
 1076TIP3   OH224642   4.521   2.241  15.900 -0.1470  0.8157 -0.5446
 1076TIP3    H124643   4.509   2.331  15.930 -0.6764  0.2441  1.0882
 1076TIP3    H224644   4.548   2.193  15.979 -2.3789 -0.9555 -0.7443
 1077TIP3   OH224645   2.690   1.932   5.937  0.2491  0.4793 -0.2303
 1077TIP3    H124646   2.741   1.886   5.870 -0.8290 -1.1007 -0.0093
 1077TIP3    H224647   2.674   1.866   6.005 -2.3176  0.8071 -0.4222
 1078TIP3   OH224648   2.718   0.157   6.335  0.0228  0.5975 -0.0441
 1078TIP3    H124649   2.695   0.070   6.368 -1.2769  1.8430  2.6560
 1078TIP3    H224650   2.798   0.180   6.383 -1.3903  2.0735  1.7824
 1079TIP3   OH224651   5.552   0.003  11.528 -0.0258  0.3665 -0.3759
 1079TIP3    H124652   5.479  -0.018  11.585 -0.0814 -0.7527 -0.8394
 1079TIP3    H224653   5.557  -0.070  11.466  1.5881  0.3113 -0.2396
 1080TIP3   OH224654   3.339   3.477  13.277 -0.1699 -0.0683 -0.4583
 1080TIP3    H124655   3.252   3.516  13.276  0.0559  0.4817  0.3529
 1080TIP3    H224656   3.398   3.552  13.268  0.2519 -0.2802  0.4959
 1081TIP3   OH224657   2.351   3.877  11.890 -0.3444 -0.4337  0.1247
 1081TIP3    H124658   2.320   3.786  11.886 -0.8084 -0.2537 -0.7502
 1081TIP3    H224659   2.272   3.929  11.903 -0.2465 -0.0679 -0.6833
 1082TIP3   OH224660   5.808   4.972   4.706 -0.0867 -0.0816  0.2229
 1082TIP3    H124661   5.720   4.995   4.735  0.3532 -0.0644  1.5824
 1082TIP3    H224662   5.806   4.877   4.695 -0.2753 -0.0813  0.2559
 1083TIP3   OH224663   3.337   0.804   2.300  0.1017  0.3066 -0.8017
 1083TIP3    H124664   3.399   0.732   2.314 -0.2594  0.0694 -0.4149
 1083TIP3    H224665   3.260   0.780   2.351 -0.8270 -0.0187 -2.2895
 1084TIP3   OH224666   2.458   2.533  16.269  0.4101  0.1692 -0.0022
 1084TIP3    H124667   2.535   2.501  16.222 -0.5295  0.6744 -2.0072
 1084TIP3    H224668   2.398   2.459  16.270 -0.1457  0.5857 -0.9607
 1085TIP3   OH224669   2.724   4.314   3.326  0.7409  0.4928  0.8363
 1085TIP3    H124670   2.695   4.331   3.416 -0.7485  2.2303  0.0947
 1085TIP3    H224671   2.643   4.298   3.278  1.3768  1.2242 -0.5157
 1086TIP3   OH224672   4.360   3.287   6.066 -0.0411 -0.2867  0.4232
 1086TIP3    H124673   4.273   3.300   6.103  0.1911 -0.8716  1.2029
 1086TIP3    H224674   4.420   3.310   6.137  0.5215  2.1881 -0.7448
 1087TIP3   OH224675   0.607   1.932   2.904  0.4125 -0.4409 -0.0421
 1087TIP3    H124676   0.595   1.840   2.879 -1.0079  0.0020 -1.0692
 1087TIP3    H224677   0.537   1.949   2.967  0.7071 -0.0561  0.1893
 1088TIP3   OH224678   5.299   5.986  16.769 -0.2049 -0.2277  0.5034
 1088TIP3    H124679   5.301   5.953  16.859 -1.4235 -2.1768 -0.1180
 1088TIP3    H224680   5.286   5.908  16.715 -1.6230  1.0973 -1.2159
 1089TIP3   OH224681   0.292   3.931   5.728 -0.3642  0.2101 -0.1561
 1089TIP3    H124682   0.225   3.966   5.670 -0.0324  0.2209 -0.5400
 1089TIP3    H224683   0.375   3.959   5.688 -0.1106  2.7874  1.8925
 1090TIP3   OH224684   2.775   1.499  12.705 -0.1094  0.3512  0.0372
 1090TIP3    H124685   2.855   1.549  12.691  0.7580 -0.9211  0.2522
 1090TIP3    H224686   2.796   1.440  12.777 -1.7359  0.9924  1.0922
 1091TIP3   OH224687   3.539   0.523  14.106  0.1887  0.4801  0.1184
 1091TIP3    H124688   3.452   0.560  14.117 -0.4821 -0.9259 -0.2294
 1091TIP3    H224689   3.596   0.579  14.159 -1.0584  0.9102  1.0541
 1092TIP3   OH224690   2.151   2.573  12.204 -0.3563  0.0877  0.3140
 1092TIP3    H124691   2.195   2.491  12.227 -0.1585  0.4258  1.1774
 1092TIP3    H224692   2.065   2.546  12.173  0.2746 -0.5525 -0.9640
 1093TIP3   OH224693   3.897   5.970   1.910 -0.9220 -0.2938 -0.4081
 1093TIP3    H124694   3.931   5.926   1.832  1.8454  0.2465  0.3767
 1093TIP3    H224695   3.805   5.944   1.914  0.0911 -4.6686 -0.8933
 1094TIP3   OH224696   3.198   2.805  11.299  0.5249 -0.2002  0.3450
 1094TIP3    H124697   3.251   2.837  11.226  1.4637 -0.3728  0.9477
 1094TIP3    H224698   3.166   2.885  11.342 -0.5141 -0.0932 -0.5798
 1095TIP3   OH224699   5.687   5.718   6.415  0.1169 -0.3918  0.1919
 1095TIP3    H124700   5.679   5.813   6.429 -1.7941 -0.4998  0.0858
 1095TIP3    H224701   5.749   5.690   6.482  0.6871  0.9183  0.2528
 1096TIP3   OH224702   3.397   0.278  12.990  0.0310 -0.0126  0.2930
 1096TIP3    H124703   3.484   0.274  12.952  0.7109 -2.7313  1.8695
 1096TIP3    H224704   3.408   0.329  13.071  0.4818 -1.3308  1.0955
 1097TIP3   OH224705   2.536   2.479  12.650 -0.3376  0.1804  0.1444
 1097TIP3    H124706   2.624   2.513  12.633  0.0972 -0.1524  1.6645
 1097TIP3    H224707   2.543   2.434  12.734 -1.4883 -1.5858 -0.6556
 1098TIP3   OH224708   5.033   6.386   1.654 -0.2644  0.5666 -0.1556
 1098TIP3    H124709   5.027   6.481   1.643  0.4427  0.7190  0.6363
 1098TIP3    H224710   4.943   6.355   1.645 -0.6400  1.4254  0.5033
 1099TIP3   OH224711   4.640   1.736   3.176  0.4803  0.4277  0.0322
 1099TIP3    H124712   4.715   1.731   3.116  0.0544  2.3058 -0.7225
 1099TIP3    H224713   4.673   1.784   3.251  0.5120 -0.3593  0.5343
 1100TIP3   OH224714   0.950   4.315  14.348  0.1664  0.7925 -0.1606
 1100TIP3    H124715   0.983   4.285  14.264  1.4475  0.4006  0.4585
 1100TIP3    H224716   1.014   4.379  14.378 -0.0118  0.5595  0.7494
 1101TIP3   OH224717   1.977   4.386  11.551 -0.0456 -0.7214 -0.4066
 1101TIP3    H124718   1.976   4.330  11.473 -1.3090 -1.5407  0.1433
 1101TIP3    H224719   2.057   4.362  11.597  1.2167  0.4791 -1.9100
 1102TIP3   OH224720   0.011   6.463   3.132  0.2036 -0.1075  0.1589
 1102TIP3    H124721  -0.016   6.372   3.141 -2.0107  0.4590  0.1105
 1102TIP3    H224722  -0.018   6.488   3.044  1.0488  0.5503  0.0591
 1103TIP3   OH224723   0.487   4.900   1.400  0.1561  0.3361 -0.1611
 1103TIP3    H124724   0.455   4.812   1.419  2.6547 -0.6022  0.0009
 1103TIP3    H224725   0.453   4.954   1.472 -1.4054 -0.4357 -0.2634
 1104TIP3   OH224726   4.861   6.681  13.914 -0.0558  0.0840 -0.3824
 1104TIP3    H124727   4.830   6.647  13.830 -3.4689 -0.2236  0.8306
 1104TIP3    H224728   4.791   6.740  13.943  0.4838 -0.6245  2.6813
 1105TIP3   OH224729   1.232   5.391  11.784  0.5732 -0.0190  0.0832
 1105TIP3    H124730   1.137   5.387  11.793  0.3068  3.2980  0.0170
 1105TIP3    H224731   1.265   5.400  11.873  1.0734 -2.7857  0.2722
 1106TIP3   OH224732   2.818   4.168   0.017  0.0013  0.9346 -0.3002
 1106TIP3    H124733   2.806   4.210   0.102 -0.1230  0.9446 -0.3227
 1106TIP3    H224734   2.766   4.222  -0.043 -1.3668 -0.0907 -0.0852
 1107TIP3   OH224735   6.062   3.095  17.015 -0.2796  0.2194 -0.0702
 1107TIP3    H124736   6.144   3.121  17.056 -0.0564  0.3475 -0.6014
 1107TIP3    H224737   6.087   3.043  16.940 -0.7083 -0.7595  0.4450
 1108TIP3   OH224738   2.831   2.300   0.975 -0.1209 -0.0828  0.0565
 1108TIP3    H124739   2.867   2.213   0.954  1.8384  0.0870  2.2097
 1108TIP3    H224740   2.796   2.332   0.892  0.4117 -2.3218 -1.1338
 1109TIP3   OH224741   5.715   1.657  11.795 -0.5511 -0.2951  0.1836
 1109TIP3    H124742   5.706   1.576  11.846 -1.7225 -1.9719 -2.4891
 1109TIP3    H224743   5.625   1.687  11.782 -0.5151 -1.1237 -2.6017
 1110TIP3   OH224744   2.412   4.140  14.216  0.1909 -0.3510 -0.5202
 1110TIP3    H124745   2.417   4.218  14.271  0.1793 -0.7523  0.0658
 1110TIP3    H224746   2.475   4.079  14.255 -0.1301 -0.7974 -0.6890
 1111TIP3   OH224747   1.337   5.534   4.050 -0.2405  0.4370 -0.3226
 1111TIP3    H124748   1.315   5.604   3.989 -0.1774  0.3057 -0.4973
 1111TIP3    H224749   1.254   5.508   4.089 -0.4961 -0.4515 -1.4058
 1112TIP3   OH224750   3.018   4.808  14.971  0.4331  0.2261  0.4666
 1112TIP3    H124751   3.010   4.812  15.067  0.0057 -0.6662  0.4854
 1112TIP3    H224752   2.928   4.796  14.941  0.7364 -1.2450  0.0748
 1113TIP3   OH224753   5.537   1.049   2.456 -0.9797  0.3879  0.0226
 1113TIP3    H124754   5.581   1.104   2.521 -0.2392  0.6094 -0.6436
 1113TIP3    H224755   5.578   1.074   2.372 -0.0817 -1.7092 -0.2192
 1114TIP3   OH224756   2.007   6.520   6.369 -0.2322  0.2986 -0.0314
 1114TIP3    H124757   2.100   6.503   6.385  0.4958  1.8010 -2.2567
 1114TIP3    H224758   1.990   6.484   6.282 -1.6427  0.4375  0.1639
 1115TIP3   OH224759   3.129   3.364  16.327 -0.0051  0.1542  0.6392
 1115TIP3    H124760   3.063   3.340  16.392  1.7917 -0.2956  2.3745
 1115TIP3    H224761   3.140   3.458  16.337 -0.1752  0.1863  0.5331
 1116TIP3   OH224762   3.329   1.106  13.088 -0.3651  0.2143  0.1577
 1116TIP3    H124763   3.342   1.198  13.064  1.9101  0.0929  0.6622
 1116TIP3    H224764   3.417   1.074  13.108 -1.2336 -1.7795  1.0946
 1117TIP3   OH224765   3.303   3.280  14.874  0.1895 -0.0583  0.2707
 1117TIP3    H124766   3.290   3.199  14.823  0.6809  0.4090 -0.6244
 1117TIP3    H224767   3.398   3.291  14.877  0.1152  0.6120  0.1840
 1118TIP3   OH224768   4.220   0.221   2.648  0.0530  0.7740 -0.4303
 1118TIP3    H124769   4.304   0.249   2.684 -0.2531 -0.4965  1.4335
 1118TIP3    H224770   4.230   0.127   2.633 -0.2838  1.0223 -2.5223
 1119TIP3   OH224771   0.464   0.853   4.445  0.0383  0.4796  0.2227
 1119TIP3    H124772   0.428   0.846   4.533 -2.5735  1.0744 -0.7037
 1119TIP3    H224773   0.432   0.937   4.413  2.0529  0.9047 -0.8803
 1120TIP3   OH224774   6.434   0.637  13.983  0.2513  0.1346  0.1407
 1120TIP3    H124775   6.474   0.649  14.069  1.6063 -0.2157 -0.4123
 1120TIP3    H224776   6.349   0.680  13.990  0.1699 -0.2124  1.7642
 1121TIP3   OH224777   5.437   5.407  13.664 -0.6154 -0.0439  0.2291
 1121TIP3    H124778   5.527   5.374  13.664 -0.3950  0.4900  1.3061
 1121TIP3    H224779   5.392   5.355  13.597  0.6351  0.1003 -0.7663
 1122TIP3   OH224780   1.183   4.398   5.513 -0.6100  0.0427  0.7036
 1122TIP3    H124781   1.187   4.305   5.487  0.1052 -0.9203  3.8204
 1122TIP3    H224782   1.255   4.439   5.466 -0.4802 -1.1453 -0.1875
 1123TIP3   OH224783   0.675   3.165   5.389  0.6260 -0.3274  0.0815
 1123TIP3    H124784   0.604   3.120   5.436  0.8206 -0.8082 -0.0824
 1123TIP3    H224785   0.636   3.188   5.305  0.9785 -1.5289 -0.4194
 1124TIP3   OH224786   6.453   0.290  14.422 -0.2747  0.2976 -0.0232
 1124TIP3    H124787   6.424   0.380  14.436 -0.2971  0.8362 -2.9962
 1124TIP3    H224788   6.378   0.247  14.381  0.1055 -0.8171  0.4070
 1125TIP3   OH224789   0.445   4.970  17.027  0.1967 -0.1617 -0.0271
 1125TIP3    H124790   0.502   4.933  16.960 -1.4594 -1.0604 -1.0006
 1125TIP3    H224791   0.388   5.031  16.979 -1.4633 -1.3213  0.3844
 1126TIP3   OH224792   5.911   0.327  16.510  0.5613  0.6035  0.2039
 1126TIP3    H124793   5.956   0.267  16.451 -0.1285 -0.0329  0.3148
 1126TIP3    H224794   5.965   0.406  16.510  0.6358  0.5827 -1.2025
 1127TIP3   OH224795   0.264   4.199   2.437 -0.4472  0.6776 -0.9164
 1127TIP3    H124796   0.190   4.255   2.413 -0.8793  0.3334 -0.4099
 1127TIP3    H224797   0.339   4.258   2.438 -0.3767  0.6852 -3.2184
 1128TIP3   OH224798   6.602   0.247  11.958 -0.5349 -0.4164 -0.1281
 1128TIP3    H124799   6.537   0.311  11.928 -0.4551  0.4948  1.5084
 1128TIP3    H224800   6.674   0.256  11.895 -0.7572  0.7268 -0.2545
 1129TIP3   OH224801   0.514   3.842  15.362 -0.3938  1.5744 -0.2633
 1129TIP3    H124802   0.605   3.828  15.336 -0.3665  1.1807  0.0219
 1129TIP3    H224803   0.496   3.771  15.424 -1.3633  0.7233 -1.4593
 1130TIP3   OH224804   4.618   6.301   0.344 -0.0993 -0.6804 -0.1978
 1130TIP3    H124805   4.696   6.356   0.339  0.5860 -1.6549 -0.6188
 1130TIP3    H224806   4.621   6.264   0.432 -1.4165  1.1307  0.6663
 1131TIP3   OH224807   3.814   6.559  16.725  0.4148 -0.6196 -0.1086
 1131TIP3    H124808   3.787   6.486  16.779 -0.6005 -0.1807 -0.0096
 1131TIP3    H224809   3.823   6.632  16.786  0.6152 -0.4547 -0.3326
 1132TIP3   OH224810   0.304   4.106  13.051 -0.0858 -0.6258  0.5033
 1132TIP3    H124811   0.376   4.131  12.994 -1.1121  1.0539 -0.1326
 1132TIP3    H224812   0.232   4.084  12.992 -0.6396 -0.5110  1.1146
 1133TIP3   OH224813   1.386   5.636   2.434 -0.2420 -0.4061 -0.1538
 1133TIP3    H124814   1.309   5.639   2.379  0.4627  0.0925 -1.1479
 1133TIP3    H224815   1.407   5.543   2.442  0.5636 -0.4438 -2.0971
 1134TIP3   OH224816   0.125   6.537  15.277  0.0106 -0.2512 -0.2421
 1134TIP3    H124817   0.136   6.630  15.297  0.6552 -0.7438  1.9759
 1134TIP3    H224818   0.173   6.524  15.195 -0.4704  1.4368 -0.8214
 1135TIP3   OH224819   6.538   2.623  14.058  0.3377  0.6615 -0.0558
 1135TIP3    H124820   6.634   2.615  14.065  0.1448 -3.5933  0.0689
 1135TIP3    H224821   6.505   2.589  14.141 -1.3217  0.5992 -0.7125
 1136TIP3   OH224822   4.572   4.467   3.965 -0.5092 -0.0136  0.3835
 1136TIP3    H124823   4.537   4.480   3.877  0.8098 -0.4229 -0.2354
 1136TIP3    H224824   4.594   4.374   3.968 -0.7561 -0.0510  1.2328
 1137TIP3   OH224825   1.817   5.095   1.816  0.4390 -0.1385 -0.3814
 1137TIP3    H124826   1.788   5.175   1.773  1.6292  0.5913  0.1049
 1137TIP3    H224827   1.767   5.025   1.774 -0.0650  0.7820 -1.3566
 1138TIP3   OH224828   3.040   1.650  14.702 -0.0499  0.4921  0.1407
 1138TIP3    H124829   3.130   1.676  14.682  0.7626 -1.6651  0.8475
 1138TIP3    H224830   3.030   1.564  14.662 -1.4619  0.2207  1.0119
 1139TIP3   OH224831   4.053   2.809  16.986  0.1092 -0.5997 -0.2222
 1139TIP3    H124832   4.067   2.901  17.007 -1.0614 -0.5335  0.4153
 1139TIP3    H224833   4.083   2.799  16.896 -1.4873  0.8805 -0.9905
 1140TIP3   OH224834   2.919   5.303  15.183 -1.0125  0.4722 -0.1530
 1140TIP3    H124835   2.971   5.233  15.222  1.4541  0.9271 -2.2666
 1140TIP3    H224836   2.876   5.262  15.108 -2.1066  0.5819  0.3909
 1141TIP3   OH224837   6.484   0.098  14.817 -0.1591  0.3464  0.5773
 1141TIP3    H124838   6.577   0.108  14.796 -0.5054 -1.5646 -2.3206
 1141TIP3    H224839   6.453   0.188  14.827  1.7915  1.0646  0.7168
 1142TIP3   OH224840   1.661   3.260   4.723 -0.2559 -0.2253  0.1605
 1142TIP3    H124841   1.636   3.340   4.677 -1.9818 -0.6652  0.2643
 1142TIP3    H224842   1.756   3.267   4.733 -0.4324  2.1595  0.8383
 1143TIP3   OH224843   0.047   6.079   6.047 -0.1063  0.4044 -0.0994
 1143TIP3    H124844   0.113   6.017   6.016  2.2990  2.1869  1.1209
 1143TIP3    H224845  -0.031   6.025   6.062  1.5579 -2.1563  0.0742
 1144TIP3   OH224846   5.513   4.782   1.971 -0.0386  0.2233  0.2598
 1144TIP3    H124847   5.587   4.842   1.968 -0.6537  1.0008 -1.8141
 1144TIP3    H224848   5.513   4.747   2.060  0.4173  3.2102  1.5645
 1145TIP3   OH224849   5.574   3.767   1.490  0.0214  0.2027 -0.1379
 1145TIP3    H124850   5.481   3.759   1.510  0.0033 -0.6100 -0.4941
 1145TIP3    H224851   5.594   3.860   1.501 -1.2372  0.7096 -1.7646
 1146TIP3   OH224852   5.933   6.607   4.322  0.4860  0.5365 -0.9034
 1146TIP3    H124853   5.920   6.512   4.319  0.9219  0.4813 -1.1345
 1146TIP3    H224854   6.002   6.624   4.258  1.7573  0.7761  0.4565
 1147TIP3   OH224855   0.078   4.865  11.026 -0.1212 -0.4901  0.1040
 1147TIP3    H124856   0.163   4.904  11.007 -0.1470  0.5383  1.8574
 1147TIP3    H224857   0.026   4.879  10.947  0.3629  1.7292  0.1312
 1148TIP3   OH224858   0.158   4.944  15.003  0.6765  0.3247  0.0289
 1148TIP3    H124859   0.121   5.031  14.994  1.2811  0.6662  0.6958
 1148TIP3    H224860   0.162   4.910  14.914 -1.3747  0.1943 -0.0470
 1149TIP3   OH224861   2.419   2.662   3.638 -0.0604 -0.2633 -0.6787
 1149TIP3    H124862   2.333   2.658   3.596 -0.5819  0.3660  0.2724
 1149TIP3    H224863   2.472   2.714   3.579  0.9107 -3.8299 -3.2506
 1150TIP3   OH224864   0.980   5.646  14.196 -0.0801  0.1105 -0.7846
 1150TIP3    H124865   1.070   5.624  14.221 -0.4857 -1.5992 -0.7016
 1150TIP3    H224866   0.982   5.741  14.182  1.3978  0.3467  0.6156
 1151TIP3   OH224867   5.920   5.318   2.994 -0.1670 -0.0109  0.0467
 1151TIP3    H124868   5.910   5.233   3.037  0.4762 -0.4886 -0.7024
 1151TIP3    H224869   5.842   5.326   2.938 -0.2068 -0.1362  0.0836
 1152TIP3   OH224870   1.412   2.116  16.531  0.3337 -0.6378  0.1352
 1152TIP3    H124871   1.444   2.170  16.603 -0.1726  0.3688 -0.3701
 1152TIP3    H224872   1.488   2.101  16.476  0.6531 -1.1446  0.7060
 1153TIP3   OH224873   3.707   4.258   2.892  0.0918 -0.6009  0.3307
 1153TIP3    H124874   3.700   4.350   2.919 -1.6109  0.1335 -2.2358
 1153TIP3    H224875   3.628   4.217   2.926 -0.1036 -0.6344 -0.1628
 1154TIP3   OH224876   1.609   2.931   3.885  0.1134 -0.1141 -0.1126
 1154TIP3    H124877   1.680   2.988   3.857  1.1788 -1.4472 -0.2649
 1154TIP3    H224878   1.628   2.847   3.843 -1.5497 -0.5178 -0.1199
 1155TIP3   OH224879   6.029   3.264   0.320 -0.4076 -0.1462 -0.3116
 1155TIP3    H124880   6.057   3.311   0.399 -1.4237 -1.2521  0.7565
 1155TIP3    H224881   6.107   3.262   0.265  0.7085 -0.3802  1.1938
 1156TIP3   OH224882   0.163   2.456   2.482 -0.6422 -0.3340  0.0363
 1156TIP3    H124883   0.077   2.418   2.498 -0.4782 -0.4838  0.6175
 1156TIP3    H224884   0.154   2.504   2.400 -1.5176  0.3729  0.5312
 1157TIP3   OH224885   3.203   1.061   4.616 -0.1785  0.0997  0.0094
 1157TIP3    H124886   3.128   1.106   4.578  0.7543  0.8156 -1.0532
 1157TIP3    H224887   3.257   1.131   4.652 -0.5369 -0.4901  1.7951
 1158TIP3   OH224888   2.582   5.845   3.042  0.5384 -0.3241  0.2457
 1158TIP3    H124889   2.619   5.787   2.975  0.4028 -0.5019  0.3268
 1158TIP3    H224890   2.611   5.807   3.125 -0.1077 -0.6502  0.3209
 1159TIP3   OH224891   2.145   5.238  12.085  0.6168  0.3719 -0.3958
 1159TIP3    H124892   2.119   5.158  12.040  0.6608 -0.4326  0.9313
 1159TIP3    H224893   2.114   5.226  12.175  1.0724  1.6285 -0.0450
 1160TIP3   OH224894   3.977   4.808   0.394  0.0271 -0.5014  0.6325
 1160TIP3    H124895   4.065   4.825   0.361 -0.5662  0.6916 -0.4567
 1160TIP3    H224896   3.963   4.715   0.380  0.3919 -0.3246 -1.1075
 1161TIP3   OH224897   0.232   1.293  15.603 -0.1859  0.6555  0.5678
 1161TIP3    H124898   0.171   1.281  15.531 -0.4866 -0.5397  1.0060
 1161TIP3    H224899   0.177   1.315  15.679 -0.0992 -0.4211  0.9618
 1162TIP3   OH224900   2.300   0.644   4.951 -0.0837 -0.5084  0.0622
 1162TIP3    H124901   2.241   0.589   5.002 -0.1031  1.7244  2.6379
 1162TIP3    H224902   2.387   0.605   4.964 -0.4052 -1.3914 -0.3193
 1163TIP3   OH224903   2.112   3.631  16.747 -0.5542  0.2539 -0.0010
 1163TIP3    H124904   2.063   3.607  16.668  0.3000 -0.0325 -0.4482
 1163TIP3    H224905   2.185   3.570  16.750 -0.5164  0.3220  0.9694
 1164TIP3   OH224906   2.298   1.474   4.798  0.3491 -0.4169  0.2580
 1164TIP3    H124907   2.289   1.394   4.850 -0.1718  0.2584  1.2235
 1164TIP3    H224908   2.209   1.500   4.776  0.4349  0.5205  0.9334
 1165TIP3   OH224909   5.563   5.890   5.071  0.1314 -0.0054 -0.1595
 1165TIP3    H124910   5.506   5.956   5.031 -1.7205 -1.9731 -0.9614
 1165TIP3    H224911   5.508   5.848   5.137  0.4674 -2.1694 -1.1592
 1166TIP3   OH224912   2.992   0.937   0.419  0.6769 -0.3591  0.2177
 1166TIP3    H124913   2.944   0.931   0.501 -0.3793  1.2820 -0.2313
 1166TIP3    H224914   2.929   0.912   0.352  1.2512 -0.7679 -0.1801
 1167TIP3   OH224915   2.317   2.088   0.968 -0.0687 -0.1313  0.0544
 1167TIP3    H124916   2.333   2.083   1.062  0.1938 -1.5883 -0.0426
 1167TIP3    H224917   2.332   2.179   0.946  3.4616 -0.4009  0.8198
 1168TIP3   OH224918   1.379   4.785  12.101  0.3372 -0.1863 -0.0215
 1168TIP3    H124919   1.382   4.697  12.139 -0.8042 -0.3900 -0.3723
 1168TIP3    H224920   1.459   4.791  12.049  0.8450 -0.6993  0.6728
 1169TIP3   OH224921   2.035   1.354   3.076  0.2596  0.0805 -0.1949
 1169TIP3    H124922   2.075   1.271   3.104 -0.6119 -0.0614  0.6989
 1169TIP3    H224923   2.001   1.392   3.157  0.6652  1.3374 -0.5979
 1170TIP3   OH224924   5.949   3.802  15.853  0.0737 -0.3533  0.2644
 1170TIP3    H124925   5.860   3.774  15.875 -1.5113  2.6281 -1.6331
 1170TIP3    H224926   5.986   3.833  15.935 -0.7877 -1.2189  1.0023
 1171TIP3   OH224927   5.936   3.047  12.517 -0.3601 -0.1395  0.2207
 1171TIP3    H124928   5.915   3.115  12.453 -0.3520  1.4597  1.8095
 1171TIP3    H224929   6.030   3.031  12.507 -0.3102  0.2880 -0.0036
 1172TIP3   OH224930   3.109   6.224   0.947 -0.2864 -0.5122  0.1648
 1172TIP3    H124931   3.058   6.286   0.999  2.0360  1.8743 -0.1808
 1172TIP3    H224932   3.186   6.205   1.001  0.4092 -0.8280 -0.9091
 1173TIP3   OH224933   1.170   1.092   2.575 -0.2319  0.4099 -0.0249
 1173TIP3    H124934   1.170   1.170   2.631  0.6793  0.1624  0.3404
 1173TIP3    H224935   1.144   1.125   2.489 -1.3564  0.8468  0.4698
 1174TIP3   OH224936   1.954   1.005   2.056 -0.3233  0.2991 -0.2610
 1174TIP3    H124937   1.861   1.015   2.079 -0.4763  0.7098 -1.0473
 1174TIP3    H224938   1.964   1.054   1.975 -0.1404 -2.4243 -1.9959
 1175TIP3   OH224939   5.166   4.644   2.611 -0.6176 -0.6718  0.1501
 1175TIP3    H124940   5.166   4.577   2.679  1.3840 -0.9097 -0.0123
 1175TIP3    H224941   5.252   4.635   2.569  0.5700  3.1879  1.3229
 1176TIP3   OH224942   1.231   3.301  11.543 -0.4519 -0.3284 -0.0849
 1176TIP3    H124943   1.326   3.313  11.540 -0.3931 -0.5325  0.8148
 1176TIP3    H224944   1.211   3.256  11.461  0.1302  0.3244 -0.5982
 1177TIP3   OH224945   4.571   6.496   0.802 -0.5339 -0.1916  0.1703
 1177TIP3    H124946   4.583   6.569   0.741  0.6489 -1.4095 -1.1315
 1177TIP3    H224947   4.578   6.535   0.889 -0.8374  1.3759 -0.4817
 1178TIP3   OH224948   4.485   6.491  14.483  0.2858 -0.3935  0.5428
 1178TIP3    H124949   4.564   6.485  14.429  1.0722 -0.7363  1.6768
 1178TIP3    H224950   4.512   6.456  14.568 -1.4228 -1.6562  0.6200
 1179TIP3   OH224951   5.470   0.946   1.474 -0.0671  0.0112 -0.3750
 1179TIP3    H124952   5.496   0.865   1.430 -0.7214 -1.7231  2.1881
 1179TIP3    H224953   5.374   0.947   1.469 -0.0696  0.5987 -0.3291
 1180TIP3   OH224954   2.212   5.281   5.539 -0.1024 -0.5802 -0.3178
 1180TIP3    H124955   2.178   5.365   5.510 -0.5472 -0.3894  0.6769
 1180TIP3    H224956   2.301   5.299   5.569 -0.0760 -0.5347 -0.4243
 1181TIP3   OH224957   0.690   2.013   5.035 -0.0724 -0.3299  0.0803
 1181TIP3    H124958   0.702   1.918   5.047 -2.6050 -0.8596 -0.8459
 1181TIP3    H224959   0.662   2.044   5.121  1.0209 -0.3330  0.4574
 1182TIP3   OH224960   4.391   0.077  10.674  0.1412 -0.6568  0.2340
 1182TIP3    H124961   4.342   0.155  10.698 -0.4220 -0.1991 -2.1249
 1182TIP3    H224962   4.470   0.111  10.632  0.4748 -1.3648  0.2745
 1183TIP3   OH224963   5.354   6.654   0.843 -0.4353  0.2086  0.0219
 1183TIP3    H124964   5.341   6.562   0.866 -1.0890  0.3117  0.0839
 1183TIP3    H224965   5.406   6.690   0.915  0.1956 -0.2084 -0.2151
 1184TIP3   OH224966   1.349   0.581  16.446  0.1242  0.2171  0.2913
 1184TIP3    H124967   1.415   0.610  16.509  0.4458  1.3423 -0.5268
 1184TIP3    H224968   1.271   0.632  16.467  0.4847  1.2388 -0.7178
 1185TIP3   OH224969   4.401   3.689   3.323  0.1989  0.3596  0.2797
 1185TIP3    H124970   4.450   3.680   3.405 -0.2009  1.2037  0.6209
 1185TIP3    H224971   4.361   3.775   3.328  0.4146  0.5566 -0.9526
 1186TIP3   OH224972   3.690   6.382   0.406 -0.5060 -1.1258 -0.3474
 1186TIP3    H124973   3.780   6.410   0.389  0.0251 -0.6702  2.6780
 1186TIP3    H224974   3.689   6.291   0.379  0.4631 -0.7939 -1.6398
 1187TIP3   OH224975   2.413   0.044   3.025 -0.7492  0.7655 -0.1313
 1187TIP3    H124976   2.335   0.060   3.078 -2.0971 -0.6113 -1.5834
 1187TIP3    H224977   2.478   0.012   3.088 -1.0983  2.5124  1.2085
 1188TIP3   OH224978   3.510   4.682  15.189 -0.1464 -0.0851  0.3568
 1188TIP3    H124979   3.476   4.688  15.278  3.8569  0.2130  2.0490
 1188TIP3    H224980   3.498   4.590  15.165  1.0480 -0.7974  2.2940
 1189TIP3   OH224981   1.923   2.608  15.202  0.5479  0.2107  0.0425
 1189TIP3    H124982   1.945   2.691  15.243  1.1718  0.2300 -0.3186
 1189TIP3    H224983   1.997   2.550  15.224 -0.1696 -0.4392  0.8186
 1190TIP3   OH224984   0.097   5.939   2.584  0.4979  0.4936  0.4223
 1190TIP3    H124985   0.156   5.913   2.655  1.1723  0.6600 -0.0675
 1190TIP3    H224986   0.011   5.943   2.625  1.2522  3.7204  2.0921
 1191TIP3   OH224987   0.036   6.689   1.707  0.2848  0.4833 -0.0950
 1191TIP3    H124988   0.061   6.772   1.665  0.3014  0.2617 -0.5296
 1191TIP3    H224989  -0.047   6.708   1.751  1.4534  1.3990  1.8577
 1192TIP3   OH224990   3.523   6.126  14.100 -0.0292 -0.0941  0.1627
 1192TIP3    H124991   3.485   6.169  14.177 -0.5135  0.2417 -0.2520
 1192TIP3    H224992   3.474   6.163  14.026  1.3161  0.5904 -0.4274
 1193TIP3   OH224993   6.525   4.894  14.093  0.1792 -0.4239  0.0347
 1193TIP3    H124994   6.595   4.855  14.146 -0.0083 -0.1595  0.4780
 1193TIP3    H224995   6.445   4.879  14.143  0.1164  0.5924  0.2561
 1194TIP3   OH224996   2.616   5.642  16.625 -0.0067  0.1627 -0.0652
 1194TIP3    H124997   2.525   5.635  16.655  0.6027 -0.7658  1.7169
 1194TIP3    H224998   2.632   5.736  16.620 -1.9640  0.4600 -3.5182
 1195TIP3   OH224999   3.472   0.890  14.697 -0.3426 -0.4739  0.5261
 1195TIP3    H125000   3.454   0.966  14.753 -2.3436  0.6653 -1.5121
 1195TIP3    H225001   3.468   0.815  14.756  0.3306  0.8561  2.3615
 1196TIP3   OH225002   0.720   1.455   1.432  0.0124 -0.0820 -0.2969
 1196TIP3    H125003   0.663   1.500   1.370 -0.2575 -2.5547 -1.9773
 1196TIP3    H225004   0.784   1.409   1.377  1.4050 -0.2916  1.3991
 1197TIP3   OH225005   0.502   2.317   0.995 -0.0824  1.1022 -0.3363
 1197TIP3    H125006   0.501   2.347   0.904 -1.9022  1.1714 -0.3437
 1197TIP3    H225007   0.512   2.222   0.989 -1.0000  1.0088 -0.6889
 1198TIP3   OH225008   3.281   6.616   1.472 -0.1402 -0.1183  0.1780
 1198TIP3    H125009   3.186   6.623   1.473 -0.1965  2.9043 -3.0263
 1198TIP3    H225010   3.309   6.659   1.553 -1.5640  2.0476 -0.3806
 1199TIP3   OH225011   5.959   5.208   5.352  0.1163 -0.6865  0.0552
 1199TIP3    H125012   6.020   5.147   5.313  0.0516 -0.9726  0.3934
 1199TIP3    H225013   5.961   5.187   5.446 -1.6298 -1.7196 -0.1043
 1200TIP3   OH225014   0.126   6.521   0.318  0.1676  0.4764 -0.2575
 1200TIP3    H125015   0.192   6.465   0.358  0.0859  0.6656  0.1448
 1200TIP3    H225016   0.167   6.552   0.237  0.0450 -0.5234 -0.7138
 1201TIP3   OH225017   1.323   5.725  15.172 -0.1824  0.3779 -0.2693
 1201TIP3    H125018   1.264   5.797  15.193  0.0554 -0.0836  2.4635
 1201TIP3    H225019   1.402   5.767  15.138  0.4334  1.6076  2.4248
 1202TIP3   OH225020   1.900   0.541   4.549 -0.0056  0.0832  0.1436
 1202TIP3    H125021   1.915   0.595   4.472 -0.5472  0.7059  0.4729
 1202TIP3    H225022   1.985   0.538   4.593  0.0089  0.7303  0.1657
 1203TIP3   OH225023   0.554   4.840  13.093  0.0527  0.5759 -0.2274
 1203TIP3    H125024   0.480   4.851  13.152  2.0016 -0.7926  2.7689
 1203TIP3    H225025   0.619   4.794  13.146  1.7104 -1.5806 -3.7870
 1204TIP3   OH225026   5.462   3.319  16.701  0.1975  0.0587  0.0395
 1204TIP3    H125027   5.529   3.381  16.729  1.0794 -0.4916 -0.8016
 1204TIP3    H225028   5.388   3.374  16.674  1.8322  0.9425 -3.0728
 1205TIP3   OH225029   4.523   1.442   3.068  0.3385  0.2433 -0.3607
 1205TIP3    H125030   4.518   1.464   2.975  0.5620 -0.4535 -0.5466
 1205TIP3    H225031   4.555   1.522   3.110 -0.1293  0.6837 -0.8275
 1206TIP3   OH225032   2.611   1.402  12.515  0.4131  0.3950 -0.7194
 1206TIP3    H125033   2.668   1.445  12.579 -0.2459  0.0219  0.1334
 1206TIP3    H225034   2.552   1.348  12.567 -0.5875  0.6035 -1.5921
 1207TIP3   OH225035   1.312   1.824   1.457 -0.1826  0.3108 -0.1206
 1207TIP3    H125036   1.252   1.896   1.435  0.6658  0.8450 -0.7522
 1207TIP3    H225037   1.331   1.782   1.373  0.7605  0.5060 -0.0177
 1208TIP3   OH225038   5.438   0.480   5.118 -0.2736 -0.5438 -0.4833
 1208TIP3    H125039   5.440   0.541   5.192  0.6562 -0.1783 -0.7996
 1208TIP3    H225040   5.382   0.524   5.053  1.0456  0.3793 -1.0323
 1209TIP3   OH225041   4.354   4.844  15.123 -0.0267  0.2413 -0.2388
 1209TIP3    H125042   4.313   4.891  15.195 -0.2686 -0.5355  0.1405
 1209TIP3    H225043   4.299   4.863  15.047 -0.2962  0.3149 -0.0252
 1210TIP3   OH225044   2.996   2.465  16.014  0.3441  0.0641 -0.3102
 1210TIP3    H125045   3.085   2.436  16.034  0.5934  0.8687 -0.2172
 1210TIP3    H225046   2.958   2.487  16.099  0.7073  1.5275 -0.5096
 1211TIP3   OH225047   0.082   5.997   4.813  0.9597 -0.6746  0.3374
 1211TIP3    H125048   0.143   5.937   4.857 -0.1662 -1.5150  0.8259
 1211TIP3    H225049  -0.001   5.984   4.860  0.5308  0.8142  0.0230
 1212TIP3   OH225050   6.591   5.151   0.825  0.0104 -0.0969  1.3616
 1212TIP3    H125051   6.571   5.057   0.819 -0.0356 -0.0314  0.3696
 1212TIP3    H225052   6.525   5.192   0.769 -0.2231  0.5708  2.1165
 1213TIP3   OH225053   1.573   4.381  10.884  0.1288 -0.3785 -0.1834
 1213TIP3    H125054   1.655   4.346  10.922 -1.4896 -2.3497  1.7763
 1213TIP3    H225055   1.548   4.452  10.943  0.0834 -0.1970 -0.4202
 1214TIP3   OH225056   4.163   4.011  15.363  0.1055 -0.0656 -0.1463
 1214TIP3    H125057   4.187   4.099  15.334 -2.6867  0.7680 -0.2354
 1214TIP3    H225058   4.142   3.964  15.282  0.2235 -0.3606 -0.0060
 1215TIP3   OH225059   3.625   4.977  14.020 -0.2328  0.1670  0.5582
 1215TIP3    H125060   3.611   5.049  13.959 -0.1332  0.1282  0.4894
 1215TIP3    H225061   3.690   5.010  14.082 -0.7406  0.4085  0.9738
 1216TIP3   OH225062   4.792   4.532   2.249 -0.2990  0.3534 -0.5451
 1216TIP3    H125063   4.876   4.571   2.273 -1.1904  1.1608  1.5182
 1216TIP3    H225064   4.728   4.579   2.303 -2.2820  0.7719 -3.0765
 1217TIP3   OH225065   4.654   4.936   1.678  0.2221 -0.0044  0.1559
 1217TIP3    H125066   4.724   4.878   1.650 -0.5463 -0.6368 -0.4941
 1217TIP3    H225067   4.696   5.022   1.685  1.2617 -0.5363  0.6800
 1218TIP3   OH225068   5.355   4.163   3.131 -0.6918 -0.7455  0.1484
 1218TIP3    H125069   5.348   4.259   3.134 -0.7906 -0.7690  1.1755
 1218TIP3    H225070   5.437   4.144   3.176 -1.1748 -1.1845  0.8581
 1219TIP3   OH225071   1.098   2.300  12.207  0.0515  0.4292  0.1550
 1219TIP3    H125072   1.193   2.304  12.191 -0.1636 -0.0337 -1.4271
 1219TIP3    H225073   1.085   2.217  12.252  0.4774  0.9329  1.2663
 1220TIP3   OH225074   5.500   1.765  13.832  0.4951  0.2795  0.1313
 1220TIP3    H125075   5.418   1.805  13.861  0.5012 -0.7956  1.7788
 1220TIP3    H225076   5.475   1.679  13.798  0.9152 -0.0040  0.5272
 1221TIP3   OH225077   0.853   4.208  15.833  0.1374 -0.5725  0.0223
 1221TIP3    H125078   0.906   4.197  15.754  2.8827 -1.6090  1.8489
 1221TIP3    H225079   0.894   4.149  15.897 -3.0162 -1.0737  1.7616
 1222TIP3   OH225080   0.224   5.819   3.418 -0.0100  0.5360 -0.5076
 1222TIP3    H125081   0.206   5.911   3.396 -0.1957  0.1429 -2.1302
 1222TIP3    H225082   0.259   5.822   3.507 -0.9306  2.0788 -0.1594
 1223TIP3   OH225083   1.894   0.102   6.535 -0.4663  0.4383  0.3087
 1223TIP3    H125084   1.799   0.097   6.546 -0.2856 -0.0504  1.8348
 1223TIP3    H225085   1.912   0.195   6.524 -1.1621  0.4910 -0.4446
 1224TIP3   OH225086   1.888   1.292  12.610 -0.3959  0.3940 -0.4040
 1224TIP3    H125087   1.856   1.206  12.636 -1.5565  1.3710  1.6611
 1224TIP3    H225088   1.972   1.275  12.567 -1.6673 -1.9258 -2.2323
 1225TIP3   OH225089   6.243   1.230  14.837 -0.4006  0.2873  0.0192
 1225TIP3    H125090   6.287   1.308  14.872  1.2626 -1.1452  1.3050
 1225TIP3    H225091   6.150   1.246  14.853  0.0686  0.9746  2.5647
 1226TIP3   OH225092   1.715   3.404   3.386 -0.9675  0.2974 -0.1654
 1226TIP3    H125093   1.806   3.427   3.404 -0.3071 -1.0459 -1.5725
 1226TIP3    H225094   1.688   3.464   3.317 -1.3022  0.9725  0.5410
 1227TIP3   OH225095   0.821   4.453  14.075 -0.0670  0.1294 -0.2823
 1227TIP3    H125096   0.889   4.519  14.060 -0.4727  0.4431 -0.7709
 1227TIP3    H225097   0.870   4.374  14.098  0.4692  0.3331 -0.6829
 1228TIP3   OH225098   4.281   6.528  16.782  0.4054 -0.2825 -0.0341
 1228TIP3    H125099   4.231   6.596  16.736 -1.3451 -1.1853  0.4373
 1228TIP3    H225100   4.328   6.575  16.850  1.4170  0.7938 -1.4115
 1229TIP3   OH225101   6.559   0.338   3.468 -0.6717 -0.3708 -0.3656
 1229TIP3    H125102   6.580   0.359   3.559 -1.2581  3.0834 -0.8933
 1229TIP3    H225103   6.635   0.290   3.436  0.2703 -0.1960  1.4849
 1230TIP3   OH225104   1.669   4.409   5.719 -0.3311  0.6679  0.2295
 1230TIP3    H125105   1.653   4.405   5.813 -1.3791  0.5437  0.0615
 1230TIP3    H225106   1.724   4.486   5.707 -0.6159  0.9879  0.8938
 1231TIP3   OH225107   2.774   3.481  11.732  0.2715  0.2393 -0.3443
 1231TIP3    H125108   2.846   3.544  11.732  1.0011 -0.5825 -0.3675
 1231TIP3    H225109   2.696   3.534  11.747  0.8514  1.1719 -0.5649
 1232TIP3   OH225110   3.223   2.725  13.530 -0.1997 -0.1584  0.1471
 1232TIP3    H125111   3.168   2.720  13.452  1.9047  0.2063 -1.4544
 1232TIP3    H225112   3.262   2.813  13.526  0.4786 -0.3914  1.2156
 1233TIP3   OH225113   2.447   3.842  13.889  0.3926 -0.3150  0.6586
 1233TIP3    H125114   2.454   3.889  13.806  0.5129 -0.6838  0.4572
 1233TIP3    H225115   2.360   3.866  13.922  0.3179 -0.2167  0.3975
 1234TIP3   OH225116   2.700   2.220  12.727 -0.0158 -0.9829  0.3691
 1234TIP3    H125117   2.618   2.219  12.679  0.0091  1.3266  0.1900
 1234TIP3    H225118   2.694   2.296  12.784  2.5455  0.1071 -0.6732
 1235TIP3   OH225119   2.721   2.055  11.701 -0.2896  0.0510  0.3971
 1235TIP3    H125120   2.732   1.966  11.735  2.2319  0.1845  0.1082
 1235TIP3    H225121   2.785   2.107  11.749  0.5322  1.0427 -1.6457
 1236TIP3   OH225122   0.998   1.688   5.143 -0.6027 -0.3166 -0.0762
 1236TIP3    H125123   1.063   1.620   5.162  0.5565  0.4052 -1.2788
 1236TIP3    H225124   0.980   1.678   5.050 -1.6018  0.0465  0.0709
 1237TIP3   OH225125   6.635   1.539   3.380  0.0004 -0.2427 -0.2295
 1237TIP3    H125126   6.542   1.515   3.374 -0.9585  2.3236  2.1238
 1237TIP3    H225127   6.643   1.619   3.329  0.1161  1.2434  1.9683
 1238TIP3   OH225128   5.502   3.534   5.447 -0.1350  0.1705 -0.0133
 1238TIP3    H125129   5.489   3.475   5.373  0.5050  0.8574 -0.6901
 1238TIP3    H225130   5.443   3.501   5.515 -1.6986  0.2900 -1.2557
 1239TIP3   OH225131   6.696   5.419  13.251 -0.2588 -0.5124 -0.3469
 1239TIP3    H125132   6.633   5.491  13.244  1.3773  1.0502  0.0214
 1239TIP3    H225133   6.715   5.413  13.344 -0.0875 -1.1651 -0.4213
 1240TIP3   OH225134   2.198   5.351   6.173 -0.6321 -0.1168  0.9840
 1240TIP3    H125135   2.212   5.352   6.267  1.4140 -0.7380  0.7334
 1240TIP3    H225136   2.207   5.259   6.148  0.5298  0.2228  0.0075
 1241TIP3   OH225137   3.174   2.897   3.381  0.0110  0.4054  0.0121
 1241TIP3    H125138   3.174   2.807   3.350 -0.9669 -0.2050  1.6575
 1241TIP3    H225139   3.096   2.936   3.341  0.2540  0.4380 -0.4378
 1242TIP3   OH225140   5.344   3.270  15.555 -0.1767 -0.3738  0.2403
 1242TIP3    H125141   5.272   3.207  15.553 -1.7299  1.2804  1.3191
 1242TIP3    H225142   5.367   3.277  15.648  2.1221 -1.6075 -0.1637
 1243TIP3   OH225143   2.529   2.626   2.144  0.2978  0.0948  0.2048
 1243TIP3    H125144   2.510   2.535   2.125  0.2496  0.3819 -1.2291
 1243TIP3    H225145   2.608   2.624   2.198  1.3581 -0.7253 -1.3183
 1244TIP3   OH225146   5.755   0.498   4.257  0.4568  0.3239  0.5910
 1244TIP3    H125147   5.767   0.593   4.246 -0.1261  0.3113 -0.1369
 1244TIP3    H225148   5.766   0.484   4.351 -0.2631  1.2345  0.8243
 1245TIP3   OH225149   3.851   1.578  12.251 -0.7192  0.3305 -0.0232
 1245TIP3    H125150   3.892   1.578  12.165 -2.4121  0.7142 -0.8735
 1245TIP3    H225151   3.757   1.569  12.233 -1.1636  1.0124  1.7381
 1246TIP3   OH225152   2.122   6.333   3.889 -0.1552 -0.1622 -0.0257
 1246TIP3    H125153   2.173   6.285   3.955 -1.5335 -0.2422  1.0130
 1246TIP3    H225154   2.188   6.372   3.832  1.0680 -0.5249  1.0880
 1247TIP3   OH225155   1.010   5.165   1.252  0.2567 -0.0797  0.1568
 1247TIP3    H125156   0.945   5.182   1.184  0.1471  0.8513  0.4802
 1247TIP3    H225157   1.088   5.138   1.204  0.5474  1.7060 -0.4371
 1248TIP3   OH225158   6.058   0.684   1.386  0.8353  0.1382  0.2309
 1248TIP3    H125159   6.033   0.638   1.305 -0.3943  1.1189  0.0291
 1248TIP3    H225160   6.105   0.762   1.356 -0.8983  1.2814  0.3581
 1249TIP3   OH225161   0.548   0.071  13.277 -0.4861 -0.4680 -0.6076
 1249TIP3    H125162   0.552  -0.014  13.233 -3.4197  0.1378 -2.2760
 1249TIP3    H225163   0.488   0.056  13.351 -0.6682  0.0364 -0.6526
 1250TIP3   OH225164   5.428   5.199  17.216 -0.2319  0.0309 -0.1357
 1250TIP3    H125165   5.516   5.231  17.196 -0.0109 -0.0343  0.7085
 1250TIP3    H225166   5.430   5.179  17.309 -1.4572  1.0154  0.1239
 1251TIP3   OH225167   5.150   6.238  15.094  0.0076 -0.4611  0.0518
 1251TIP3    H125168   5.060   6.270  15.097  0.3966  0.5634  2.2965
 1251TIP3    H225169   5.141   6.144  15.077 -1.3688 -0.0974 -1.5478
 1252TIP3   OH225170   0.242   0.226   4.939  0.3043 -0.1989  0.1938
 1252TIP3    H125171   0.174   0.183   4.991 -1.4929  0.4000 -1.5360
 1252TIP3    H225172   0.193   0.283   4.879  2.4070  1.1143 -0.3680
 1253TIP3   OH225173   2.897   1.866  14.890  0.7158  0.0924  0.1832
 1253TIP3    H125174   2.872   1.853  14.982 -0.9215 -2.0277 -0.4710
 1253TIP3    H225175   2.924   1.779  14.860  0.0889  0.4783 -1.6378
 1254TIP3   OH225176   1.365   3.380   2.387 -0.4279  0.6095 -0.8398
 1254TIP3    H125177   1.408   3.308   2.341  1.9074  1.6402 -0.4325
 1254TIP3    H225178   1.338   3.440   2.317  0.7753  0.9414 -1.0544
 1255TIP3   OH225179   4.022   2.765  11.291 -0.3036 -0.2759 -0.2298
 1255TIP3    H125180   4.054   2.699  11.352 -1.7193 -0.7130  0.0739
 1255TIP3    H225181   3.963   2.718  11.233 -0.7530  0.5762 -0.4864
 1256TIP3   OH225182   3.597   1.374  10.866 -0.3066 -0.3024 -0.2631
 1256TIP3    H125183   3.524   1.434  10.855 -0.2466 -0.2360 -0.2948
 1256TIP3    H225184   3.604   1.329  10.782 -2.6095 -2.8955  0.7639
 1257TIP3   OH225185   0.135   2.666   3.144  0.2988  0.0430  0.2577
 1257TIP3    H125186   0.098   2.660   3.055  0.1522 -1.8431  0.4150
 1257TIP3    H225187   0.213   2.612   3.141 -1.0784 -2.2196  1.9047
 1258TIP3   OH225188   1.793   5.892   5.019 -0.2013 -0.2134  0.5862
 1258TIP3    H125189   1.734   5.907   5.093 -0.4151  2.7395 -0.0752
 1258TIP3    H225190   1.869   5.948   5.037 -0.3304  0.7098 -1.4740
 1259TIP3   OH225191   6.063   4.717   0.301  0.0590 -0.4531 -0.3523
 1259TIP3    H125192   6.039   4.628   0.277 -0.4484 -0.0206 -1.5257
 1259TIP3    H225193   6.158   4.720   0.292 -0.0101 -0.6214 -1.2476
 1260TIP3   OH225194   1.431   4.266  13.535 -0.1610 -0.4204  0.2596
 1260TIP3    H125195   1.506   4.216  13.566  0.0215  1.2431  2.8549
 1260TIP3    H225196   1.464   4.356  13.528 -1.4905  0.0593 -0.1962
 1261TIP3   OH225197   2.722   1.850   0.309  0.0814  0.0005 -0.2978
 1261TIP3    H125198   2.807   1.819   0.340  0.0361  1.5543  1.5418
 1261TIP3    H225199   2.703   1.795   0.233  2.9436 -0.0554 -1.0836
 1262TIP3   OH225200   6.051   4.139   2.084  0.0849  0.0618  0.1563
 1262TIP3    H125201   6.021   4.180   2.003 -0.9785  0.2425  0.6222
 1262TIP3    H225202   6.121   4.197   2.116 -0.0629  0.4390 -0.1992
 1263TIP3   OH225203   4.126   5.534   3.908  0.2215 -0.3720 -0.2313
 1263TIP3    H125204   4.122   5.499   3.997  1.3395  1.3219  0.5258
 1263TIP3    H225205   4.066   5.608   3.908 -0.1919 -0.6860 -1.0694
 1264TIP3   OH225206   0.212   3.238  13.095  0.5178  0.1133  0.6369
 1264TIP3    H125207   0.165   3.155  13.092  0.8676 -0.0602 -0.3490
 1264TIP3    H225208   0.248   3.249  13.006  0.7593  1.1457  0.8476
 1265TIP3   OH225209   2.126   3.891   6.082 -0.1718 -0.1120 -0.8815
 1265TIP3    H125210   2.200   3.831   6.086 -0.3341 -0.4071 -2.0638
 1265TIP3    H225211   2.054   3.839   6.046 -0.5803  0.5234 -0.9973
 1266TIP3   OH225212   1.641   6.483  16.258 -0.7240  0.4068 -0.6257
 1266TIP3    H125213   1.593   6.559  16.225  0.7288  0.6670 -2.3530
 1266TIP3    H225214   1.679   6.443  16.179 -0.4815 -1.4300  0.3715
 1267TIP3   OH225215   2.687   1.087  16.808  0.0065  0.2308  0.4441
 1267TIP3    H125216   2.754   1.034  16.766  0.3615  1.2523 -0.3328
 1267TIP3    H225217   2.678   1.051  16.896  1.1755 -0.2731  0.3681
 1268TIP3   OH225218   4.993   0.876   1.046  0.0488  0.7128 -0.0935
 1268TIP3    H125219   4.976   0.791   1.087  2.3681  0.2257  0.0352
 1268TIP3    H225220   5.071   0.861   0.992 -1.3934  1.9798 -2.7297
 1269TIP3   OH225221   5.568   5.614   1.216 -0.2380 -0.9370 -0.2598
 1269TIP3    H125222   5.537   5.679   1.279 -0.2578 -2.6773  1.6217
 1269TIP3    H225223   5.616   5.551   1.269 -0.0410 -2.3497 -2.0423
 1270TIP3   OH225224   4.865   1.916   6.007 -0.1431 -0.4033 -0.0037
 1270TIP3    H125225   4.852   1.827   6.040  0.8705 -0.0507  1.5005
 1270TIP3    H225226   4.862   1.971   6.086  0.3506  0.7596 -0.7627
 1271TIP3   OH225227   6.412   3.529  17.075 -0.8474  0.4708 -0.3253
 1271TIP3    H125228   6.475   3.600  17.063 -0.4518 -0.0505 -1.4747
 1271TIP3    H225229   6.381   3.509  16.986 -0.7909 -0.9356 -0.0459
 1272TIP3   OH225230   0.167   0.890  13.355  0.2995  0.1866  0.3331
 1272TIP3    H125231   0.134   0.956  13.416 -2.3253 -1.0349  0.3630
 1272TIP3    H225232   0.173   0.936  13.271  0.6209  0.9943  0.7851
 1273TIP3   OH225233   2.988   4.354  14.330  0.3203  0.0047 -0.7373
 1273TIP3    H125234   3.025   4.298  14.262 -0.8081  1.1136 -2.3206
 1273TIP3    H225235   2.914   4.397  14.289 -0.0255  1.2085  1.0162
 1274TIP3   OH225236   0.359   0.886   2.393  0.1995 -0.4824 -1.0078
 1274TIP3    H125237   0.276   0.930   2.415  0.1399 -1.1726  0.2866
 1274TIP3    H225238   0.336   0.825   2.323 -0.3577 -0.5258 -0.7952
 1275TIP3   OH225239   2.769   5.486  12.173  0.7012  0.6683 -0.2128
 1275TIP3    H125240   2.758   5.576  12.204  2.2465  1.2085 -1.1099
 1275TIP3    H225241   2.754   5.491  12.079 -1.8250 -0.5584  0.0145
 1276TIP3   OH225242   5.377   1.261   1.867 -0.7291  0.0105  0.3122
 1276TIP3    H125243   5.424   1.234   1.787  0.4181 -0.9414  1.2628
 1276TIP3    H225244   5.295   1.211   1.865  0.0792 -1.3824  0.5804
 1277TIP3   OH225245   4.872   0.295  17.142 -0.2162 -0.1302 -0.4325
 1277TIP3    H125246   4.845   0.336  17.060  2.3343  0.9144 -0.8662
 1277TIP3    H225247   4.845   0.356  17.210 -2.8745 -1.2754 -0.3334
 1278TIP3   OH225248   2.851   4.539  12.060  0.4522  0.1797  0.1011
 1278TIP3    H125249   2.824   4.475  11.995  1.4914 -1.0712  0.8556
 1278TIP3    H225250   2.771   4.586  12.082  0.1325  0.9856 -2.3836
 1279TIP3   OH225251   2.956   2.769  14.062  0.2398 -0.1038 -0.0748
 1279TIP3    H125252   3.025   2.807  14.117  0.5311 -1.4754  0.5532
 1279TIP3    H225253   2.992   2.773  13.973  0.6943  0.1230  0.1145
 1280TIP3   OH225254   5.706   2.681  11.636 -0.6717  1.1643 -0.2668
 1280TIP3    H125255   5.687   2.771  11.609  0.0905  0.8941 -1.8856
 1280TIP3    H225256   5.792   2.663  11.598  0.1658  0.4354  1.8287
 1281TIP3   OH225257   0.925   3.527   5.574  0.7327  0.0890 -0.0695
 1281TIP3    H125258   0.948   3.435   5.588  3.2244  0.2861 -2.0590
 1281TIP3    H225259   0.872   3.550   5.650  1.5531 -2.4813  1.4167
 1282TIP3   OH225260   6.200   1.972  14.723 -0.5002  0.0992  0.4385
 1282TIP3    H125261   6.235   1.894  14.680  1.2674 -0.4616  2.6788
 1282TIP3    H225262   6.111   1.948  14.748  0.2122 -1.4791  1.6098
 1283TIP3   OH225263   5.006   5.030   6.500  0.1451  0.2743  0.5276
 1283TIP3    H125264   4.915   5.054   6.517  0.2897 -1.4378  4.9874
 1283TIP3    H225265   5.057   5.089   6.555  1.9057  1.3427 -2.0508
 1284TIP3   OH225266   3.706   6.469  14.280  0.3249 -0.1846  0.0871
 1284TIP3    H125267   3.800   6.450  14.280  0.1744 -1.0624 -1.0034
 1284TIP3    H225268   3.694   6.531  14.208 -0.1299 -1.3242 -0.8510
 1285TIP3   OH225269   6.173   5.487  11.636 -0.0434 -0.6652  0.1446
 1285TIP3    H125270   6.223   5.569  11.628 -1.0940 -0.0142  0.1432
 1285TIP3    H225271   6.127   5.479  11.553 -0.0250 -1.2145  0.1851
 1286TIP3   OH225272   3.330   1.324   2.109 -0.0317 -0.6349 -0.1554
 1286TIP3    H125273   3.389   1.346   2.180  2.3987 -2.3966 -1.4679
 1286TIP3    H225274   3.311   1.408   2.066  0.1538  0.1738  1.2942
 1287TIP3   OH225275   4.203   0.126  14.620  0.0502 -0.5947  0.0858
 1287TIP3    H125276   4.161   0.133  14.534 -0.9524  0.6085  0.6569
 1287TIP3    H225277   4.286   0.082  14.601  0.3808  0.6760 -1.6959
 1288TIP3   OH225278   3.526   2.006   2.099 -0.1037  0.3015 -0.3306
 1288TIP3    H125279   3.466   2.074   2.069  0.1040  0.4283 -0.4555
 1288TIP3    H225280   3.468   1.934   2.126 -0.4046  1.2718  1.7052
 1289TIP3   OH225281   2.105   3.776  12.906  0.3559  0.0631  0.1867
 1289TIP3    H125282   2.146   3.754  12.822  0.4777 -0.4850  0.3799
 1289TIP3    H225283   2.118   3.697  12.960  0.7522  0.5929  0.8956
 1290TIP3   OH225284   0.916   0.669  12.030 -0.2221  0.7919  0.0857
 1290TIP3    H125285   0.891   0.621  12.109  1.1943 -0.0568  0.0487
 1290TIP3    H225286   0.855   0.640  11.963  0.6792 -1.1248  0.0287
 1291TIP3   OH225287   5.165   5.986   6.253 -0.1391 -0.4416 -0.3187
 1291TIP3    H125288   5.128   6.042   6.322  0.0482  1.1847 -1.4590
 1291TIP3    H225289   5.247   5.955   6.289  0.6564  1.5530 -0.2740
 1292TIP3   OH225290   3.853   0.568   0.490  0.4533  0.2567  0.0174
 1292TIP3    H125291   3.763   0.593   0.469  0.6235 -0.1188 -1.2211
 1292TIP3    H225292   3.887   0.642   0.541  0.2041  1.4881 -1.5406
 1293TIP3   OH225293   0.481   6.622   2.536  0.3821  0.0424 -0.1814
 1293TIP3    H125294   0.461   6.714   2.517 -0.3917 -0.1595 -0.3873
 1293TIP3    H225295   0.469   6.578   2.452  1.0458 -0.2092 -0.1510
 1294TIP3   OH225296   6.451   5.443   5.960 -0.3957 -0.2949 -0.0437
 1294TIP3    H125297   6.367   5.490   5.968  0.4075  1.0717  0.7434
 1294TIP3    H225298   6.452   5.412   5.869 -1.0217  1.1335 -0.5795
 1295TIP3   OH225299   5.057   1.807   4.733 -0.0341 -0.5354  0.4472
 1295TIP3    H125300   5.069   1.719   4.695 -0.7287 -0.8938  1.0257
 1295TIP3    H225301   4.971   1.835   4.700  1.1637  0.9324 -1.6341
 1296TIP3   OH225302   1.246   2.810   3.419 -0.0611 -0.3950  0.4926
 1296TIP3    H125303   1.189   2.767   3.355 -2.2274 -1.1504  2.7508
 1296TIP3    H225304   1.208   2.787   3.504  2.1723  1.2248  2.0445
 1297TIP3   OH225305   5.861   0.879  11.034  0.3471  0.4493  0.3777
 1297TIP3    H125306   5.811   0.958  11.054  0.8789  0.5240  1.4902
 1297TIP3    H225307   5.816   0.840  10.959  0.1707  1.8766 -0.2734
 1298TIP3   OH225308   5.127   5.892  12.039  0.1160 -0.3726 -0.5099
 1298TIP3    H125309   5.080   5.860  12.115 -0.0984 -0.5882 -0.7313
 1298TIP3    H225310   5.137   5.815  11.983  1.3737 -0.4955 -0.1392
 1299TIP3   OH225311   0.808   1.627  16.999  0.0973 -0.3844 -0.2443
 1299TIP3    H125312   0.859   1.706  17.014  2.3036 -1.8966  0.7694
 1299TIP3    H225313   0.729   1.657  16.956  1.4233  2.2238 -1.0546
 1300TIP3   OH225314   4.425   2.578   2.218 -0.0362 -0.1964  0.4319
 1300TIP3    H125315   4.426   2.668   2.185  0.4478  0.1577  1.3657
 1300TIP3    H225316   4.335   2.564   2.246 -0.0361  0.1338  0.6113
 1301TIP3   OH225317   5.984   4.097  16.072  0.0723 -0.7022  0.4726
 1301TIP3    H125318   6.031   4.014  16.074  0.5068 -0.4819 -0.4221
 1301TIP3    H225319   5.950   4.104  15.983 -0.9002 -0.4301  0.8464
 1302TIP3   OH225320   2.985   4.067  16.790 -0.4714 -0.5442 -0.0295
 1302TIP3    H125321   2.917   4.089  16.726 -0.1060  0.1104 -0.2006
 1302TIP3    H225322   3.020   3.983  16.759 -0.3957 -0.3029 -0.6172
 1303TIP3   OH225323   4.555   1.579   2.835  0.2018 -0.3955 -0.1879
 1303TIP3    H125324   4.642   1.599   2.801  0.8321 -0.7694  1.1348
 1303TIP3    H225325   4.533   1.655   2.889 -0.9448  0.3615 -1.6637
 1304TIP3   OH225326   6.162   1.308   3.354  0.0918  0.4871  0.3396
 1304TIP3    H125327   6.153   1.330   3.261 -0.5784  0.8636  0.4884
 1304TIP3    H225328   6.249   1.338   3.377  0.1943  0.5554 -0.1250
 1305TIP3   OH225329   0.474   6.643  16.758  0.6592  0.3995 -0.2691
 1305TIP3    H125330   0.473   6.738  16.771  2.7294  0.6139 -1.2350
 1305TIP3    H225331   0.525   6.609  16.831  0.7645  0.1405 -0.4605
 1306TIP3   OH225332   3.804   4.786  12.351  0.6202 -0.0984 -0.1868
 1306TIP3    H125333   3.718   4.767  12.314 -0.0030  0.3856  0.9566
 1306TIP3    H225334   3.860   4.802  12.275 -1.1221  3.1227 -0.9789
 1307TIP3   OH225335   5.075   1.520   4.342 -0.0764 -0.1250 -0.2679
 1307TIP3    H125336   5.092   1.614   4.337 -0.7277 -0.0411 -1.3125
 1307TIP3    H225337   5.085   1.498   4.434  1.9705  0.5946 -0.2812
 1308TIP3   OH225338   1.516   3.073   4.601 -0.8486  0.7740 -0.0777
 1308TIP3    H125339   1.460   3.055   4.676 -1.3973 -0.7284 -0.8081
 1308TIP3    H225340   1.574   3.144   4.631  0.1945 -0.9840  2.3869
 1309TIP3   OH225341   3.189   6.359  12.464  0.3135  0.3672  0.0798
 1309TIP3    H125342   3.261   6.300  12.484  0.4529  0.7695  0.7805
 1309TIP3    H225343   3.142   6.315  12.393  0.7351 -0.3144  0.2078
 1310TIP3   OH225344   1.173   3.921   3.581 -0.7881 -0.2561  0.4682
 1310TIP3    H125345   1.165   4.016   3.591 -2.3412 -0.5215  2.7015
 1310TIP3    H225346   1.098   3.886   3.630  1.0204 -2.6721  1.7283
 1311TIP3   OH225347   6.728   4.361  13.380 -0.0772 -0.0129  0.5591
 1311TIP3    H125348   6.763   4.335  13.465  1.7544 -0.5334 -0.3139
 1311TIP3    H225349   6.789   4.324  13.316  0.2570  2.7889 -0.9205
 1312TIP3   OH225350   2.338   0.812  14.970  0.7481 -0.2558  0.0233
 1312TIP3    H125351   2.385   0.768  14.899  0.7924  1.5064 -1.1199
 1312TIP3    H225352   2.315   0.898  14.934 -1.7048 -0.3194  1.1971
 1313TIP3   OH225353   5.149   5.951  12.919 -0.2299  0.4646  0.0334
 1313TIP3    H125354   5.217   5.914  12.975 -0.1126  1.6840  0.7138
 1313TIP3    H225355   5.090   5.996  12.978 -0.5049  1.1633 -0.7553
 1314TIP3   OH225356   6.231   2.654  14.184 -0.1107  0.4026  0.2405
 1314TIP3    H125357   6.309   2.682  14.233 -0.4066  0.9350  0.4107
 1314TIP3    H225358   6.257   2.570  14.144  1.0031  1.2128 -0.7992
 1315TIP3   OH225359   2.490   0.399   5.025  0.8461 -0.5939  0.1220
 1315TIP3    H125360   2.544   0.474   5.050  0.5683 -0.9267  1.8085
 1315TIP3    H225361   2.437   0.379   5.102 -3.0518  0.7894 -1.8891
 1316TIP3   OH225362   6.298   0.045   5.100  0.2304 -0.0263 -0.4004
 1316TIP3    H125363   6.312   0.003   5.185 -2.2535 -0.9265 -0.3695
 1316TIP3    H225364   6.246   0.122   5.120  0.2957  0.1829 -1.0360
 1317TIP3   OH225365   6.545   5.981  12.564  0.5592 -0.0932 -0.7637
 1317TIP3    H125366   6.569   5.926  12.639  0.9658 -0.1638 -0.9415
 1317TIP3    H225367   6.485   6.046  12.600 -0.1030 -0.7845 -0.5944
 1318TIP3   OH225368   1.441   1.549  13.834  0.0608 -0.2453  0.3883
 1318TIP3    H125369   1.408   1.636  13.813  1.2850 -0.2367 -1.7710
 1318TIP3    H225370   1.521   1.540  13.783 -0.5041 -2.9893 -0.2166
 1319TIP3   OH225371   4.997   2.160   4.126  0.2754  0.0622 -0.2745
 1319TIP3    H125372   4.983   2.076   4.084  0.8289 -1.1000  1.7068
 1319TIP3    H225373   5.002   2.223   4.054  0.2839 -1.6431 -1.8370
 1320TIP3   OH225374   5.848   3.853  14.374  0.4084  0.0577  0.3915
 1320TIP3    H125375   5.902   3.930  14.359 -0.3953  0.5948  0.1918
 1320TIP3    H225376   5.802   3.839  14.291  1.0839 -1.0805  0.1814
 1321TIP3   OH225377   4.289   5.077   4.608  0.0134  0.2895  0.1528
 1321TIP3    H125378   4.207   5.112   4.643 -1.3723  0.9172 -3.2858
 1321TIP3    H225379   4.302   4.995   4.656 -1.8441  0.8613  1.7995
 1322TIP3   OH225380   2.160   3.887   1.925  0.0049  0.1584 -0.2643
 1322TIP3    H125381   2.239   3.852   1.965 -0.6441 -1.8969 -0.6995
 1322TIP3    H225382   2.190   3.965   1.878  1.9824 -1.0966 -1.2121
 1323TIP3   OH225383   0.073   4.678  14.624  0.1740  0.5010 -0.1211
 1323TIP3    H125384   0.031   4.661  14.708 -0.8888  1.7294 -0.3767
 1323TIP3    H225385   0.154   4.724  14.646 -1.5918  3.7335  0.1872
 1324TIP3   OH225386   3.183   5.291   3.825 -0.0676 -0.5194  0.1194
 1324TIP3    H125387   3.150   5.354   3.890  2.0615 -1.1392  1.9316
 1324TIP3    H225388   3.218   5.344   3.754  0.2353  0.3080  0.8696
 1325TIP3   OH225389   2.854   4.370  10.794 -0.2483 -0.6671 -0.2303
 1325TIP3    H125390   2.939   4.413  10.803  0.9829 -2.7031 -1.4459
 1325TIP3    H225391   2.800   4.432  10.745  0.2166  0.9861  1.2469
 1326TIP3   OH225392   0.921   6.544   2.748 -0.0096 -0.5247 -0.4468
 1326TIP3    H125393   0.959   6.512   2.829 -1.5739 -1.1819  0.0515
 1326TIP3    H225394   0.906   6.466   2.695  0.6872 -0.1335 -1.2542
 1327TIP3   OH225395   6.326   5.045  11.849  0.3234  0.2007 -0.2300
 1327TIP3    H125396   6.391   5.041  11.920  0.6770 -1.7222 -0.6168
 1327TIP3    H225397   6.341   5.130  11.808  0.6752  0.9895  1.4623
 1328TIP3   OH225398   2.739   1.106  16.483  0.1070 -0.1137 -0.6452
 1328TIP3    H125399   2.750   1.059  16.565 -0.9156  0.5376 -0.1114
 1328TIP3    H225400   2.743   1.039  16.416 -0.6650 -0.8823  0.0575
 1329TIP3   OH225401   3.182   6.550   4.149  0.3821  0.7868 -0.2184
 1329TIP3    H125402   3.139   6.533   4.066 -0.3019  0.6210  0.1613
 1329TIP3    H225403   3.245   6.620   4.131  0.9352  0.0776 -1.0873
 1330TIP3   OH225404   5.770   3.644   1.666  0.0373 -0.3266  0.1758
 1330TIP3    H125405   5.713   3.673   1.594 -0.5204 -0.5838  0.5006
 1330TIP3    H225406   5.767   3.716   1.729 -1.3806 -1.0460  1.0017
 1331TIP3   OH225407   2.493   1.095  12.476  0.3345  0.3021 -0.6674
 1331TIP3    H125408   2.514   1.141  12.557  1.5960  0.4813 -1.0750
 1331TIP3    H225409   2.403   1.066  12.488  0.9564 -0.9983  1.4224
 1332TIP3   OH225410   4.629   5.435  13.702  0.1760 -0.0875 -0.1269
 1332TIP3    H125411   4.592   5.363  13.753 -0.3696  1.0807  1.1903
 1332TIP3    H225412   4.632   5.508  13.763 -0.0038  1.2320 -1.6480
 1333TIP3   OH225413   2.436   5.766  15.629 -0.5561 -0.2337 -0.3728
 1333TIP3    H125414   2.461   5.744  15.539 -0.1308 -1.5218  0.0423
 1333TIP3    H225415   2.341   5.763  15.630 -0.5420 -0.7440 -0.6497
 1334TIP3   OH225416   6.633   6.264   3.699  0.5551  0.1067 -0.1493
 1334TIP3    H125417   6.543   6.232   3.710  0.3427  0.5367 -0.5670
 1334TIP3    H225418   6.682   6.222   3.769  0.1212 -0.4954 -0.1958
 1335TIP3   OH225419   2.771   5.272   1.014  0.2460 -0.0713 -0.1714
 1335TIP3    H125420   2.772   5.331   1.089  0.2988 -0.6300  0.2760
 1335TIP3    H225421   2.784   5.185   1.052 -0.3699 -0.4331 -0.7670
 1336TIP3   OH225422   1.565   1.091  13.042 -0.4146 -0.3404  0.0887
 1336TIP3    H125423   1.622   1.097  12.965 -1.1391 -1.1498 -0.5288
 1336TIP3    H225424   1.494   1.154  13.024  0.8423  1.5305  1.3831
 1337TIP3   OH225425   5.954   2.397  16.259 -0.4396  0.3891 -0.5463
 1337TIP3    H125426   5.907   2.459  16.203  1.8926  1.2423 -1.7152
 1337TIP3    H225427   6.011   2.349  16.198  0.5216 -0.2706  0.8302
 1338TIP3   OH225428   0.543   1.827  11.632  0.0602  0.0929 -0.1741
 1338TIP3    H125429   0.578   1.798  11.717 -0.1692 -0.7944 -0.3681
 1338TIP3    H225430   0.603   1.789  11.568 -0.6981 -0.6500 -0.4695
 1339TIP3   OH225431   4.921   0.217   3.869 -0.1415 -0.3907 -0.2564
 1339TIP3    H125432   5.000   0.272   3.865 -0.1435 -0.4025 -0.4641
 1339TIP3    H225433   4.875   0.235   3.788 -1.6756  1.5738  0.9655
 1340TIP3   OH225434   5.359   4.631  15.335  0.0173  0.0825  0.2245
 1340TIP3    H125435   5.395   4.574  15.268 -1.3798  0.2172 -0.6773
 1340TIP3    H225436   5.413   4.710  15.332 -0.0665  0.1143 -0.8018
 1341TIP3   OH225437   2.623   4.588   3.093 -0.3692 -0.2416  0.3272
 1341TIP3    H125438   2.688   4.598   3.023 -0.8641  0.6427 -0.0178
 1341TIP3    H225439   2.627   4.670   3.141 -1.7714  0.1408 -0.1729
 1342TIP3   OH225440   2.074   3.713  12.253 -0.3204  0.5875 -0.3037
 1342TIP3    H125441   2.027   3.663  12.320  0.4479 -0.7485 -0.7162
 1342TIP3    H225442   2.017   3.787  12.233 -1.3516  0.0484  0.5706
 1343TIP3   OH225443   5.995   2.702  15.526 -0.0906  0.5906 -0.2454
 1343TIP3    H125444   5.985   2.608  15.541 -2.2165  0.9562  1.0816
 1343TIP3    H225445   6.030   2.709  15.437 -0.6731 -1.4331 -0.6864
 1344TIP3   OH225446   6.440   5.281   4.467  0.5912  0.0791 -0.3573
 1344TIP3    H125447   6.407   5.192   4.455 -0.3673  0.5063 -0.9622
 1344TIP3    H225448   6.532   5.269   4.492  0.1726 -1.1082  0.7316
 1345TIP3   OH225449   2.381   6.623  14.854  0.0116  0.3145  0.4303
 1345TIP3    H125450   2.309   6.616  14.916  0.3847 -0.7352  0.7645
 1345TIP3    H225451   2.369   6.550  14.794  0.0244  0.9418 -0.3653
 1346TIP3   OH225452   4.064   2.608   4.971 -0.3632 -0.2222 -0.4549
 1346TIP3    H125453   3.986   2.631   4.921 -0.1927  0.6231 -0.3424
 1346TIP3    H225454   4.043   2.634   5.061  0.3537  0.7702 -0.5657
 1347TIP3   OH225455   0.416   4.488  16.958  0.8315 -0.1368  0.2169
 1347TIP3    H125456   0.454   4.405  16.928  0.1371  0.0777 -1.3604
 1347TIP3    H225457   0.360   4.515  16.886 -1.0510  0.3727  1.8080
 1348TIP3   OH225458   0.457   6.569  11.619 -0.2011 -0.0222  0.3593
 1348TIP3    H125459   0.444   6.664  11.612  0.8260  0.0288 -1.6767
 1348TIP3    H225460   0.380   6.531  11.577 -0.7107 -0.1270  1.3538
 1349TIP3   OH225461   2.885   5.984  15.017 -0.0438 -0.0896 -0.1171
 1349TIP3    H125462   2.863   6.077  15.014  0.2127  0.0454  1.5838
 1349TIP3    H225463   2.959   5.976  14.956 -0.2213  0.7744 -0.4654
 1350TIP3   OH225464   4.110   3.708   2.212 -0.0705 -0.0623  0.1822
 1350TIP3    H125465   4.139   3.752   2.132  1.9667  1.2109  1.5437
 1350TIP3    H225466   4.118   3.615   2.192 -0.6624  0.2086 -1.4440
 1351TIP3   OH225467   3.915   4.282  14.437  0.1210 -0.5534  0.1271
 1351TIP3    H125468   3.917   4.374  14.464 -1.9840 -0.7483  1.1348
 1351TIP3    H225469   3.950   4.234  14.512  1.7140 -0.5788 -0.5953
 1352TIP3   OH225470   1.994   4.418   5.917 -0.0719 -0.1479 -0.2433
 1352TIP3    H125471   1.920   4.377   5.871 -1.9244 -0.6559  2.8461
 1352TIP3    H225472   1.953   4.479   5.979  2.1441  0.0849  1.1132
 1353TIP3   OH225473   4.456   6.254   0.843  0.3228  0.1718 -0.6386
 1353TIP3    H125474   4.471   6.229   0.934  1.3672 -1.0368 -1.1185
 1353TIP3    H225475   4.506   6.335   0.832 -0.5426  0.8300  0.0843
 1354TIP3   OH225476   2.218   1.214  15.188 -0.1364  0.6033 -0.5301
 1354TIP3    H125477   2.296   1.264  15.165  0.6071 -0.1628  0.2498
 1354TIP3    H225478   2.223   1.203  15.283 -0.0869 -1.2160 -0.7145
 1355TIP3   OH225479   0.361   3.283   0.434  0.1404  0.1723 -0.6760
 1355TIP3    H125480   0.383   3.194   0.460 -0.8122  0.3131  0.7555
 1355TIP3    H225481   0.445   3.323   0.412  0.6698 -0.8539 -0.5608
 1356TIP3   OH225482   0.511   3.306   2.539 -0.5797  0.5013 -0.1864
 1356TIP3    H125483   0.544   3.366   2.473  0.2373 -0.5290 -0.7414
 1356TIP3    H225484   0.583   3.246   2.556 -1.6898 -0.9833 -0.4465
 1357TIP3   OH225485   1.795   3.282  12.290  0.4512  0.1293  0.3512
 1357TIP3    H125486   1.836   3.346  12.347 -1.6158  2.2517 -0.3545
 1357TIP3    H225487   1.734   3.333  12.236 -1.2415 -2.4171 -0.3709
 1358TIP3   OH225488   4.450   0.514  11.093  0.1360  0.2547 -0.1521
 1358TIP3    H125489   4.431   0.446  11.028  1.3971  0.5493 -0.8450
 1358TIP3    H225490   4.397   0.489  11.169  0.2276 -1.2537 -0.5526
 1359TIP3   OH225491   0.358   3.950   2.040  0.3280 -0.4180  0.0138
 1359TIP3    H125492   0.308   4.013   1.989 -1.0131 -2.1073 -0.8856
 1359TIP3    H225493   0.333   3.966   2.130  2.5264  2.4407  0.2669
 1360TIP3   OH225494   3.164   0.621   5.128 -0.1471 -0.0886  0.1709
 1360TIP3    H125495   3.205   0.707   5.139 -2.1013  0.6184  3.1686
 1360TIP3    H225496   3.220   0.561   5.176  1.8857 -0.8839 -2.9179
 1361TIP3   OH225497   1.027   3.374  11.025 -0.3723 -0.3130 -0.0067
 1361TIP3    H125498   1.093   3.442  11.010  0.0443 -1.1465 -2.4105
 1361TIP3    H225499   1.076   3.292  11.020 -1.1825 -0.8705  0.8840
 1362TIP3   OH225500   4.233   6.065  17.160 -0.0763 -0.0528 -0.5176
 1362TIP3    H125501   4.317   6.019  17.151  0.5011  0.4916  1.4393
 1362TIP3    H225502   4.255   6.158  17.152 -0.4187  0.1077  0.2517
 1363TIP3   OH225503   5.069   3.295   0.083 -0.0189 -0.1288 -0.0837
 1363TIP3    H125504   5.039   3.235   0.015  0.5909  0.9860 -1.4072
 1363TIP3    H225505   5.101   3.239   0.153 -0.7760 -1.3197 -0.6595
 1364TIP3   OH225506   0.857   4.950   4.520  0.2503  0.5294  0.3546
 1364TIP3    H125507   0.832   4.859   4.536 -2.4610  1.1700  0.2873
 1364TIP3    H225508   0.817   4.998   4.592 -1.9259  2.0962 -1.7429
 1365TIP3   OH225509   3.254   6.732  12.392  0.3017  0.0302  0.0563
 1365TIP3    H125510   3.195   6.746  12.465  1.9652  1.1845  1.2619
 1365TIP3    H225511   3.280   6.820  12.365  1.2914 -0.4317 -0.5632
 1366TIP3   OH225512   3.692   3.226   4.714  0.2311 -0.2650  0.1415
 1366TIP3    H125513   3.604   3.196   4.694  1.1261 -1.9857 -1.5864
 1366TIP3    H225514   3.693   3.319   4.692 -0.3549 -0.8845 -2.9417
 1367TIP3   OH225515   3.434   4.954   3.172 -0.2975  0.0148 -0.1942
 1367TIP3    H125516   3.384   4.980   3.250 -0.2200 -0.8373  0.1470
 1367TIP3    H225517   3.468   5.036   3.137 -1.9529  0.6454 -0.4507
 1368TIP3   OH225518   4.335   2.395  13.769 -0.1578 -0.3162  0.6989
 1368TIP3    H125519   4.340   2.487  13.795 -0.9050  0.3251 -1.2693
 1368TIP3    H225520   4.244   2.370  13.786 -1.0879  0.5476 -2.3862
 1369TIP3   OH225521   2.555   1.317  11.567 -0.1972  0.1351 -0.5313
 1369TIP3    H125522   2.530   1.228  11.593 -0.1054 -0.1635 -1.4549
 1369TIP3    H225523   2.474   1.355  11.532 -0.0575  0.1603 -0.8283
 1370TIP3   OH225524   1.939   4.125  14.856 -0.3216 -0.9794 -0.1124
 1370TIP3    H125525   1.861   4.179  14.842  0.2844  0.2460  1.0966
 1370TIP3    H225526   1.928   4.089  14.944  0.1187 -1.4279 -0.2355
 1371TIP3   OH225527   3.631   1.719  11.494  0.4554  0.1072 -0.5192
 1371TIP3    H125528   3.563   1.664  11.455  0.7786 -0.5170 -0.2145
 1371TIP3    H225529   3.620   1.805  11.453  0.3339 -0.3464 -1.4406
 1372TIP3   OH225530   1.225   1.442  11.628  0.6909 -0.3438  0.4224
 1372TIP3    H125531   1.318   1.442  11.608  0.6524 -2.0199  0.0921
 1372TIP3    H225532   1.213   1.515  11.689  1.6381  1.9288 -1.9424
 1373TIP3   OH225533   0.071   3.307   2.747 -0.3393 -0.2956 -0.3517
 1373TIP3    H125534   0.037   3.298   2.658 -1.5344  1.5010 -0.1384
 1373TIP3    H225535   0.163   3.282   2.739 -0.4523 -0.3398 -2.0636
 1374TIP3   OH225536   3.767   6.286  16.827  0.0059  0.4359  0.1195
 1374TIP3    H125537   3.741   6.200  16.860  0.6854  0.7707  1.6014
 1374TIP3    H225538   3.862   6.289  16.839  0.8512 -0.3884 -4.3153
 1375TIP3   OH225539   3.739   1.849  16.149  0.3599  0.5016  0.0291
 1375TIP3    H125540   3.653   1.889  16.134  0.7787  1.0556 -1.0466
 1375TIP3    H225541   3.799   1.901  16.095  1.4395  0.3560  1.0395
 1376TIP3   OH225542   2.283   3.645  11.153 -0.7731  0.1284 -0.0098
 1376TIP3    H125543   2.224   3.638  11.227  0.2365  0.0263  0.8161
 1376TIP3    H225544   2.368   3.615  11.187  0.0558  1.4757 -0.7815
 1377TIP3   OH225545   5.385   6.251  15.528 -0.1129  0.2055 -0.0370
 1377TIP3    H125546   5.425   6.332  15.495  0.2499 -0.2806 -0.8250
 1377TIP3    H225547   5.309   6.238  15.472 -0.4050  0.2180  0.3568
 1378TIP3   OH225548   5.199   1.671   3.845 -0.2081 -0.1314 -0.0731
 1378TIP3    H125549   5.179   1.730   3.917 -1.4144 -1.5507  0.8104
 1378TIP3    H225550   5.277   1.624   3.873 -0.7593 -0.7849  0.4075
 1379TIP3   OH225551   5.476   2.753   5.520  0.9073  0.0703 -0.1175
 1379TIP3    H125552   5.435   2.834   5.552  0.6604 -0.1037  0.0157
 1379TIP3    H225553   5.563   2.779   5.493  0.5630  0.5337 -0.7932
 1380TIP3   OH225554   4.391   1.280   0.202  0.3227 -0.2479  1.0332
 1380TIP3    H125555   4.307   1.254   0.239  0.8292 -0.7038  1.8907
 1380TIP3    H225556   4.439   1.317   0.276  0.7585  0.3113  0.4781
 1381TIP3   OH225557   0.617   2.768  13.401 -0.2742  0.1943  0.3285
 1381TIP3    H125558   0.696   2.728  13.365 -0.6566  0.7412 -1.2271
 1381TIP3    H225559   0.626   2.758  13.496  1.7080  0.3191  0.2138
 1382TIP3   OH225560   5.707   0.408   3.098 -0.1496 -0.5058  0.0600
 1382TIP3    H125561   5.727   0.375   3.010  1.0667  0.2630  0.0257
 1382TIP3    H225562   5.779   0.375   3.153 -0.9112 -1.0083  0.7881
 1383TIP3   OH225563   4.075   3.317  16.011 -0.4868 -0.0487 -0.0432
 1383TIP3    H125564   4.138   3.247  15.992  0.4360  0.7056  0.1338
 1383TIP3    H225565   4.074   3.323  16.107 -0.8855 -0.1071 -0.0447
 1384TIP3   OH225566   5.010   2.915   2.320 -0.1033 -0.0411 -0.4131
 1384TIP3    H125567   5.069   2.851   2.281  0.8106  0.7492 -0.3846
 1384TIP3    H225568   4.941   2.863   2.362  0.7541 -0.9995 -0.1568
 1385TIP3   OH225569   0.106   4.515   3.050 -0.5011  0.2087 -0.3628
 1385TIP3    H125570   0.139   4.474   3.130  1.6367  2.0244 -0.2076
 1385TIP3    H225571   0.149   4.468   2.979  0.4514  0.8909 -0.2598
 1386TIP3   OH225572   5.641   2.291  13.182 -0.5193  0.2947 -0.1861
 1386TIP3    H125573   5.622   2.289  13.275 -1.4032 -0.5450 -0.3741
 1386TIP3    H225574   5.736   2.282  13.177 -0.5766 -0.9507  0.6007
 1387TIP3   OH225575   0.872   6.202   6.208  0.0809 -0.3502  0.0316
 1387TIP3    H125576   0.837   6.238   6.289  0.4767  1.5108 -0.5785
 1387TIP3    H225577   0.898   6.112   6.231 -1.3643 -0.4489  1.4965
 1388TIP3   OH225578   2.616   1.649   2.560  0.3560 -0.1970 -0.4775
 1388TIP3    H125579   2.610   1.689   2.473 -1.1787 -0.7210 -0.6453
 1388TIP3    H225580   2.606   1.723   2.621 -0.6620 -0.0627 -0.7801
 1389TIP3   OH225581   6.767   5.054   6.133 -0.0984 -0.5868 -0.1167
 1389TIP3    H125582   6.742   5.048   6.226  0.2964  1.0504  0.1298
 1389TIP3    H225583   6.840   5.116   6.133 -0.2733 -0.3671 -1.5659
 1390TIP3   OH225584   0.327   3.405   4.964 -0.2915 -0.0894 -0.0251
 1390TIP3    H125585   0.374   3.472   4.914 -0.3277  0.0595  0.1404
 1390TIP3    H225586   0.252   3.451   5.001  0.5862  0.1897  1.4741
 1391TIP3   OH225587   3.012   0.398   1.371 -0.1848  0.0984 -0.0255
 1391TIP3    H125588   3.094   0.348   1.371  0.5088  1.1791 -1.0058
 1391TIP3    H225589   2.951   0.343   1.321  0.5470  0.1643 -1.0333
 1392TIP3   OH225590   4.730   4.705  10.711  0.2002 -0.0159  0.1431
 1392TIP3    H125591   4.817   4.666  10.713  1.5414  2.7747 -0.3608
 1392TIP3    H225592   4.724   4.755  10.792 -0.2263  1.1798 -0.5997
 1393TIP3   OH225593   0.964   1.764   0.080 -0.6135  0.1122 -0.4969
 1393TIP3    H125594   0.911   1.689   0.050  0.3225 -0.6196 -0.3856
 1393TIP3    H225595   1.016   1.788   0.003  1.9544 -1.9047  0.4508
 1394TIP3   OH225596   6.345   5.791  16.103 -0.2085  0.0986 -0.2753
 1394TIP3    H125597   6.336   5.704  16.141 -1.8129 -1.4242 -3.6656
 1394TIP3    H225598   6.265   5.837  16.128 -0.9543 -0.6648 -1.1691
 1395TIP3   OH225599   2.526   2.488  14.541 -0.1206  0.9119 -0.0461
 1395TIP3    H125600   2.619   2.474  14.527 -0.0238 -0.5293  1.6937
 1395TIP3    H225601   2.521   2.577  14.577  0.6194  0.8928  0.1230
 1396TIP3   OH225602   3.492   0.697   4.919  0.2907 -0.3425 -0.5992
 1396TIP3    H125603   3.420   0.756   4.897  0.8853 -0.0608 -1.8686
 1396TIP3    H225604   3.459   0.610   4.898 -0.2801 -0.4046  0.4683
 1397TIP3   OH225605   4.700   2.712  17.239  0.3534  0.0361 -0.1706
 1397TIP3    H125606   4.774   2.656  17.216  0.0875  0.1220 -1.2819
 1397TIP3    H225607   4.735   2.800  17.240  0.4721 -0.0110  0.2695
 1398TIP3   OH225608   6.305   2.746   2.570 -0.4286  0.1034  0.2682
 1398TIP3    H125609   6.314   2.829   2.523 -1.3650 -0.5501 -1.1521
 1398TIP3    H225610   6.383   2.696   2.547 -0.1451  0.3739  0.6501
 1399TIP3   OH225611   6.518   5.661  13.250 -0.3342 -0.1921 -0.0061
 1399TIP3    H125612   6.490   5.744  13.287  0.6671  0.0566  0.2317
 1399TIP3    H225613   6.446   5.634  13.193 -2.5362 -1.2103  3.0078
 1400TIP3   OH225614   5.464   2.595  13.367  0.2990  0.1187 -0.1487
 1400TIP3    H125615   5.506   2.681  13.361  1.9799 -0.6884 -0.3653
 1400TIP3    H225616   5.450   2.569  13.276  0.3384 -0.0962 -0.0930
 1401TIP3   OH225617   3.089   2.928   6.284 -0.5996 -0.0493 -0.7409
 1401TIP3    H125618   3.176   2.888   6.295 -1.5197 -1.7657  0.9405
 1401TIP3    H225619   3.060   2.897   6.198 -0.2744 -1.0255 -0.5193
 1402TIP3   OH225620   5.953   1.731   2.248 -0.4463 -0.1749  0.6924
 1402TIP3    H125621   6.014   1.802   2.264  0.8650 -0.8572 -0.9921
 1402TIP3    H225622   5.873   1.756   2.295  0.5926  1.4849  1.6427
 1403TIP3   OH225623   5.914   3.804  11.435 -0.6826  0.2488  0.2612
 1403TIP3    H125624   5.946   3.717  11.411 -1.5252 -0.4399  1.5532
 1403TIP3    H225625   5.994   3.857  11.443 -0.2299 -0.0556 -1.7127
 1404TIP3   OH225626   0.801   0.623   2.155  0.5587 -0.4982  0.4639
 1404TIP3    H125627   0.733   0.568   2.196  0.5787 -0.3754  0.6604
 1404TIP3    H225628   0.810   0.698   2.213  1.9581 -1.2465  1.2558
 1405TIP3   OH225629   1.139   3.708  14.027  0.1618  0.4486  0.2758
 1405TIP3    H125630   1.155   3.756  13.945 -0.3267  1.7068  0.9042
 1405TIP3    H225631   1.046   3.687  14.025  0.4408 -0.8923 -0.1826
 1406TIP3   OH225632   3.368   0.315  11.402 -0.0447 -0.0373  0.2934
 1406TIP3    H125633   3.377   0.370  11.324 -0.3341 -0.3325  0.0484
 1406TIP3    H225634   3.412   0.233  11.379  1.2632  0.4341  1.0160
 1407TIP3   OH225635   5.538   5.302  10.786 -0.6908 -0.2019 -0.5287
 1407TIP3    H125636   5.571   5.231  10.732 -0.7148 -0.3948 -0.2926
 1407TIP3    H225637   5.506   5.259  10.866  1.7495  0.2581  0.8179
 1408TIP3   OH225638   1.585   0.032   2.934 -0.1497  0.6294 -0.3540
 1408TIP3    H125639   1.535  -0.028   2.989  1.2147 -2.2047 -1.9230
 1408TIP3    H225640   1.524   0.058   2.865 -0.8742  1.4095  0.5597
 1409TIP3   OH225641   1.868   4.407   0.305 -0.1856  0.1923  0.6996
 1409TIP3    H125642   1.938   4.343   0.325 -1.0586 -0.4107  1.9646
 1409TIP3    H225643   1.803   4.393   0.374 -1.0223  1.5540  0.2133
 1410TIP3   OH225644   0.332   1.784   1.873 -0.2360 -0.6023  0.4235
 1410TIP3    H125645   0.280   1.815   1.947  0.2418 -0.7416  0.8250
 1410TIP3    H225646   0.317   1.848   1.804  0.1907  0.1504  1.0120
 1411TIP3   OH225647   2.434   2.743  15.285  0.0292  0.3423  0.2115
 1411TIP3    H125648   2.498   2.673  15.268 -0.5209  0.1234 -1.0771
 1411TIP3    H225649   2.481   2.804  15.342  1.2126 -0.0771 -0.2783
 1412TIP3   OH225650   3.461   0.380  11.648 -0.0694  0.0246  0.1954
 1412TIP3    H125651   3.440   0.386  11.555 -0.9565 -0.0168  0.3826
 1412TIP3    H225652   3.378   0.399  11.692  0.3187 -0.0662  0.9716
 1413TIP3   OH225653   5.218   6.454   0.331  0.3142  0.1226  1.2071
 1413TIP3    H125654   5.137   6.410   0.305  0.5204  0.6364 -0.3817
 1413TIP3    H225655   5.221   6.442   0.426 -1.0867 -0.8024  1.1779
 1414TIP3   OH225656   5.591   0.325  16.883 -0.0218  0.0465  0.9342
 1414TIP3    H125657   5.651   0.267  16.837 -0.6521 -0.7337  1.0824
 1414TIP3    H225658   5.504   0.292  16.862 -0.4640  1.5930  0.1373
 1415TIP3   OH225659   2.996   4.588  14.471 -0.2794 -0.5211 -0.8055
 1415TIP3    H125660   3.025   4.584  14.563 -0.8387  0.6655 -0.5643
 1415TIP3    H225661   2.986   4.496  14.446  1.7625 -0.9434 -0.3019
 1416TIP3   OH225662   4.016   5.679  11.774  0.0424 -0.1701 -0.2369
 1416TIP3    H125663   4.076   5.628  11.720  1.4404 -0.2467  1.3356
 1416TIP3    H225664   4.004   5.627  11.853  1.2147  1.7159  1.2590
 1417TIP3   OH225665   0.229   3.942   1.301 -0.2984 -0.2664 -0.0538
 1417TIP3    H125666   0.187   3.969   1.219  1.6115  0.7379 -0.7469
 1417TIP3    H225667   0.253   3.851   1.287 -0.5017 -0.2693 -0.3880
 1418TIP3   OH225668   2.061   3.276   4.249 -0.5463 -0.2850 -0.4073
 1418TIP3    H125669   2.084   3.235   4.166  0.0159  1.3960 -1.1172
 1418TIP3    H225670   2.114   3.230   4.314  1.2835  0.3384 -1.3859
 1419TIP3   OH225671   6.637   4.724   5.504 -1.1734  0.6414 -0.7689
 1419TIP3    H125672   6.572   4.694   5.568 -0.4656  0.8647  0.0793
 1419TIP3    H225673   6.697   4.651   5.493 -1.5316  0.4526 -1.5148
 1420TIP3   OH225674   6.334   4.301   4.912  0.4966  0.4093  0.0521
 1420TIP3    H125675   6.263   4.238   4.923 -0.2777  1.0760 -0.9097
 1420TIP3    H225676   6.393   4.285   4.986 -0.0626 -0.9260  0.2317
 1421TIP3   OH225677   2.345   1.489  14.591  0.0629 -0.0242 -0.0975
 1421TIP3    H125678   2.341   1.457  14.501  1.3825 -2.1915  0.5246
 1421TIP3    H225679   2.391   1.572  14.585 -2.8868  1.6260 -1.7325
 1422TIP3   OH225680   5.478   2.589  14.581  0.6305 -0.6602  0.1255
 1422TIP3    H125681   5.484   2.653  14.652  1.8608 -2.6322  1.9174
 1422TIP3    H225682   5.554   2.606  14.526  0.1198  0.3502 -0.2937
 1423TIP3   OH225683   0.746   0.202  10.969 -0.4309 -0.5260 -0.5692
 1423TIP3    H125684   0.749   0.245  10.883  0.8349 -1.3033 -0.9508
 1423TIP3    H225685   0.718   0.112  10.949 -0.0634 -0.7278 -0.1927
 1424TIP3   OH225686   3.586   4.125  17.251 -0.2868  0.2325  0.0730
 1424TIP3    H125687   3.500   4.150  17.219 -0.6475 -0.5038  0.4344
 1424TIP3    H225688   3.616   4.199  17.303  0.6613  1.8199 -2.5461
 1425TIP3   OH225689   3.595   5.024   2.367  0.0395 -1.0537  0.0592
 1425TIP3    H125690   3.626   4.942   2.405  0.3822 -0.8739  0.1762
 1425TIP3    H225691   3.666   5.052   2.308 -0.2942 -1.1019 -0.3694
 1426TIP3   OH225692   4.594   4.367  12.654  0.4105  0.7035  0.4341
 1426TIP3    H125693   4.577   4.291  12.599 -0.1691  1.6452 -0.7204
 1426TIP3    H225694   4.677   4.348  12.698  1.2160  0.2018 -1.2462
 1427TIP3   OH225695   2.329   6.451   1.806 -0.0761  0.4683  0.4652
 1427TIP3    H125696   2.419   6.419   1.820  0.4758  1.8702  0.2712
 1427TIP3    H225697   2.323   6.528   1.862 -1.7343 -0.5238  1.7428
 1428TIP3   OH225698   3.539   4.446   3.581  0.1696 -0.3958 -0.1715
 1428TIP3    H125699   3.622   4.483   3.551 -0.5213  3.2483  1.7393
 1428TIP3    H225700   3.473   4.504   3.543 -1.3371 -1.6446  0.4625
 1429TIP3   OH225701   5.446   6.281  13.980 -0.2092 -0.2180  0.6808
 1429TIP3    H125702   5.356   6.254  14.004 -0.1928 -1.4743 -0.5536
 1429TIP3    H225703   5.439   6.375  13.964 -1.2906 -0.2748  0.7011
 1430TIP3   OH225704   5.461   4.296   3.800  0.0799 -0.3237 -0.1888
 1430TIP3    H125705   5.514   4.286   3.721 -0.1007 -0.0130 -0.3513
 1430TIP3    H225706   5.482   4.384   3.832  0.5937 -0.6621  0.4366
 1431TIP3   OH225707   4.077   4.512  14.586  0.5917 -0.2624 -0.3020
 1431TIP3    H125708   4.080   4.608  14.580  0.4489 -0.1142  1.5095
 1431TIP3    H225709   4.039   4.494  14.672  1.5449 -1.9486 -0.1864
 1432TIP3   OH225710   5.340   4.841  15.621  0.4658 -0.0481  0.2323
 1432TIP3    H125711   5.384   4.921  15.590  0.4096 -0.0467  0.1561
 1432TIP3    H225712   5.256   4.871  15.655  0.3807 -0.0933  0.0640
 1433TIP3   OH225713   0.347   1.664   4.305  0.2942 -0.3861  0.5307
 1433TIP3    H125714   0.430   1.709   4.290 -0.3197  1.8173  3.0816
 1433TIP3    H225715   0.336   1.663   4.400 -2.3260 -1.1322  0.3133
 1434TIP3   OH225716   3.781   4.529   3.504 -0.0523 -0.5172  0.0588
 1434TIP3    H125717   3.852   4.469   3.524  0.9222 -0.0616 -1.7792
 1434TIP3    H225718   3.820   4.616   3.508 -0.5493 -0.2430 -0.6781
 1435TIP3   OH225719   4.266   1.067  12.111  0.3646  0.2759 -0.0642
 1435TIP3    H125720   4.260   1.117  12.192 -1.4388  1.4821 -0.8869
 1435TIP3    H225721   4.180   1.024  12.103  0.1625  0.9141 -1.7609
 1436TIP3   OH225722   0.123   1.912  12.739 -1.0103 -0.0452  0.1305
 1436TIP3    H125723   0.187   1.924  12.809 -0.8676  2.7999 -0.3796
 1436TIP3    H225724   0.133   1.820  12.713  0.0465 -0.7565  2.7027
 1437TIP3   OH225725   4.695   2.137  13.462  0.0246 -0.2067 -0.0121
 1437TIP3    H125726   4.662   2.092  13.541  0.3817  0.4131  0.5017
 1437TIP3    H225727   4.781   2.100  13.448  0.4423  0.5007  0.5866
 1438TIP3   OH225728   3.589   1.841  11.798  0.5111  0.4359  0.3945
 1438TIP3    H125729   3.550   1.830  11.712  1.4938 -0.2635  0.0225
 1438TIP3    H225730   3.558   1.927  11.827  0.8824  1.0911 -1.0454
 1439TIP3   OH225731   4.919   1.983   5.744 -0.0759 -0.3358 -0.3587
 1439TIP3    H125732   4.881   1.957   5.828  0.5269  0.1380  0.0617
 1439TIP3    H225733   5.009   2.006   5.764 -0.0740  0.2874 -1.0450
 1440TIP3   OH225734   3.250   2.936  15.757  0.2694  0.1424 -0.3185
 1440TIP3    H125735   3.328   2.930  15.702 -0.0348 -0.2653 -0.7131
 1440TIP3    H225736   3.194   2.865  15.727 -0.3499  0.5652 -0.1747
 1441TIP3   OH225737   3.823   4.371   4.309 -0.0426 -0.0955  0.0988
 1441TIP3    H125738   3.872   4.289   4.301  0.3631  0.0655  0.8576
 1441TIP3    H225739   3.797   4.392   4.220 -0.2988 -1.1451 -0.0848
 1442TIP3   OH225740   5.812   1.540  14.414  0.4388  0.1961 -0.2392
 1442TIP3    H125741   5.772   1.604  14.473  0.6840  1.1797 -1.1134
 1442TIP3    H225742   5.826   1.588  14.332 -1.2911 -1.5346 -1.6402
 1443TIP3   OH225743   0.811   1.995   2.729  0.7988  0.1265 -0.2561
 1443TIP3    H125744   0.741   1.989   2.794  0.1192  3.3617 -0.4784
 1443TIP3    H225745   0.892   1.994   2.779  0.3794  0.2724  0.4299
 1444TIP3   OH225746   4.954   1.264   6.093 -0.3554  0.2223  0.2752
 1444TIP3    H125747   4.939   1.359   6.093  0.2199  0.3228  0.0596
 1444TIP3    H225748   4.999   1.247   6.176  0.1901  0.2558 -0.0085
 1445TIP3   OH225749   3.452   4.870   1.738  0.0248 -0.0067 -0.3128
 1445TIP3    H125750   3.408   4.813   1.801 -0.1574 -0.5205 -0.9014
 1445TIP3    H225751   3.494   4.937   1.792  0.1472 -0.6315  0.3816
 1446TIP3   OH225752   5.444   3.395  16.145 -0.3397 -0.7763  0.1886
 1446TIP3    H125753   5.504   3.380  16.072 -1.2210 -2.7680 -0.1732
 1446TIP3    H225754   5.439   3.491  16.151  1.8730 -0.5382 -0.5580
 1447TIP3   OH225755   6.071   6.084   3.096 -0.2111 -0.3202 -0.4875
 1447TIP3    H125756   6.042   6.027   3.025  0.0690 -0.0716 -0.8005
 1447TIP3    H225757   6.068   6.172   3.059 -1.7222  0.0112  0.3248
 1448TIP3   OH225758   4.481   6.277   1.734 -0.2125  0.0332  0.2666
 1448TIP3    H125759   4.452   6.265   1.825 -2.1384 -0.2764 -0.3456
 1448TIP3    H225760   4.406   6.317   1.690  0.5202 -0.2485 -1.3018
 1449TIP3   OH225761   5.679   3.520   2.219 -0.0117  0.5611  0.1177
 1449TIP3    H125762   5.657   3.430   2.194  0.0763  1.0351 -1.8473
 1449TIP3    H225763   5.659   3.572   2.141  0.6382  2.1528  0.9588
 1450TIP3   OH225764   5.455   2.270   1.897  0.4050 -0.5813  0.2779
 1450TIP3    H125765   5.470   2.308   1.983  0.9820 -2.3938  1.0334
 1450TIP3    H225766   5.542   2.269   1.856  0.0418  0.7872 -0.5745
 1451TIP3   OH225767   0.195   6.556   3.337  0.0616  0.7256 -0.0895
 1451TIP3    H125768   0.164   6.528   3.251  0.9889 -0.8489  0.0417
 1451TIP3    H225769   0.115   6.581   3.384 -0.7569 -0.8624 -0.5633
 1452TIP3   OH225770   0.378   4.401  12.701 -0.4393 -0.2590  0.0480
 1452TIP3    H125771   0.465   4.440  12.712 -0.3518 -0.5858  0.5041
 1452TIP3    H225772   0.391   4.307  12.714 -0.7766 -0.3673 -0.3606
 1453TIP3   OH225773   3.327   3.028  12.687  0.3231  0.4324  0.4955
 1453TIP3    H125774   3.352   2.945  12.727 -0.7679  0.3252  1.0032
 1453TIP3    H225775   3.376   3.031  12.605  2.4295  0.5525  1.7120
 1454TIP3   OH225776   1.518   6.465   6.338  0.1413 -0.3613  0.0251
 1454TIP3    H125777   1.489   6.374   6.341  2.2547 -1.1017 -0.2126
 1454TIP3    H225778   1.528   6.490   6.430 -0.0117 -0.5355  0.0898
 1455TIP3   OH225779   6.408   2.690  16.490 -0.4937  0.1090  0.1323
 1455TIP3    H125780   6.416   2.770  16.439  0.1438  0.3553  0.6010
 1455TIP3    H225781   6.378   2.624  16.428  1.4052  0.1191 -0.8642
 1456TIP3   OH225782   2.362   1.032   0.539  0.2825  0.0835 -0.3498
 1456TIP3    H125783   2.363   1.103   0.604 -0.6557 -0.3116  0.1065
 1456TIP3    H225784   2.300   0.968   0.573  0.9069 -0.8459 -0.8959
 1457TIP3   OH225785   2.561   1.951   0.488 -0.2557 -0.4874  0.1579
 1457TIP3    H125786   2.610   1.912   0.415  0.6008  0.5212  0.1680
 1457TIP3    H225787   2.600   1.912   0.566 -1.4882 -1.9282  0.1047
 1458TIP3   OH225788   2.753   0.972  12.015  0.1668 -0.0808 -0.2513
 1458TIP3    H125789   2.830   0.927  12.050  0.3615 -0.1482 -0.7590
 1458TIP3    H225790   2.679   0.930  12.060  0.3344 -1.0178 -0.8157
 1459TIP3   OH225791   2.683   5.956  11.199  0.1987  0.3280 -0.0256
 1459TIP3    H125792   2.725   6.022  11.254  0.0570  0.1319  0.3233
 1459TIP3    H225793   2.727   5.964  11.114  1.1324 -0.0506  0.4010
 1460TIP3   OH225794   5.653   6.551   1.501  0.5127 -0.5729 -0.2414
 1460TIP3    H125795   5.712   6.579   1.431  2.7092  1.5874  2.2337
 1460TIP3    H225796   5.687   6.467   1.529  1.9765  0.2367  0.5530
 1461TIP3   OH225797   1.356   2.520   0.402 -0.7572  0.0760  0.0965
 1461TIP3    H125798   1.311   2.470   0.334  0.4302 -0.4948 -0.2841
 1461TIP3    H225799   1.377   2.603   0.361  0.0592 -0.3107 -0.2909
 1462TIP3   OH225800   6.437   0.040   4.863  0.3896  0.0379  0.7703
 1462TIP3    H125801   6.390   0.120   4.841  1.6971  0.6540  0.1249
 1462TIP3    H225802   6.409   0.019   4.952 -3.8884 -1.6633 -0.6631
 1463TIP3   OH225803   0.841   4.309   1.368 -0.4570 -0.3639  0.1495
 1463TIP3    H125804   0.918   4.338   1.418 -0.7801 -0.1405  0.5276
 1463TIP3    H225805   0.816   4.386   1.317 -1.1502 -0.0521  0.9431
 1464TIP3   OH225806   2.889   2.884  11.730  0.3591  0.0687  0.3225
 1464TIP3    H125807   2.963   2.943  11.744 -0.5299  1.0022  1.2886
 1464TIP3    H225808   2.838   2.925  11.660  0.0876  0.0987  0.5374
 1465TIP3   OH225809   0.470   2.404   3.371 -0.3123 -0.1428  0.1516
 1465TIP3    H125810   0.450   2.476   3.431  0.2234 -0.1262  0.3147
 1465TIP3    H225811   0.566   2.400   3.370 -0.3410 -0.8961  0.1965
 1466TIP3   OH225812   6.121   1.774  13.119  0.1819 -0.2724 -0.3329
 1466TIP3    H125813   6.190   1.740  13.176  1.1866  1.4167 -0.4865
 1466TIP3    H225814   6.097   1.858  13.158 -0.9746 -0.2914 -0.9579
 1467TIP3   OH225815   5.571   5.142  12.771  0.0792  0.0391  0.6175
 1467TIP3    H125816   5.524   5.060  12.753 -0.1514  0.0728  1.0537
 1467TIP3    H225817   5.585   5.181  12.685 -0.7213  0.0386  0.4793
 1468TIP3   OH225818   3.117   3.183   6.224 -0.0192 -0.0724  0.6206
 1468TIP3    H125819   3.085   3.238   6.295  0.9749  0.5704  0.5823
 1468TIP3    H225820   3.093   3.094   6.250 -1.7074  0.3569  0.6496
 1469TIP3   OH225821   2.515   0.885  12.177  0.1547  0.2890  0.1062
 1469TIP3    H125822   2.515   0.887  12.273  2.2403  0.4079  0.1443
 1469TIP3    H225823   2.454   0.954  12.152  0.1545  0.7688  1.3682
 1470TIP3   OH225824   4.139   6.211  16.164  0.3777 -0.3561 -0.1886
 1470TIP3    H125825   4.168   6.282  16.107  0.6052 -0.7728 -0.6004
 1470TIP3    H225826   4.146   6.247  16.253 -0.9075  0.6276 -0.4516
 1471TIP3   OH225827   2.086   1.099  12.016 -0.1019 -0.0158  0.7274
 1471TIP3    H125828   2.071   1.106  12.110 -2.3044  1.0407  0.3700
 1471TIP3    H225829   2.000   1.077  11.980  1.0078 -2.0536 -0.9404
 1472TIP3   OH225830   1.286   1.508   3.146 -0.0844 -0.4023  0.3758
 1472TIP3    H125831   1.303   1.539   3.235 -1.5923  1.3000  0.1350
 1472TIP3    H225832   1.192   1.522   3.134  0.1227 -0.4233 -1.5400
 1473TIP3   OH225833   0.103   4.351   4.978 -0.1258  0.6299  0.3814
 1473TIP3    H125834   0.070   4.440   4.983 -1.3900  0.2735 -0.8696
 1473TIP3    H225835   0.091   4.315   5.066 -1.1013  1.2070  0.4987
 1474TIP3   OH225836   4.628   5.461  12.440 -0.0171 -0.0305  0.4888
 1474TIP3    H125837   4.575   5.402  12.494  0.3534 -0.4581  0.3869
 1474TIP3    H225838   4.565   5.522  12.403 -0.2372  0.5314  1.7285
 1475TIP3   OH225839   2.856   0.280   3.214  0.1258 -0.0763  0.2088
 1475TIP3    H125840   2.906   0.268   3.294  1.7453  0.0738 -0.7417
 1475TIP3    H225841   2.769   0.306   3.244  0.7898  0.3429  1.8997
 1476TIP3   OH225842   1.604   4.652  14.011 -0.3606 -0.0299 -0.2882
 1476TIP3    H125843   1.687   4.674  14.053  0.3156 -0.1586 -1.5035
 1476TIP3    H225844   1.580   4.731  13.962 -0.8039 -0.0932 -0.1742
 1477TIP3   OH225845   3.320   3.972   2.027 -0.0011 -0.4740  0.2897
 1477TIP3    H125846   3.415   3.978   2.029  0.3421 -2.6336 -2.5190
 1477TIP3    H225847   3.289   4.062   2.039  2.4879  0.6153 -0.8642
 1478TIP3   OH225848   2.344   5.569  16.420  0.4013  0.2870 -0.4848
 1478TIP3    H125849   2.348   5.613  16.504  0.3099 -1.2361  0.3566
 1478TIP3    H225850   2.436   5.557  16.394  0.5154 -1.0776  0.4402
 1479TIP3   OH225851   0.726   4.224  11.221  0.6075  0.4926  0.4379
 1479TIP3    H125852   0.654   4.253  11.164  0.0146 -1.0887  0.3082
 1479TIP3    H225853   0.683   4.201  11.303  1.1477  0.6466  0.7647
 1480TIP3   OH225854   6.288   0.011   2.354  0.4175 -0.1172  0.5799
 1480TIP3    H125855   6.377  -0.023   2.364 -0.7978 -3.3091  1.7011
 1480TIP3    H225856   6.274   0.064   2.432  0.9329 -0.6684  1.0572
 1481TIP3   OH225857   4.933   0.149   5.110  0.1228 -0.4066 -0.6161
 1481TIP3    H125858   4.986   0.098   5.048  0.7466  0.7114 -1.0231
 1481TIP3    H225859   4.866   0.190   5.056  1.2933  1.4093 -0.7611
 1482TIP3   OH225860   4.766   5.572   5.859 -0.5844  0.4032  0.2773
 1482TIP3    H125861   4.752   5.598   5.767  2.5122  1.7463  0.0478
 1482TIP3    H225862   4.861   5.558   5.865 -1.0365 -2.5715  2.6194
 1483TIP3   OH225863   0.863   2.886   3.136 -0.4274 -0.3759 -0.4091
 1483TIP3    H125864   0.849   2.930   3.052  0.9583 -0.9746 -0.9822
 1483TIP3    H225865   0.881   2.957   3.198  0.5551 -0.0386 -1.0640
 1484TIP3   OH225866   2.246   6.687   4.341 -0.7394 -0.0080  0.6446
 1484TIP3    H125867   2.253   6.767   4.291 -0.4857  1.1592  2.4530
 1484TIP3    H225868   2.336   6.667   4.367 -0.9142 -0.3383  1.0055
 1485TIP3   OH225869   2.585   4.504  11.716  0.2260 -0.3962  0.1616
 1485TIP3    H125870   2.538   4.503  11.633  1.7026 -0.2327 -0.7094
 1485TIP3    H225871   2.572   4.593  11.749  0.9815  0.0598 -0.7198
 1486TIP3   OH225872   1.874   6.771  11.935  0.1082 -0.2284 -0.5340
 1486TIP3    H125873   1.859   6.822  11.856 -1.2568 -1.4813 -1.1345
 1486TIP3    H225874   1.805   6.705  11.935  1.6560 -1.9651  0.2925
 1487TIP3   OH225875   3.941   0.699  12.130  0.1072 -0.2613 -0.3192
 1487TIP3    H125876   3.849   0.725  12.138  0.5902  1.0230  1.8225
 1487TIP3    H225877   3.944   0.612  12.172 -0.1201 -0.2648 -0.3072
 1488TIP3   OH225878   2.604   5.532  17.122  0.3537 -0.7851 -0.1511
 1488TIP3    H125879   2.517   5.512  17.156 -1.3764  0.1173 -3.6151
 1488TIP3    H225880   2.640   5.595  17.183 -1.5046 -1.0019  1.2503
 1489TIP3   OH225881   2.286   5.341  13.482 -0.0137  0.5230 -0.5069
 1489TIP3    H125882   2.249   5.263  13.442  3.2251 -1.3685 -0.1738
 1489TIP3    H225883   2.265   5.333  13.575  1.0853 -0.5335 -0.3198
 1490TIP3   OH225884   2.056   4.663  13.593  0.2490  0.2720 -0.3826
 1490TIP3    H125885   1.992   4.695  13.657  0.1365 -0.2878 -0.2134
 1490TIP3    H225886   2.004   4.644  13.515  0.3979  1.0389 -0.6872
 1491TIP3   OH225887   4.925   1.940  15.278 -0.4141 -1.3686  0.0801
 1491TIP3    H125888   4.858   1.900  15.222 -2.1244  0.6197  0.5714
 1491TIP3    H225889   4.993   1.968  15.217 -1.4381 -0.7795 -0.8325
 1492TIP3   OH225890   3.234   5.782  11.533  0.5628 -0.0681 -0.0240
 1492TIP3    H125891   3.270   5.698  11.563 -0.7003 -0.0907  1.5706
 1492TIP3    H225892   3.230   5.836  11.612 -0.0054  0.9876 -0.7456
 1493TIP3   OH225893   3.205   6.580   3.187 -0.0212  0.4857 -0.3774
 1493TIP3    H125894   3.120   6.615   3.159  0.1622 -0.4637 -2.2264
 1493TIP3    H225895   3.258   6.577   3.108  0.6971 -1.8955  0.1165
 1494TIP3   OH225896   3.887   6.750  14.765  0.3976 -0.1666 -0.3996
 1494TIP3    H125897   3.954   6.687  14.740 -0.1050 -0.7799 -0.2315
 1494TIP3    H225898   3.927   6.800  14.837  1.3075  0.6469 -1.4492
 1495TIP3   OH225899   3.778   3.088   4.142  0.4588  0.5329  0.1535
 1495TIP3    H125900   3.752   3.171   4.103  0.8964 -0.2663 -1.9588
 1495TIP3    H225901   3.874   3.092   4.145  0.6895 -0.8254 -2.3869
 1496TIP3   OH225902   4.206   2.633  13.334  0.0348 -0.1256 -0.0276
 1496TIP3    H125903   4.159   2.704  13.377  1.8492 -0.8438  3.4648
 1496TIP3    H225904   4.142   2.562  13.328 -0.9348  0.7781 -0.8594
 1497TIP3   OH225905   0.859   2.548  14.697  0.2081  0.3082  0.2246
 1497TIP3    H125906   0.878   2.455  14.689 -0.4108  0.2854 -1.2042
 1497TIP3    H225907   0.912   2.577  14.772  0.2533 -1.2134  0.8104
 1498TIP3   OH225908   0.985   3.565  13.673  0.7150  0.8220 -0.2360
 1498TIP3    H125909   1.039   3.635  13.710 -0.3067  0.8354  1.3725
 1498TIP3    H225910   0.927   3.609  13.611  2.2710  0.8563 -1.7148
 1499TIP3   OH225911   5.949   5.576  14.526  0.1011  0.7482 -0.1809
 1499TIP3    H125912   5.974   5.580  14.434 -3.1744  1.8943 -1.1405
 1499TIP3    H225913   5.957   5.667  14.557  0.8552  0.4279  0.6224
 1500TIP3   OH225914   2.485   3.518   1.321 -0.0070  0.5072  0.3884
 1500TIP3    H125915   2.522   3.465   1.251 -2.2211  2.1917 -2.2414
 1500TIP3    H225916   2.417   3.463   1.360 -1.5074  0.8821 -1.5527
 1501TIP3   OH225917   3.611   3.549  13.405  0.3733 -0.1937  0.2503
 1501TIP3    H125918   3.651   3.615  13.349  0.8423 -0.3561  0.3891
 1501TIP3    H225919   3.599   3.593  13.490 -0.2353  0.0181  0.0591
 1502TIP3   OH225920   1.975   6.185  11.519  0.2611  0.5136  0.3058
 1502TIP3    H125921   1.998   6.277  11.505  0.1385  0.7114  1.3098
 1502TIP3    H225922   2.032   6.136  11.459 -0.3684  1.2836 -0.9774
 1503TIP3   OH225923   6.036   1.907  16.802  0.1081 -0.4784 -0.0574
 1503TIP3    H125924   5.985   1.966  16.858 -0.1866 -1.8701  1.2399
 1503TIP3    H225925   6.127   1.924  16.825  0.0292 -0.4371  0.2347
 1504TIP3   OH225926   0.018   6.326  15.062  0.0446 -0.0037  0.4273
 1504TIP3    H125927   0.029   6.412  15.103 -1.5952  0.9961 -1.0805
 1504TIP3    H225928   0.071   6.331  14.982 -0.2876 -0.2708  0.1851
 1505TIP3   OH225929   1.477   5.322   2.764  0.1868  0.1718  0.0759
 1505TIP3    H125930   1.571   5.304   2.758  0.7426  3.0299 -0.9197
 1505TIP3    H225931   1.469   5.387   2.834 -1.0054  0.3020 -0.1521
 1506TIP3   OH225932   0.444   0.151   0.055 -0.1387 -0.6144  0.0970
 1506TIP3    H125933   0.450   0.246   0.043 -1.9039 -0.6521 -1.8457
 1506TIP3    H225934   0.469   0.136   0.146  1.7004  1.5088  0.0304
 1507TIP3   OH225935   4.698   1.215   2.346  0.6772 -0.6254  0.2818
 1507TIP3    H125936   4.677   1.282   2.281 -1.3252 -1.3144  0.1598
 1507TIP3    H225937   4.669   1.252   2.429 -0.9399 -1.4817  0.1466
 1508TIP3   OH225938   0.276   5.576   2.889  0.4961  0.0019  0.5289
 1508TIP3    H125939   0.302   5.553   2.800  1.4711 -0.2391  0.8632
 1508TIP3    H225940   0.348   5.629   2.922  0.4246 -0.4133  1.3772
 1509TIP3   OH225941   6.024   3.167   1.408  0.0049 -0.8392 -0.4990
 1509TIP3    H125942   6.090   3.195   1.344  2.7192  0.5635  2.6536
 1509TIP3    H225943   6.033   3.072   1.412  2.1520 -0.6446  0.1113
 1510TIP3   OH225944   4.122   4.228   3.398 -0.1425 -0.0577 -0.1435
 1510TIP3    H125945   4.040   4.271   3.372  1.1309  1.6997 -1.4790
 1510TIP3    H225946   4.165   4.206   3.315  1.0232 -0.3846  0.5284
 1511TIP3   OH225947   3.731   3.298  14.195  0.0498 -0.4955 -0.0172
 1511TIP3    H125948   3.763   3.280  14.284  0.8570 -2.0606 -0.5864
 1511TIP3    H225949   3.642   3.331  14.208  0.2054 -0.5602  1.3826
 1512TIP3   OH225950   5.759   3.814  12.909  0.7398  0.7799  0.1255
 1512TIP3    H125951   5.755   3.888  12.848  0.3002  0.3402 -0.3979
 1512TIP3    H225952   5.675   3.817  12.955  0.2787  0.0368 -0.6116
 1513TIP3   OH225953   1.775   3.461  15.800 -0.1880 -0.1977  0.7448
 1513TIP3    H125954   1.684   3.432  15.798 -0.7555  1.3902  1.6045
 1513TIP3    H225955   1.784   3.521  15.727 -0.0236  0.1611  1.0538
 1514TIP3   OH225956   2.709   0.151  15.932 -0.9160  0.6607 -0.0571
 1514TIP3    H125957   2.644   0.178  15.868 -0.3596  1.0849 -0.4481
 1514TIP3    H225958   2.746   0.233  15.965  1.6842  0.4682 -2.1665
 1515TIP3   OH225959   6.644   1.588   1.635  0.0158 -0.5898 -0.1370
 1515TIP3    H125960   6.715   1.548   1.585  1.4118  2.4031 -0.8325
 1515TIP3    H225961   6.599   1.645   1.572 -0.3232  0.7169  1.2060
 1516TIP3   OH225962   4.844   6.443   2.143 -0.4748 -0.2501  0.5671
 1516TIP3    H125963   4.908   6.496   2.095  0.4754 -0.6206  1.3983
 1516TIP3    H225964   4.889   6.360   2.159 -1.6426 -1.0074  0.0238
 1517TIP3   OH225965   4.113   2.531  15.150 -1.1059  0.2718 -0.5549
 1517TIP3    H125966   4.191   2.487  15.185 -1.3684 -0.0252 -0.3360
 1517TIP3    H225967   4.137   2.557  15.061 -0.7018  0.3253 -0.4297
 1518TIP3   OH225968   2.652   6.346   3.457 -0.0152  0.6543  0.3136
 1518TIP3    H125969   2.600   6.422   3.431  0.9683  1.0727 -0.4568
 1518TIP3    H225970   2.714   6.333   3.386  0.7086 -0.0580  1.0560
 1519TIP3   OH225971   6.353   3.521  16.801  0.3596 -0.0929  0.7076
 1519TIP3    H125972   6.330   3.611  16.778 -0.1840 -0.4136 -0.0521
 1519TIP3    H225973   6.297   3.467  16.745  1.7637 -0.9001  0.0328
 1520TIP3   OH225974   6.060   1.151  12.464  0.3298 -0.3491  0.9926
 1520TIP3    H125975   6.121   1.142  12.538  1.7978 -0.7143 -0.2253
 1520TIP3    H225976   6.087   1.083  12.402 -1.9726 -1.2070  0.8154
 1521TIP3   OH225977   1.766   0.019   4.166  0.9415  0.4528  0.0886
 1521TIP3    H125978   1.746  -0.018   4.252  3.0722  0.6332  0.7247
 1521TIP3    H225979   1.841  -0.032   4.135  0.5400  0.7497 -1.4234
 1522TIP3   OH225980   6.137   5.789  13.141 -0.2673 -0.3355 -0.4353
 1522TIP3    H125981   6.066   5.774  13.078  0.0556 -4.8064 -0.0083
 1522TIP3    H225982   6.216   5.759  13.096  0.6069  0.0522  0.8026
 1523TIP3   OH225983   5.433   4.847  14.270 -0.4335  0.2525 -0.3991
 1523TIP3    H125984   5.450   4.864  14.177  0.5771  1.3711 -0.0408
 1523TIP3    H225985   5.355   4.898  14.290 -1.0103 -0.4633 -0.7489
 1524TIP3   OH225986   0.191   6.179  11.495 -0.1958  0.3165 -0.1458
 1524TIP3    H125987   0.195   6.206  11.404  1.8865 -0.9414 -0.4744
 1524TIP3    H225988   0.097   6.180  11.516 -0.6012  2.2597 -1.7517
 1525TIP3   OH225989   1.315   2.001   4.903 -0.0125  0.3221 -0.4617
 1525TIP3    H125990   1.300   2.085   4.860  0.9761  1.5929  1.5134
 1525TIP3    H225991   1.406   1.980   4.884 -0.5733 -1.0163 -1.9826
 1526TIP3   OH225992   4.180   5.576  13.393  0.2646 -0.0940 -0.3185
 1526TIP3    H125993   4.192   5.671  13.384 -1.0219  0.1321  0.1165
 1526TIP3    H225994   4.267   5.543  13.414  0.9162  0.8688 -1.3538
 1527TIP3   OH225995   4.232   4.338  14.417 -0.1155 -0.5688 -0.4874
 1527TIP3    H125996   4.221   4.252  14.458 -0.9351 -0.1530  0.1891
 1527TIP3    H225997   4.153   4.386  14.441  1.6078  1.4139  1.7186
 1528TIP3   OH225998   3.773   6.744  11.302 -0.0589 -0.0762 -0.0105
 1528TIP3    H125999   3.768   6.725  11.209  0.2289 -1.6818  0.2776
 1528TIP3    H226000   3.860   6.716  11.328 -0.6885 -1.1804  1.0348
 1529TIP3   OH226001   0.920   0.641  16.241  0.2501  0.2960  0.0654
 1529TIP3    H126002   0.860   0.699  16.194  1.8766  1.3037 -0.8618
 1529TIP3    H226003   0.877   0.555  16.240 -1.2084  1.0081 -0.4508
 1530TIP3   OH226004   3.119   2.465   1.998  0.0649  0.5478 -0.0781
 1530TIP3    H126005   3.044   2.514   1.964  1.2642  2.0451 -0.7242
 1530TIP3    H226006   3.159   2.524   2.062  1.6526  0.5558 -1.0080
 1531TIP3   OH226007   3.663   1.048   0.414 -0.1606 -0.3034  0.2639
 1531TIP3    H126008   3.614   1.020   0.337 -0.1064 -2.6628  1.0066
 1531TIP3    H226009   3.714   1.124   0.384  0.5918 -1.7106 -2.2858
 1532TIP3   OH226010   3.726   5.290  17.213 -0.0882 -0.1756  0.2624
 1532TIP3    H126011   3.684   5.368  17.250 -0.7837  0.6118 -2.0162
 1532TIP3    H226012   3.695   5.218  17.268  0.4292  1.0842  2.3129
 1533TIP3   OH226013   4.409   5.743   0.798 -0.0165 -0.0280 -0.3308
 1533TIP3    H126014   4.492   5.697   0.794 -0.3531 -0.5591 -1.8337
 1533TIP3    H226015   4.400   5.784   0.712 -1.3803 -0.1479 -0.2690
 1534TIP3   OH226016   1.249   4.846  12.967  0.1001 -0.0024  0.1366
 1534TIP3    H126017   1.299   4.873  12.890  0.7185 -0.5559  0.3308
 1534TIP3    H226018   1.201   4.924  12.993  0.0426  0.2437 -0.6911
 1535TIP3   OH226019   4.180   0.060   2.370  0.0170  0.8391  0.7627
 1535TIP3    H126020   4.270   0.054   2.403  0.1567  4.6856  1.6075
 1535TIP3    H226021   4.189   0.105   2.286 -1.0515 -0.1839  0.0751
 1536TIP3   OH226022   6.004   4.834  16.101  0.2488  0.2646  0.1599
 1536TIP3    H126023   5.964   4.889  16.033 -0.3778 -2.0370 -1.4770
 1536TIP3    H226024   6.016   4.892  16.176 -1.9730  2.1628 -0.8492
 1537TIP3   OH226025   2.839   1.625   1.110 -0.2363 -0.1048 -0.5230
 1537TIP3    H126026   2.767   1.667   1.156  0.1380  1.7007 -1.5079
 1537TIP3    H226027   2.822   1.531   1.120 -0.8025  0.2048  2.1997
 1538TIP3   OH226028   6.469   3.586   5.027  0.4377  0.3464  0.2204
 1538TIP3    H126029   6.482   3.501   4.986 -2.8953 -0.9085  1.4587
 1538TIP3    H226030   6.500   3.649   4.962 -0.4570 -1.6588 -2.3231
 1539TIP3   OH226031   4.143   0.454  16.486 -0.7919  0.3608 -0.3359
 1539TIP3    H126032   4.103   0.377  16.447 -2.9127  2.0295 -1.6562
 1539TIP3    H226033   4.073   0.495  16.536  0.4335  1.1961  0.7759
 1540TIP3   OH226034   0.664   5.205  16.361 -0.8942  0.2614 -0.9092
 1540TIP3    H126035   0.680   5.127  16.308  1.9761 -0.8310  1.2985
 1540TIP3    H226036   0.705   5.276  16.311  0.1903 -0.4198 -1.0159
 1541TIP3   OH226037   4.118   3.468   1.067 -0.2463 -0.4295 -0.1909
 1541TIP3    H126038   4.111   3.436   1.157 -0.6060  0.0265 -0.0562
 1541TIP3    H226039   4.088   3.394   1.014 -0.4906 -0.5360  0.0879
 1542TIP3   OH226040   0.649   3.407   0.404 -0.2369  0.2221  0.5053
 1542TIP3    H126041   0.639   3.469   0.332 -0.0124  0.2465  0.4929
 1542TIP3    H226042   0.671   3.461   0.480 -0.5187  0.2006  0.6040
 1543TIP3   OH226043   2.822   0.908   3.604 -0.1058  0.4058  0.4870
 1543TIP3    H126044   2.819   0.836   3.667 -0.3943 -1.0643 -1.1546
 1543TIP3    H226045   2.733   0.913   3.569  0.3916  0.2676 -0.8215
 1544TIP3   OH226046   5.380   0.929  15.306 -0.4266 -0.1540  0.3986
 1544TIP3    H126047   5.386   0.837  15.333  0.0262 -0.0974  0.4951
 1544TIP3    H226048   5.434   0.934  15.227  1.0692  0.4112  1.4164
 1545TIP3   OH226049   6.251   2.099  15.744  0.2826 -0.0759  0.1654
 1545TIP3    H126050   6.249   2.187  15.780  2.4281 -0.6626  1.9046
 1545TIP3    H226051   6.170   2.092  15.693 -0.7437  2.3060  1.3253
 1546TIP3   OH226052   2.552   1.337   2.460  0.0697 -0.3895 -0.2544
 1546TIP3    H126053   2.528   1.316   2.370 -1.4998 -0.3097  0.1264
 1546TIP3    H226054   2.598   1.421   2.454 -0.3826 -0.1883 -0.9307
 1547TIP3   OH226055   4.856   1.749   3.000 -0.3641  1.0057  0.3432
 1547TIP3    H126056   4.922   1.791   3.055  0.3742  1.3137 -0.7442
 1547TIP3    H226057   4.875   1.656   3.005  1.1883  1.1812 -1.1788
 1548TIP3   OH226058   2.239   5.378  10.662  0.2940 -0.1511 -0.0845
 1548TIP3    H126059   2.250   5.451  10.602  2.3005 -1.4650 -1.4287
 1548TIP3    H226060   2.153   5.392  10.702 -0.0733  2.0271 -1.5051
 1549TIP3   OH226061   0.527   0.817  13.870 -0.3940  0.3415 -0.9592
 1549TIP3    H126062   0.569   0.838  13.954 -0.6378  0.2110 -0.8029
 1549TIP3    H226063   0.599   0.794  13.812 -0.2215  0.4541 -0.7909
 1550TIP3   OH226064   5.109   0.470  13.885 -0.4924 -0.0312 -0.0241
 1550TIP3    H126065   5.117   0.564  13.869  0.4539 -0.3302 -1.4546
 1550TIP3    H226066   5.199   0.437  13.883 -0.2438 -0.4029  4.7770
 1551TIP3   OH226067   2.585   4.892  14.543 -0.3804  0.1263 -1.2873
 1551TIP3    H126068   2.659   4.849  14.500  1.2422  1.9730 -0.5086
 1551TIP3    H226069   2.590   4.863  14.634  0.5456  1.6329 -0.8251
 1552TIP3   OH226070   1.046   6.429   1.523  0.2265 -0.0254 -0.0178
 1552TIP3    H126071   1.106   6.376   1.470 -1.5407 -1.2515 -0.8663
 1552TIP3    H226072   1.044   6.514   1.479  1.8201  0.2637  0.4070
 1553TIP3   OH226073   4.059   1.538   4.653  0.3081 -0.0490 -0.0102
 1553TIP3    H126074   4.111   1.603   4.701  0.5328 -0.2082 -0.0366
 1553TIP3    H226075   4.120   1.502   4.589 -0.6505  2.1000 -2.3147
 1554TIP3   OH226076   2.832   2.696   4.182  0.3979 -0.0165 -0.0018
 1554TIP3    H126077   2.761   2.721   4.124 -0.4148 -0.5606  0.7351
 1554TIP3    H226078   2.819   2.749   4.261  0.9004 -0.0104  0.0827
 1555TIP3   OH226079   0.461   0.550   6.147  0.1673  0.1586 -0.6548
 1555TIP3    H126080   0.550   0.576   6.122 -0.0443  1.0169 -0.5575
 1555TIP3    H226081   0.472   0.499   6.227  0.6883 -0.9725 -1.4210
 1556TIP3   OH226082   3.029   5.451   1.044 -0.1414  0.2650  0.2041
 1556TIP3    H126083   3.037   5.366   1.088 -1.9908 -1.1003 -1.8515
 1556TIP3    H226084   3.072   5.439   0.960 -2.5622  0.4409 -1.1620
 1557TIP3   OH226085   0.760   4.039   1.293  0.1268  0.1896 -0.4967
 1557TIP3    H126086   0.665   4.043   1.281 -0.2996 -0.5343  1.9803
 1557TIP3    H226087   0.783   4.126   1.327  0.1180 -0.0483  0.1299
 1558TIP3   OH226088   1.430   3.634   0.537  0.5294  0.2203 -0.8904
 1558TIP3    H126089   1.524   3.621   0.543  0.4743 -0.4243 -1.3059
 1558TIP3    H226090   1.392   3.555   0.575  0.1745 -0.2025 -2.0824
 1559TIP3   OH226091   6.570   4.851  11.120  0.0050 -0.1010 -0.7148
 1559TIP3    H126092   6.652   4.879  11.081  0.3128  0.4446  0.2826
 1559TIP3    H226093   6.552   4.765  11.081  1.3039 -0.4528 -0.5709
 1560TIP3   OH226094   0.102   4.798  13.938 -0.2333  0.7747 -0.0867
 1560TIP3    H126095   0.065   4.869  13.885 -0.2756  0.4772 -0.4603
 1560TIP3    H226096   0.026   4.751  13.971 -0.1962  0.0012 -1.0745
 1561TIP3   OH226097   3.588   5.711  15.632 -0.4943 -0.3254 -0.7546
 1561TIP3    H126098   3.542   5.776  15.580  0.4308  1.1238  0.1525
 1561TIP3    H226099   3.582   5.743  15.722 -0.9886 -2.1033 -0.1036
 1562TIP3   OH226100   3.177   2.200  16.511 -0.1083 -0.0885 -0.0437
 1562TIP3    H126101   3.110   2.197  16.443 -0.6585  0.8629  0.4504
 1562TIP3    H226102   3.130   2.223  16.591  0.6659 -0.3526  0.5004
 1563TIP3   OH226103   1.043   5.310  16.204 -0.2603  0.3613  0.1349
 1563TIP3    H126104   0.959   5.332  16.245  0.4624  2.7206  0.5076
 1563TIP3    H226105   1.027   5.226  16.161 -2.8234  0.7234  0.1868
 1564TIP3   OH226106   5.308   6.641  10.530 -0.0786  0.0877 -0.9022
 1564TIP3    H126107   5.305   6.660  10.624  2.1618 -2.5634 -0.1600
 1564TIP3    H226108   5.317   6.546  10.525  1.3555  0.2703 -3.7402
 1565TIP3   OH226109   4.552   4.563  12.467 -1.0944  0.0886 -0.6897
 1565TIP3    H126110   4.469   4.568  12.421 -1.0545  0.8653 -0.6910
 1565TIP3    H226111   4.541   4.490  12.528 -1.4564 -0.3789 -1.3126
 1566TIP3   OH226112   3.499   1.408  12.356  0.4342  0.4742  0.2456
 1566TIP3    H126113   3.533   1.320  12.369  1.1075  0.7781  0.5885
 1566TIP3    H226114   3.530   1.433  12.269 -1.2502 -0.2837 -0.6211
 1567TIP3   OH226115   5.120   3.239  14.083 -0.0064 -0.2254  0.3354
 1567TIP3    H126116   5.196   3.204  14.037 -0.8443 -0.9415 -0.5377
 1567TIP3    H226117   5.079   3.162  14.122 -0.7760  0.0370  0.0546
 1568TIP3   OH226118   0.409   0.967   0.007  0.2220  0.0994  1.0653
 1568TIP3    H126119   0.467   1.015   0.067 -1.3116  1.4627  1.5295
 1568TIP3    H226120   0.407   1.021  -0.072 -0.8857  0.4247  1.2944
 1569TIP3   OH226121   3.838   5.511  15.743  0.3973  0.7940 -0.4297
 1569TIP3    H126122   3.816   5.495  15.651  0.2725 -1.5350 -0.0713
 1569TIP3    H226123   3.853   5.423  15.779 -1.3297  1.4574  2.2195
 1570TIP3   OH226124   4.594   4.425   0.886  0.5254  0.2984  0.0640
 1570TIP3    H126125   4.667   4.363   0.879 -0.3569 -0.5882 -2.0011
 1570TIP3    H226126   4.539   4.389   0.956  0.2686 -1.0236 -0.7773
 1571TIP3   OH226127   3.353   3.750  13.186  0.0413  0.2085  0.3794
 1571TIP3    H126128   3.299   3.827  13.202 -1.9388 -1.3523  1.7758
 1571TIP3    H226129   3.435   3.785  13.152 -0.5595  2.9438  1.4617
 1572TIP3   OH226130   3.541   5.674   5.402 -0.2317 -0.3876 -0.4830
 1572TIP3    H126131   3.515   5.723   5.325 -0.3766 -1.8989 -1.4431
 1572TIP3    H226132   3.531   5.582   5.377  1.7789 -0.9807  0.5957
 1573TIP3   OH226133   1.548   0.104   1.381  0.1464 -0.2142  0.1994
 1573TIP3    H126134   1.534   0.031   1.321  0.3512 -0.4299  0.4089
 1573TIP3    H226135   1.462   0.122   1.418  0.1153 -0.4300  0.2338
 1574TIP3   OH226136   5.421   1.526   3.554 -0.4790  0.1893  0.1407
 1574TIP3    H126137   5.404   1.433   3.542 -0.8692 -0.0134  1.9488
 1574TIP3    H226138   5.335   1.568   3.543 -0.3764  0.2819 -0.2901
 1575TIP3   OH226139   6.432   6.617   1.315 -0.2904  0.1020 -0.5384
 1575TIP3    H126140   6.390   6.580   1.393 -0.3271  1.6955  0.2616
 1575TIP3    H226141   6.402   6.708   1.314  0.2779  0.2907 -2.0316
 1576TIP3   OH226142   3.898   6.408   2.222 -0.9033 -0.1246  0.3750
 1576TIP3    H126143   3.873   6.491   2.181  0.2744 -0.2094 -0.5530
 1576TIP3    H226144   3.867   6.341   2.162  1.9194 -0.2222 -1.1302
 1577TIP3   OH226145   5.450   5.987  16.547  0.0749  0.1432  0.1325
 1577TIP3    H126146   5.440   6.076  16.512  0.6364  0.0248 -0.3367
 1577TIP3    H226147   5.415   5.992  16.636 -0.7734  0.6096 -0.2159
 1578TIP3   OH226148   4.628   5.645   1.575 -0.4601  0.0693 -0.0235
 1578TIP3    H126149   4.589   5.684   1.497 -0.7723 -0.6599 -0.2482
 1578TIP3    H226150   4.640   5.717   1.636  0.1344  0.7250 -0.8837
 1579TIP3   OH226151   1.201   2.166  14.230  0.5396  0.5948  0.2782
 1579TIP3    H126152   1.263   2.235  14.207 -1.0046  1.9650  0.0875
 1579TIP3    H226153   1.181   2.181  14.323 -0.4947  0.9912  0.0036
 1580TIP3   OH226154   2.662   0.820  13.634  0.2633  0.0270  0.2575
 1580TIP3    H126155   2.733   0.793  13.575  0.3638 -1.2185  0.9043
 1580TIP3    H226156   2.582   0.811  13.582  0.3944 -0.5884  0.1609
 1581TIP3   OH226157   4.590   3.067  12.173  0.1030 -0.0883  0.2672
 1581TIP3    H126158   4.570   3.144  12.226 -1.5180 -1.7036  2.1285
 1581TIP3    H226159   4.518   3.063  12.109 -0.7252 -0.8884  1.2063
 1582TIP3   OH226160   0.885   5.120   2.834  0.8819  0.3337 -0.7570
 1582TIP3    H126161   0.876   5.048   2.771  1.6483  0.8884 -1.5127
 1582TIP3    H226162   0.796   5.132   2.868  1.1037 -2.6625  1.3099
 1583TIP3   OH226163   1.536   2.893  10.555  0.0187  0.5682  0.3490
 1583TIP3    H126164   1.447   2.928  10.546 -0.0052  0.3334 -0.4391
 1583TIP3    H226165   1.564   2.876  10.465  0.5285 -0.1942  0.6410
 1584TIP3   OH226166   0.696   4.144  13.092  0.3025  0.6377 -0.1872
 1584TIP3    H126167   0.612   4.177  13.126  0.7743  0.7153  0.9681
 1584TIP3    H226168   0.688   4.049  13.096 -0.9142  0.5052 -3.1563
 1585TIP3   OH226169   2.701   5.548   5.466  0.0583 -0.2914  0.1572
 1585TIP3    H126170   2.745   5.557   5.381 -0.5610  1.8821  0.0127
 1585TIP3    H226171   2.687   5.638   5.495  0.6265 -0.9879  2.7903
 1586TIP3   OH226172   0.260   6.746  10.763 -0.2331  0.0435  0.6161
 1586TIP3    H126173   0.341   6.696  10.754 -0.3545  0.1684 -1.9441
 1586TIP3    H226174   0.283   6.834  10.731 -0.6028  1.0170  2.8762
 1587TIP3   OH226175   0.320   3.197   2.277 -0.1480 -0.0070  0.1179
 1587TIP3    H126176   0.390   3.262   2.272 -1.0788  1.0307  0.1060
 1587TIP3    H226177   0.249   3.234   2.224 -0.6809 -1.0595  0.0732
 1588TIP3   OH226178   3.198   6.154   6.702 -0.4352  0.4824  0.0017
 1588TIP3    H126179   3.184   6.070   6.659 -0.3782  1.7293 -2.6935
 1588TIP3    H226180   3.293   6.162   6.710 -0.4623 -0.8920  3.0466
 1589TIP3   OH226181   3.626   4.241  13.868  0.3321  0.2113 -0.1373
 1589TIP3    H126182   3.581   4.163  13.903 -0.1199  0.7472  0.4988
 1589TIP3    H226183   3.664   4.283  13.945 -1.2872  1.8053 -0.1573
 1590TIP3   OH226184   4.478   5.002  12.661 -0.3003 -0.5574 -0.2669
 1590TIP3    H126185   4.541   4.982  12.591  0.9826 -1.5241  1.0805
 1590TIP3    H226186   4.486   4.927  12.721 -1.7449 -0.0077  0.6408
 1591TIP3   OH226187   2.304   2.780  12.100 -0.4223 -0.0474 -0.2999
 1591TIP3    H126188   2.246   2.803  12.027 -0.7253  0.7793  0.1849
 1591TIP3    H226189   2.263   2.704  12.140 -1.8308  1.1911  0.7241
 1592TIP3   OH226190   0.505   5.265  15.292 -0.7017  0.1199  0.5102
 1592TIP3    H126191   0.590   5.227  15.271 -0.1974  0.4807  1.8251
 1592TIP3    H226192   0.472   5.211  15.364 -0.3438  1.6390  1.8572
 1593TIP3   OH226193   1.160   6.061  14.845  0.4845  0.6122  0.5281
 1593TIP3    H126194   1.092   6.090  14.906 -1.4245 -1.0322 -0.7220
 1593TIP3    H226195   1.151   5.966  14.843  2.6337  0.3775  0.0409
 1594TIP3   OH226196   2.216   3.502   2.195  0.0794 -0.2995 -0.4077
 1594TIP3    H126197   2.260   3.464   2.272 -0.8613 -0.5394  0.0268
 1594TIP3    H226198   2.284   3.502   2.127  1.5898  1.9047  0.9792
 1595TIP3   OH226199   5.360   4.646   3.417 -0.1150 -0.2420  0.0953
 1595TIP3    H126200   5.435   4.691   3.378  0.1358 -1.3220 -0.7196
 1595TIP3    H226201   5.286   4.705   3.403  0.6451  1.0928  1.3981
 1596TIP3   OH226202   5.659   5.587  16.343  0.0445 -0.2010 -0.3261
 1596TIP3    H126203   5.682   5.498  16.369  1.1063 -0.1831 -1.1178
 1596TIP3    H226204   5.611   5.623  16.417 -0.0398 -1.2928  0.1646
 1597TIP3   OH226205   2.085   0.052  12.214 -0.1411  0.2629 -0.3924
 1597TIP3    H126206   2.146   0.123  12.197 -1.1948  1.5049  0.7335
 1597TIP3    H226207   2.140  -0.024  12.233  1.1223  1.5918  1.6561
 1598TIP3   OH226208   3.200   6.712   3.422  0.4006  0.7269  0.0283
 1598TIP3    H126209   3.292   6.738   3.417 -0.0850  2.3143 -1.6480
 1598TIP3    H226210   3.192   6.637   3.364  0.7469  0.2109  0.6432
 1599TIP3   OH226211   4.816   3.542   3.495 -0.2448  0.4527  0.3078
 1599TIP3    H126212   4.784   3.565   3.408 -0.8320 -1.2413  0.0413
 1599TIP3    H226213   4.857   3.456   3.484  1.8745  1.2632  1.2359
 1600TIP3   OH226214   4.160   6.673  13.004 -0.0325 -0.0456 -1.1219
 1600TIP3    H126215   4.065   6.685  12.995 -0.3629 -0.9794  0.6356
 1600TIP3    H226216   4.173   6.580  12.990  0.1315 -0.5403  1.6799
 1601TIP3   OH226217   2.226   6.569  12.198 -0.4580 -0.2807 -0.6633
 1601TIP3    H126218   2.292   6.636  12.178 -1.0622  0.5204 -0.0361
 1601TIP3    H226219   2.246   6.497  12.138  2.4121 -1.0080  0.9524
 1602TIP3   OH226220   0.652   6.125   5.472  0.0850 -0.3938 -0.3093
 1602TIP3    H126221   0.577   6.139   5.415  0.7759  0.1937 -1.0990
 1602TIP3    H226222   0.630   6.171   5.553 -0.6142 -0.6653 -0.3375
 1603TIP3   OH226223   3.922   6.480  13.989 -0.0397 -0.5488  0.4538
 1603TIP3    H126224   4.013   6.470  13.962  0.1208 -1.0979  1.1599
 1603TIP3    H226225   3.873   6.420  13.933  0.0654 -0.4245  0.2299
 1604TIP3   OH226226   4.556   5.385   1.762 -0.2930  0.1662  0.5130
 1604TIP3    H126227   4.517   5.360   1.679  0.6624  3.2037 -1.0242
 1604TIP3    H226228   4.484   5.421   1.813 -0.5352  0.3745  0.0348
 1605TIP3   OH226229   6.303   0.070   1.427  0.1937  0.3298 -0.3903
 1605TIP3    H126230   6.244   0.132   1.469  0.1428 -0.0650  0.1443
 1605TIP3    H226231   6.373   0.057   1.491 -0.3439 -0.9704 -0.0117
 1606TIP3   OH226232   6.530   0.300  15.463  0.0961  0.3558 -0.0543
 1606TIP3    H126233   6.467   0.356  15.508 -0.4933 -0.2575 -0.1089
 1606TIP3    H226234   6.488   0.277  15.380 -0.5056 -1.7198  0.7772
 1607TIP3   OH226235   1.968   4.251  14.064  0.2008 -0.4943 -0.0744
 1607TIP3    H126236   2.041   4.196  14.089  0.9900  0.0706 -1.0774
 1607TIP3    H226237   1.942   4.220  13.977  2.6157  2.4866 -2.0951
 1608TIP3   OH226238   4.587   2.750   1.962 -0.5362 -0.1896 -0.1463
 1608TIP3    H126239   4.566   2.819   2.025 -1.9154  0.0303 -0.8320
 1608TIP3    H226240   4.620   2.678   2.017  0.1449  0.6857  0.6423
 1609TIP3   OH226241   1.167   0.964  16.839  0.1198 -0.1792  0.2222
 1609TIP3    H126242   1.110   0.897  16.800 -0.0176  0.8792 -1.5068
 1609TIP3    H226243   1.130   1.047  16.809  0.8430  0.6572  1.5441
 1610TIP3   OH226244   1.249   6.738   5.078  0.0959  0.3363 -0.3464
 1610TIP3    H126245   1.164   6.770   5.108 -0.8580 -1.6179 -0.7648
 1610TIP3    H226246   1.228   6.657   5.030  2.3201 -1.1318  0.9911
 1611TIP3   OH226247   0.572   1.174  13.817 -0.3094 -0.1039 -0.2579
 1611TIP3    H126248   0.589   1.236  13.745  1.4237 -0.4571 -0.1924
 1611TIP3    H226249   0.646   1.113  13.814 -1.5500 -1.7004  0.2104
 1612TIP3   OH226250   2.081   5.449  15.410  0.1748 -0.2218 -0.1468
 1612TIP3    H126251   2.101   5.541  15.390  2.3423 -0.9845 -1.9840
 1612TIP3    H226252   2.076   5.446  15.506 -0.8756  1.9327 -0.0667
 1613TIP3   OH226253   6.130   0.700   5.154 -0.2931  0.7930  0.7140
 1613TIP3    H126254   6.160   0.783   5.118 -1.1084  0.5187 -0.7291
 1613TIP3    H226255   6.140   0.708   5.248  1.9131  1.5993  0.4599
 1614TIP3   OH226256   4.715   5.462  13.098 -0.1506  0.0548 -0.1634
 1614TIP3    H126257   4.734   5.546  13.141  0.3160 -0.8252  1.4389
 1614TIP3    H226258   4.625   5.471  13.067 -1.0554  0.2780  2.3130
 1615TIP3   OH226259   5.284   5.369   5.162 -0.6402  0.5958  0.7822
 1615TIP3    H126260   5.324   5.322   5.235 -0.5360  0.1052  0.4058
 1615TIP3    H226261   5.221   5.428   5.204 -0.8194  0.0798  1.2473
 1616TIP3   OH226262   4.140   6.296   6.293  0.2430  0.5519 -0.0452
 1616TIP3    H126263   4.227   6.295   6.333  1.1136 -0.6812 -1.8080
 1616TIP3    H226264   4.154   6.336   6.206 -0.5273 -1.3943 -1.1290
 1617TIP3   OH226265   5.329   1.252   4.942 -0.5826  0.6057  0.1781
 1617TIP3    H126266   5.407   1.204   4.969 -0.5932  0.1225 -0.6296
 1617TIP3    H226267   5.355   1.297   4.862 -0.6202  1.8435  0.8372
 1618TIP3   OH226268   2.721   0.390  15.481 -0.0308  0.0291  0.2347
 1618TIP3    H126269   2.745   0.463  15.424  1.0040  0.1408  0.7789
 1618TIP3    H226270   2.667   0.429  15.549  1.4576  0.5436  1.1748
 1619TIP3   OH226271   0.421   3.082  13.846  0.0621 -0.6022 -0.0420
 1619TIP3    H126272   0.510   3.057  13.821  0.8613 -0.0576  2.0429
 1619TIP3    H226273   0.375   3.094  13.762  1.8084 -1.3360 -1.1583
 1620TIP3   OH226274   2.895   0.682  13.212 -0.1029  0.5390 -0.4658
 1620TIP3    H126275   2.919   0.612  13.151  2.3863  0.2727  0.6676
 1620TIP3    H226276   2.801   0.673  13.223  0.1210 -2.7718 -0.2460
 1621TIP3   OH226277   5.698   0.018  17.092 -0.5417 -0.4864  0.2530
 1621TIP3    H126278   5.772   0.034  17.151 -0.5389 -1.6125  0.5883
 1621TIP3    H226279   5.641   0.094  17.103  1.1366  1.0206 -0.9415
 1622TIP3   OH226280   4.310   2.575  12.494 -0.1499  0.1674 -0.5063
 1622TIP3    H126281   4.368   2.601  12.566  0.0332  1.8683 -1.2119
 1622TIP3    H226282   4.251   2.511  12.533  2.1455 -1.6093  0.2300
 1623TIP3   OH226283   2.992   2.026  15.492  0.1080  0.1741  0.4774
 1623TIP3    H126284   2.962   1.989  15.575 -0.9784 -0.3529 -0.1364
 1623TIP3    H226285   3.002   2.120  15.510 -0.5839  0.1444  1.0692
 1624TIP3   OH226286   4.405   4.435  12.249 -0.4465 -0.0954 -0.2525
 1624TIP3    H126287   4.390   4.442  12.155 -1.0091  0.3729 -0.1350
 1624TIP3    H226288   4.363   4.353  12.275 -1.4716  0.4384 -0.1897
 1625TIP3   OH226289   3.882   0.937   1.365  0.3485 -0.0831 -0.0803
 1625TIP3    H126290   3.805   0.986   1.337 -1.2592 -1.2938  1.9565
 1625TIP3    H226291   3.858   0.845   1.350  1.3061 -0.4848  0.7697
 1626TIP3   OH226292   3.737   4.745  15.084 -0.3299  0.1208 -0.7789
 1626TIP3    H126293   3.650   4.729  15.121  0.7000  0.1808  1.8632
 1626TIP3    H226294   3.788   4.668  15.110  1.5278  2.0464  1.6723
 1627TIP3   OH226295   2.753   0.780   0.473  0.3460 -0.2273  0.1665
 1627TIP3    H126296   2.682   0.733   0.516  0.2991 -0.4108 -0.1064
 1627TIP3    H226297   2.771   0.729   0.394  1.2333 -0.5533  0.5689
 1628TIP3   OH226298   2.602   6.652  14.212  0.2367  0.5020  0.0087
 1628TIP3    H126299   2.622   6.558  14.207  1.5266  0.5600  2.6256
 1628TIP3    H226300   2.679   6.695  14.176  0.0382  0.5859 -0.3211
 1629TIP3   OH226301   5.735   3.309   5.292 -0.3711 -0.1791 -0.0247
 1629TIP3    H126302   5.683   3.288   5.369 -0.7141  1.3268  0.1769
 1629TIP3    H226303   5.678   3.364   5.239  0.3216 -0.1481 -0.7555
 1630TIP3   OH226304   5.185   0.933   4.618  0.6316 -0.0270  0.0745
 1630TIP3    H126305   5.168   0.903   4.707 -1.2430  0.3551 -0.1069
 1630TIP3    H226306   5.179   1.028   4.624  1.9549  0.0815 -0.2011
 1631TIP3   OH226307   2.319   3.774  16.514  0.7024 -0.8024 -0.7735
 1631TIP3    H126308   2.267   3.705  16.555  1.0503 -0.4997  0.2048
 1631TIP3    H226309   2.374   3.728  16.450 -0.2778 -1.2017 -1.3592
 1632TIP3   OH226310   0.352   0.513   5.901 -0.1345  0.2958 -0.6378
 1632TIP3    H126311   0.258   0.507   5.918 -0.5753  2.6057 -1.8757
 1632TIP3    H226312   0.390   0.534   5.986 -0.6556 -0.9438 -0.0630
 1633TIP3   OH226313   0.851   4.368   0.545 -0.2273 -0.8021 -0.3103
 1633TIP3    H126314   0.880   4.278   0.527 -0.7549 -0.8071 -1.1721
 1633TIP3    H226315   0.868   4.380   0.639  0.1920 -1.6723 -0.2647
 1634TIP3   OH226316   0.820   6.679  12.061  0.4114  0.0805  0.0523
 1634TIP3    H126317   0.823   6.688  12.157  0.2268 -1.3423  0.2103
 1634TIP3    H226318   0.780   6.594  12.046  2.8721 -0.9517 -1.2292
 1635TIP3   OH226319   2.991   2.201   3.271  0.3572 -0.0464  0.3111
 1635TIP3    H126320   2.963   2.150   3.195  0.7022 -0.3631  0.3936
 1635TIP3    H226321   2.919   2.193   3.334 -0.0814  0.5023 -0.1134
 1636TIP3   OH226322   0.224   4.437  11.330 -0.2112 -0.4314  0.5279
 1636TIP3    H126323   0.214   4.360  11.274 -0.9117 -0.4914  0.7284
 1636TIP3    H226324   0.179   4.507  11.284 -0.3016 -0.3419  0.7488
 1637TIP3   OH226325   3.048   5.115  17.227 -0.2785  0.6115 -0.1402
 1637TIP3    H126326   3.095   5.104  17.309  0.9241 -1.0828 -0.9992
 1637TIP3    H226327   3.115   5.136  17.162 -0.7202 -1.1703 -1.2569
 1638TIP3   OH226328   4.136   1.477  12.047 -0.0315  0.3055 -0.3012
 1638TIP3    H126329   4.134   1.555  11.993  1.4528  0.1126 -0.6830
 1638TIP3    H226330   4.156   1.406  11.986 -2.0474 -0.5342 -0.0843
 1639TIP3   OH226331   6.501   4.744  11.625 -0.2160 -0.0616 -0.3193
 1639TIP3    H126332   6.579   4.773  11.579 -0.8860  0.8274 -0.9314
 1639TIP3    H226333   6.435   4.811  11.605 -0.3048  0.8824  2.6194
 1640TIP3   OH226334   1.869   6.097   0.092 -0.2078 -0.8014 -0.7465
 1640TIP3    H126335   1.930   6.070   0.162  1.7843 -1.2671 -2.5463
 1640TIP3    H226336   1.918   6.162   0.042 -2.3794  1.0753 -0.5778
 1641TIP3   OH226337   5.790   1.657  15.742 -0.5672  0.3387 -0.1456
 1641TIP3    H126338   5.778   1.564  15.725 -2.1474  0.4566  0.1707
 1641TIP3    H226339   5.869   1.680  15.693  2.0406 -1.8690  2.6306
 1642TIP3   OH226340   4.658   2.102   5.304  0.7999 -0.0168 -0.1782
 1642TIP3    H126341   4.742   2.101   5.258  1.1824  2.2886  0.3316
 1642TIP3    H226342   4.677   2.066   5.391  1.6260  1.6458  0.3824
 1643TIP3   OH226343   4.617   2.318   4.419 -0.1157  0.4943  0.4878
 1643TIP3    H126344   4.552   2.334   4.351 -0.8754 -0.3948  0.9830
 1643TIP3    H226345   4.685   2.265   4.376 -0.7277 -0.3002  0.4837
 1644TIP3   OH226346   6.072   5.585  13.998  0.2328 -0.7208  0.4942
 1644TIP3    H126347   6.140   5.569  14.064  0.4435 -0.8084  0.2577
 1644TIP3    H226348   6.074   5.506  13.943  0.9619 -0.0897 -0.4127
 1645TIP3   OH226349   3.113   3.488  10.641 -0.4222 -0.2081  0.2780
 1645TIP3    H126350   3.148   3.576  10.648 -1.7681  0.4396 -0.7427
 1645TIP3    H226351   3.123   3.465  10.548 -1.3067 -0.5921  0.2675
 1646TIP3   OH226352   5.081   5.235   5.953 -0.0959 -0.0771 -0.3754
 1646TIP3    H126353   5.102   5.305   5.891  0.0174 -0.3770 -0.6791
 1646TIP3    H226354   5.130   5.159   5.921 -0.5555 -0.4118 -0.2997
 1647TIP3   OH226355   4.612   1.211  15.572 -0.4263  0.4880 -0.0207
 1647TIP3    H126356   4.694   1.215  15.621 -0.0874  0.4073 -0.5720
 1647TIP3    H226357   4.573   1.298  15.584  0.0293  0.7284 -0.2433
 1648TIP3   OH226358   1.378   2.161   1.383  0.1464  0.1836  0.4404
 1648TIP3    H126359   1.316   2.210   1.328  0.2556  0.8987  0.9357
 1648TIP3    H226360   1.447   2.134   1.323  0.6871  1.6709  0.3395
 1649TIP3   OH226361   0.337   1.625  14.359 -0.3059 -0.0331 -0.1672
 1649TIP3    H126362   0.380   1.681  14.424 -0.2538 -1.1885  0.8399
 1649TIP3    H226363   0.405   1.563  14.333 -0.4281  0.2056 -1.0942
 1650TIP3   OH226364   3.662   2.437   4.802 -0.1814 -0.4757  0.7068
 1650TIP3    H126365   3.681   2.385   4.880  0.9449 -1.4236 -0.1707
 1650TIP3    H226366   3.722   2.403   4.736 -0.7348  0.6912 -0.4186
 1651TIP3   OH226367   4.585   4.128  15.558  0.3450 -0.0311  0.3061
 1651TIP3    H126368   4.674   4.162  15.547  0.0063  0.8972  0.3005
 1651TIP3    H226369   4.553   4.115  15.469 -0.5409  2.4657  0.1769
 1652TIP3   OH226370   1.620   5.172   3.075 -0.5176 -0.4293 -0.6374
 1652TIP3    H126371   1.588   5.249   3.029  0.4658  0.7913  0.6384
 1652TIP3    H226372   1.571   5.172   3.158  2.1028  1.0644  1.0292
 1653TIP3   OH226373   6.167   1.919   2.287 -0.3851 -0.3224 -0.2100
 1653TIP3    H126374   6.159   1.925   2.192 -1.0452  0.9075 -0.0970
 1653TIP3    H226375   6.143   2.006   2.318  1.5933 -0.1219  0.9725
 1654TIP3   OH226376   4.965   0.895  14.961  0.0667 -0.1071  0.4663
 1654TIP3    H126377   4.957   0.928  15.050  0.8061  2.8956 -0.4543
 1654TIP3    H226378   5.052   0.855  14.958  0.5297  0.8177  0.8642
 1655TIP3   OH226379   4.246   6.251  12.602 -0.7336  0.0075  0.6229
 1655TIP3    H126380   4.207   6.333  12.569  0.0715 -0.2469 -1.1014
 1655TIP3    H226381   4.299   6.219  12.529  0.1691 -1.2931  1.7964
 1656TIP3   OH226382   2.171   5.389   1.630  0.0453 -0.0032 -1.0646
 1656TIP3    H126383   2.214   5.428   1.706  2.6306 -0.6917 -2.0755
 1656TIP3    H226384   2.115   5.320   1.667  0.3972  0.4008  0.2794
 1657TIP3   OH226385   3.956   0.283  14.012  0.0923  0.2552 -0.0497
 1657TIP3    H126386   4.040   0.328  14.023  0.4912 -0.2051 -1.0812
 1657TIP3    H226387   3.957   0.213  14.077  1.3119 -0.8729 -1.2076
 1658TIP3   OH226388   6.214   6.680   2.964  0.4541 -0.5680 -0.0075
 1658TIP3    H126389   6.204   6.638   2.879  1.0765 -1.6619  0.4403
 1658TIP3    H226390   6.131   6.665   3.009 -1.5195  3.4518 -1.7977
 1659TIP3   OH226391   4.337   4.466   5.650 -0.3862 -0.6550  0.5236
 1659TIP3    H126392   4.290   4.383   5.660 -0.0184 -1.0059 -0.4251
 1659TIP3    H226393   4.381   4.457   5.565  0.7121 -0.0125  1.0091
 1660TIP3   OH226394   5.498   5.885   6.133  0.2537 -0.2633  0.2987
 1660TIP3    H126395   5.477   5.971   6.094  1.6152  0.1939  0.5434
 1660TIP3    H226396   5.456   5.887   6.219 -1.5351 -0.7086 -0.5032
 1661TIP3   OH226397   4.836   5.446   4.901  0.2947 -0.6426 -0.3546
 1661TIP3    H126398   4.784   5.491   4.835  0.5745  0.2477  0.0234
 1661TIP3    H226399   4.919   5.493   4.903 -0.2073  0.2696  1.6099
 1662TIP3   OH226400   2.081   1.695   4.929 -0.0208  0.3441 -0.5797
 1662TIP3    H126401   2.033   1.621   4.891  0.4975  0.6460 -1.8625
 1662TIP3    H226402   2.159   1.704   4.874 -1.1596  3.2776 -1.8943
 1663TIP3   OH226403   2.906   3.100  16.643  0.5199  0.1693 -0.6669
 1663TIP3    H126404   2.949   3.050  16.574  0.8178  1.0572 -1.1351
 1663TIP3    H226405   2.974   3.116  16.708 -0.0192 -1.6674  0.4569
 1664TIP3   OH226406   2.847   4.398   3.860 -0.6877  0.3050 -0.7115
 1664TIP3    H126407   2.895   4.316   3.845  1.9538  1.8796 -1.6095
 1664TIP3    H226408   2.834   4.435   3.773 -0.7786  1.3939 -0.2477
 1665TIP3   OH226409   3.862   6.286   0.801  0.0130 -0.0718  0.1914
 1665TIP3    H126410   3.933   6.287   0.737 -1.8385  0.3979 -2.0239
 1665TIP3    H226411   3.854   6.377   0.830  1.9216 -0.5468  2.4983
 1666TIP3   OH226412   2.103   1.751   1.823  0.3520 -0.1046 -0.2923
 1666TIP3    H126413   2.177   1.775   1.879 -0.7718  0.2938  1.0687
 1666TIP3    H226414   2.069   1.834   1.790 -0.5130 -0.1463  0.4579
 1667TIP3   OH226415   6.037   6.184  12.598  0.4726  0.0415 -0.1572
 1667TIP3    H126416   6.031   6.250  12.529 -3.0465  1.8476  1.5778
 1667TIP3    H226417   5.974   6.117  12.572 -0.0668  0.1977  0.7038
 1668TIP3   OH226418   2.410   3.719   6.299  0.4543 -0.6012 -0.1781
 1668TIP3    H126419   2.374   3.771   6.371 -2.1426 -0.9512 -1.1035
 1668TIP3    H226420   2.434   3.783   6.233 -0.3672 -0.4004 -0.3030
 1669TIP3   OH226421   3.110   2.222   0.122 -0.0980 -0.0859  0.5621
 1669TIP3    H126422   3.194   2.189   0.154 -0.6717  0.0185  2.2889
 1669TIP3    H226423   3.104   2.311   0.156 -0.5357  0.2073 -0.2663
 1670TIP3   OH226424   5.068   2.394   4.553  0.2785  0.0475 -0.3891
 1670TIP3    H126425   5.058   2.369   4.461 -0.4345  0.9662 -0.5818
 1670TIP3    H226426   5.057   2.490   4.552  0.9269  0.1358  0.5632
 1671TIP3   OH226427   4.395   1.419   0.531 -0.1117  0.1971 -0.2175
 1671TIP3    H126428   4.487   1.441   0.547  1.0279 -3.0618 -1.3997
 1671TIP3    H226429   4.360   1.394   0.616  0.2057  0.9273  0.1404
 1672TIP3   OH226430   2.357   4.615   4.662 -0.0324 -0.3187 -0.1687
 1672TIP3    H126431   2.429   4.645   4.606 -1.7425  1.0181 -1.7509
 1672TIP3    H226432   2.366   4.519   4.662  1.4280 -0.2148 -0.7482
 1673TIP3   OH226433   2.562   3.512   3.373 -0.3430 -0.1488 -0.0353
 1673TIP3    H126434   2.539   3.467   3.292 -0.6415  0.7664 -0.4728
 1673TIP3    H226435   2.632   3.458   3.412 -0.0772 -0.5012 -0.9811
 1674TIP3   OH226436   4.334   2.204  15.698 -0.1945 -0.1402 -0.3999
 1674TIP3    H126437   4.349   2.293  15.665 -2.5015  0.7449  0.7411
 1674TIP3    H226438   4.383   2.200  15.780 -1.7789  0.9054  0.6570
 1675TIP3   OH226439   1.861   1.371  11.961 -0.3084  0.2890  0.8791
 1675TIP3    H126440   1.948   1.376  11.922 -1.0579 -1.2582 -1.1560
 1675TIP3    H226441   1.852   1.452  12.011  1.4928  1.4516 -0.5837
 1676TIP3   OH226442   5.509   2.047  14.128  0.0121  0.0672 -0.2898
 1676TIP3    H126443   5.575   1.999  14.078 -0.5964  0.9243 -1.9995
 1676TIP3    H226444   5.497   2.128  14.078 -2.6171 -0.2303 -0.2570
 1677TIP3   OH226445   2.417   5.328  15.515 -0.5568 -0.2133 -0.2103
 1677TIP3    H126446   2.397   5.393  15.448  0.6165 -0.3933 -0.7437
 1677TIP3    H226447   2.468   5.376  15.580 -1.4933 -0.0968  0.4645
 1678TIP3   OH226448   2.852   3.291   0.949  0.2927  0.0721 -0.2110
 1678TIP3    H126449   2.830   3.202   0.977 -0.6394 -0.1583 -1.5557
 1678TIP3    H226450   2.926   3.280   0.890  2.3145  0.5658  2.0789
 1679TIP3   OH226451   3.017   4.116  17.095 -0.6920 -1.0678 -0.1535
 1679TIP3    H126452   2.983   4.167  17.021 -0.9347  0.3292  0.8748
 1679TIP3    H226453   2.947   4.118  17.160  0.2214 -0.6075  0.8626
 1680TIP3   OH226454   6.507   4.469  14.711  0.3333 -0.1889 -0.3652
 1680TIP3    H126455   6.537   4.396  14.767  3.2564  0.3723 -1.0443
 1680TIP3    H226456   6.473   4.533  14.773 -1.4552 -1.6826  0.3116
 1681TIP3   OH226457   4.187   4.282  15.596  1.0808  0.5424  0.6495
 1681TIP3    H126458   4.189   4.318  15.685 -2.3562 -0.3675  1.2730
 1681TIP3    H226459   4.162   4.190  15.608  3.1794 -0.3535 -1.1975
 1682TIP3   OH226460   6.680   6.302  16.017  0.0480 -0.5576  0.3173
 1682TIP3    H126461   6.600   6.355  16.027  0.9176  0.8269  0.2150
 1682TIP3    H226462   6.661   6.243  15.945 -0.7983 -0.0734  0.1355
 1683TIP3   OH226463   6.549   0.066   4.308  1.0252 -0.2823  0.3572
 1683TIP3    H126464   6.632   0.106   4.282 -0.1677  0.3792 -3.0187
 1683TIP3    H226465   6.574  -0.017   4.348  3.3649 -1.0525 -2.3330
 1684TIP3   OH226466   3.334   6.771   1.702  0.4845 -0.0371  0.1373
 1684TIP3    H126467   3.308   6.704   1.765  2.1436 -0.9427 -0.0940
 1684TIP3    H226468   3.399   6.824   1.748 -0.3851  1.1064  0.1187
 1685TIP3   OH226469   1.585   0.592   1.411  0.0308 -0.2794 -0.3029
 1685TIP3    H126470   1.598   0.647   1.488  0.0460  0.1177 -0.5863
 1685TIP3    H226471   1.595   0.502   1.443 -3.2861 -0.3677  0.9148
 1686TIP3   OH226472   5.567   5.486  14.499 -0.5519  0.1768 -0.5233
 1686TIP3    H126473   5.603   5.408  14.457  0.2510 -0.3940  1.1421
 1686TIP3    H226474   5.513   5.527  14.432 -1.0058 -1.8126 -1.4266
 1687TIP3   OH226475   1.719   4.514  12.427  0.1262 -0.2766 -0.1951
 1687TIP3    H126476   1.750   4.473  12.508 -0.9597  0.0229  0.3966
 1687TIP3    H226477   1.665   4.446  12.385 -0.6862  0.1081  0.1898
 1688TIP3   OH226478   5.701   1.271  16.668  0.0437  0.3818  0.1429
 1688TIP3    H126479   5.634   1.257  16.602 -1.6152  0.8480  1.6391
 1688TIP3    H226480   5.774   1.312  16.621 -0.6912 -0.1771 -1.5394
 1689TIP3   OH226481   3.275   1.258   6.369  0.2483  0.7518  0.2339
 1689TIP3    H126482   3.265   1.257   6.465  0.4137  1.5072  0.2642
 1689TIP3    H226483   3.189   1.232   6.336  0.4619 -0.4744  0.5912
 1690TIP3   OH226484   6.240   6.179   0.742  0.0617  0.6728 -0.0766
 1690TIP3    H126485   6.292   6.172   0.662  2.6276  1.0056  1.4571
 1690TIP3    H226486   6.243   6.272   0.765 -1.1210  0.6706  0.1205
 1691TIP3   OH226487   2.138   0.021   0.596  0.2271 -0.0991  0.3282
 1691TIP3    H126488   2.129  -0.057   0.652 -1.4179 -0.1053  0.0900
 1691TIP3    H226489   2.187  -0.011   0.520  1.3912 -0.3872  1.1672
 1692TIP3   OH226490   0.323   4.919   2.816  0.0149 -0.6509  0.6588
 1692TIP3    H126491   0.229   4.902   2.823 -0.3793  1.0645  0.0944
 1692TIP3    H226492   0.334   5.007   2.852  0.7020  0.9148 -2.9149
 1693TIP3   OH226493   2.979   6.510  15.569 -0.4354  0.2163  0.0740
 1693TIP3    H126494   3.025   6.544  15.493 -0.0150  1.7293  0.9566
 1693TIP3    H226495   2.984   6.415  15.560  3.1798  0.2355  0.2594
 1694TIP3   OH226496   6.364   2.031  12.053  0.2697  0.0326  0.5765
 1694TIP3    H126497   6.280   1.993  12.081  0.1948  0.7735  1.3990
 1694TIP3    H226498   6.365   2.118  12.093  0.5934  0.7768 -0.9755
 1695TIP3   OH226499   1.622   6.451   6.072  0.0134 -0.2410  0.1845
 1695TIP3    H126500   1.601   6.492   6.156  1.7414 -1.7878  1.4605
 1695TIP3    H226501   1.717   6.458   6.065  0.0329 -1.3400 -0.9758
 1696TIP3   OH226502   1.643   3.569  13.964 -0.4894  0.4128 -0.7978
 1696TIP3    H126503   1.668   3.611  13.881  0.8705  1.0960 -0.0746
 1696TIP3    H226504   1.727   3.547  14.005 -1.1590 -0.3375  0.1919
 1697TIP3   OH226505   1.604   5.063   5.265 -0.3836  0.3116  0.2176
 1697TIP3    H126506   1.651   5.116   5.330  0.0896  0.0576  0.0900
 1697TIP3    H226507   1.666   5.055   5.192  0.1019 -1.5731  0.7829
 1698TIP3   OH226508   2.579   5.696   1.327 -0.2266  1.1890  0.1755
 1698TIP3    H126509   2.631   5.666   1.252 -0.0014  1.7036  0.1243
 1698TIP3    H226510   2.490   5.703   1.293  0.1749  3.2791 -0.6068
 1699TIP3   OH226511   3.701   6.309  16.369  0.1291  0.5794  0.4561
 1699TIP3    H126512   3.771   6.311  16.434  2.3303 -0.3089 -1.7236
 1699TIP3    H226513   3.710   6.391  16.321  0.1607  0.1606 -0.2772
 1700TIP3   OH226514   6.624   6.151   0.589 -0.3132 -0.4945 -0.1422
 1700TIP3    H126515   6.573   6.070   0.593  0.3574 -0.8975  0.6721
 1700TIP3    H226516   6.715   6.122   0.587 -0.0655  0.2364  0.1816
 1701TIP3   OH226517   5.996   5.828   5.079 -0.1699  0.6643  0.1755
 1701TIP3    H126518   6.086   5.796   5.088  0.3220  2.4080  2.2126
 1701TIP3    H226519   5.966   5.790   4.997  2.8316  0.9925 -1.2260
 1702TIP3   OH226520   3.774   2.843  15.632 -0.2229 -0.0271 -0.2243
 1702TIP3    H126521   3.730   2.758  15.627  1.4162 -0.8554 -1.0799
 1702TIP3    H226522   3.865   2.825  15.608  0.5752  1.6606  1.3059
 1703TIP3   OH226523   2.575   6.427   4.949 -0.1525  0.6458  0.2036
 1703TIP3    H126524   2.609   6.389   4.869  0.7531  1.4290  0.1998
 1703TIP3    H226525   2.642   6.490   4.977 -0.7558  0.8747  1.2054
 1704TIP3   OH226526   6.773   1.991  16.704 -0.2630 -0.1088  0.3261
 1704TIP3    H126527   6.718   2.062  16.736 -1.9496 -0.4420 -1.6254
 1704TIP3    H226528   6.838   2.034  16.648 -0.9002 -0.0202 -0.3609
 1705TIP3   OH226529   1.316   3.421   2.735 -0.6628  0.0459  0.3958
 1705TIP3    H126530   1.387   3.362   2.708 -1.4162 -1.0456  0.7416
 1705TIP3    H226531   1.263   3.369   2.795 -0.6542  1.4887  1.7230
 1706TIP3   OH226532   1.970   5.663   3.230 -0.1513  0.3259 -0.1373
 1706TIP3    H126533   1.903   5.731   3.223 -0.6280 -0.1946 -0.6141
 1706TIP3    H226534   1.985   5.634   3.140  1.2390  0.9362 -0.1348
 1707TIP3   OH226535   5.442   2.008  17.135  0.0431  0.7774 -0.2186
 1707TIP3    H126536   5.533   2.006  17.162  0.9529 -1.8184 -2.9172
 1707TIP3    H226537   5.400   1.938  17.184  0.1100  0.3972 -0.6956
 1708TIP3   OH226538   4.085   1.866   0.698 -0.6688  0.5836 -0.1002
 1708TIP3    H126539   4.035   1.886   0.777 -0.0707  0.2508  0.3779
 1708TIP3    H226540   4.137   1.788   0.722 -0.7673  0.2498 -0.9465
 1709TIP3   OH226541   0.279   3.665   1.236 -0.6406 -0.1272  0.1565
 1709TIP3    H126542   0.331   3.656   1.157 -0.0665  0.9649  0.3781
 1709TIP3    H226543   0.278   3.578   1.276 -1.0024 -0.7011 -1.0684
 1710TIP3   OH226544   4.682   2.478  11.907  0.7406  0.1850  0.4837
 1710TIP3    H126545   4.747   2.441  11.965  0.9930  2.3449  1.6845
 1710TIP3    H226546   4.680   2.571  11.929 -2.3699  0.3081  0.1367
 1711TIP3   OH226547   2.045   4.316  16.671 -0.1371 -0.3988 -0.8620
 1711TIP3    H126548   2.039   4.258  16.747  1.8410 -0.2339 -0.5290
 1711TIP3    H226549   2.032   4.404  16.707 -0.9880 -0.4549 -1.0191
 1712TIP3   OH226550   4.235   6.421   3.876 -0.2615 -0.3278  0.1692
 1712TIP3    H126551   4.316   6.464   3.901  0.2552 -1.4100  0.4347
 1712TIP3    H226552   4.262   6.333   3.849 -1.2653 -0.4774 -0.4177
 1713TIP3   OH226553   3.312   6.024  12.829  0.4173  0.2579  0.6488
 1713TIP3    H126554   3.231   5.974  12.842  0.8137 -0.6145 -0.0624
 1713TIP3    H226555   3.283   6.107  12.791 -0.1135 -0.2669 -0.1310
 1714TIP3   OH226556   2.779   0.705  16.873  0.0553  0.1706 -0.9190
 1714TIP3    H126557   2.801   0.620  16.835 -0.8405 -0.0716 -0.9293
 1714TIP3    H226558   2.850   0.724  16.935  0.0527 -0.7843 -0.6119
 1715TIP3   OH226559   2.171   3.939   5.746 -0.2670 -0.1844 -0.5008
 1715TIP3    H126560   2.163   3.845   5.729  4.3551 -0.8258 -0.5086
 1715TIP3    H226561   2.257   3.963   5.710 -0.8846  3.8919  0.2122
 1716TIP3   OH226562   1.369   4.368   1.475 -0.1719 -0.0944  0.2012
 1716TIP3    H126563   1.352   4.306   1.405 -0.1240  0.0399  0.0702
 1716TIP3    H226564   1.426   4.321   1.536 -0.8821 -0.4933  0.5697
 1717TIP3   OH226565   0.937   0.449   5.525  0.2398  0.4354 -0.1517
 1717TIP3    H126566   0.963   0.400   5.446  0.9909  0.2497  0.2017
 1717TIP3    H226567   1.012   0.442   5.583  0.6948  2.6690 -0.3780
 1718TIP3   OH226568   4.475   2.154  13.874  0.3513  0.3460  0.6114
 1718TIP3    H126569   4.476   2.201  13.957 -0.2920  0.5327  0.5176
 1718TIP3    H226570   4.434   2.215  13.812 -0.5789 -0.3525  0.5108
 1719TIP3   OH226571   6.735   3.942  13.477 -0.8008  0.0991  0.1367
 1719TIP3    H126572   6.793   3.902  13.412 -1.4059  0.5479 -0.6991
 1719TIP3    H226573   6.793   3.992  13.534 -0.3973  0.9378 -0.9774
 1720TIP3   OH226574   2.224   3.452   0.063 -0.1429 -0.2765  0.5464
 1720TIP3    H126575   2.238   3.547   0.069 -1.7577 -0.0203  0.7539
 1720TIP3    H226576   2.311   3.414   0.075  0.9723  1.2371 -1.8769
 1721TIP3   OH226577   0.630   0.862   5.133  0.0047  0.1330  0.7307
 1721TIP3    H126578   0.684   0.783   5.134 -0.7347 -0.4310 -0.8724
 1721TIP3    H226579   0.689   0.931   5.163  1.2402 -0.6849  0.2816
 1722TIP3   OH226580   2.475   2.546  12.256 -0.5860 -0.2088 -0.1757
 1722TIP3    H126581   2.397   2.539  12.309 -0.0417  0.4569  0.7432
 1722TIP3    H226582   2.543   2.576  12.316 -0.2537  1.8844 -1.4954
 1723TIP3   OH226583   6.132   2.182   2.333  0.0461 -0.3856  0.1474
 1723TIP3    H126584   6.173   2.256   2.287 -0.3579  0.0057  0.4106
 1723TIP3    H226585   6.039   2.202   2.332  0.0363 -0.3372  1.1994
 1724TIP3   OH226586   4.628   6.205  10.868  0.7298  0.0058 -0.2637
 1724TIP3    H126587   4.556   6.145  10.849 -0.3608  0.6391  1.6502
 1724TIP3    H226588   4.648   6.245  10.784  0.3546 -1.7908 -1.2582
 1725TIP3   OH226589   1.724   5.919   3.216 -0.0289  0.5116 -0.0129
 1725TIP3    H126590   1.706   5.858   3.145  0.7073  0.0066  0.2200
 1725TIP3    H226591   1.638   5.943   3.249 -0.3430 -0.2512 -0.2408
 1726TIP3   OH226592   4.413   6.418   6.156  0.4383 -0.0984 -0.4063
 1726TIP3    H126593   4.412   6.504   6.198  1.6298 -0.2672 -0.0203
 1726TIP3    H226594   4.426   6.356   6.228 -0.1232 -0.5929 -0.7189
 1727TIP3   OH226595   0.589   3.202   4.817  0.0096 -0.1959  0.2378
 1727TIP3    H126596   0.577   3.107   4.810 -1.0149 -0.1402  0.9777
 1727TIP3    H226597   0.549   3.225   4.901 -0.5730  1.0057 -0.3390
 1728TIP3   OH226598   2.519   1.197   1.683  0.4169  0.5490 -0.3085
 1728TIP3    H126599   2.535   1.192   1.589  0.1040  1.3948 -0.4128
 1728TIP3    H226600   2.505   1.290   1.700 -2.3658  0.1367  0.0880
 1729TIP3   OH226601   6.288   5.675  12.403 -0.1252 -0.3110 -0.1330
 1729TIP3    H126602   6.325   5.754  12.364 -0.0869 -0.2735 -0.0228
 1729TIP3    H226603   6.285   5.695  12.497  0.4151 -0.6534 -0.0383
 1730TIP3   OH226604   5.870   2.416  14.463 -0.2340 -0.8510 -0.1723
 1730TIP3    H126605   5.966   2.406  14.467 -0.0776  0.7516  1.2052
 1730TIP3    H226606   5.844   2.366  14.385  1.7590 -1.0072 -0.7960
 1731TIP3   OH226607   6.182   5.382  15.385 -0.3910  0.4667  0.6803
 1731TIP3    H126608   6.148   5.467  15.356  1.9178  1.1960 -0.0679
 1731TIP3    H226609   6.167   5.324  15.311 -0.6078  0.6051  0.6132
 1732TIP3   OH226610   4.613   5.943  14.691 -0.6330 -0.1743 -0.3799
 1732TIP3    H126611   4.682   5.972  14.631 -0.8374 -0.8469 -0.9515
 1732TIP3    H226612   4.660   5.917  14.770 -0.5354  3.4442  0.9688
 1733TIP3   OH226613   2.485   0.218   5.700 -0.3242  0.3764 -0.1479
 1733TIP3    H126614   2.525   0.164   5.768  0.0144 -0.5998 -1.0822
 1733TIP3    H226615   2.446   0.291   5.747  1.7626  0.9033  0.8965
 1734TIP3   OH226616   6.065   3.823  13.830 -0.3936 -0.0458  0.3521
 1734TIP3    H126617   6.033   3.912  13.844 -0.7057 -0.1743  0.4715
 1734TIP3    H226618   6.159   3.833  13.818 -0.2102  0.1694  1.7571
 1735TIP3   OH226619   0.963   6.533  14.936 -0.6881 -0.0278  0.2702
 1735TIP3    H126620   0.872   6.505  14.937 -1.1191  1.2261  2.3098
 1735TIP3    H226621   0.985   6.542  14.843 -2.4000 -1.0038 -0.2690
 1736TIP3   OH226622   6.574   0.151   2.801  0.6911 -0.5824  0.3143
 1736TIP3    H126623   6.613   0.235   2.777  1.5878 -1.0841 -0.0700
 1736TIP3    H226624   6.519   0.170   2.877  1.0429  0.3170  0.3519
 1737TIP3   OH226625   1.023   5.210   4.084  0.5643  0.3320 -0.3218
 1737TIP3    H126626   0.971   5.191   4.006  1.5676 -1.3569 -0.6145
 1737TIP3    H226627   0.993   5.146   4.149 -0.4827  1.9128  0.8281
 1738TIP3   OH226628   0.078   5.951  10.916  0.4468 -0.9836  0.5308
 1738TIP3    H126629   0.112   6.020  10.973  0.7982  0.3798 -1.2343
 1738TIP3    H226630  -0.003   5.922  10.959  1.0864 -0.5770  2.0871
 1739TIP3   OH226631   3.099   5.804   5.366  0.5952 -0.3733  0.2300
 1739TIP3    H126632   3.119   5.844   5.281 -0.2230 -1.3577 -0.4512
 1739TIP3    H226633   3.183   5.770   5.397  0.8374 -0.3504 -0.3833
 1740TIP3   OH226634   6.196   1.919   2.023 -0.0682  0.1678 -0.0961
 1740TIP3    H126635   6.205   1.834   1.979  0.4530  0.9522 -1.5935
 1740TIP3    H226636   6.122   1.961   1.979 -0.3113  0.4994  0.6208
 1741TIP3   OH226637   2.325   1.403   1.572 -0.1005 -0.4374 -0.3070
 1741TIP3    H126638   2.289   1.460   1.640  0.6613  1.1906 -1.1922
 1741TIP3    H226639   2.250   1.353   1.540 -1.1262  1.1450 -0.4891
 1742TIP3   OH226640   6.166   1.391  12.753 -0.1929  0.0478  0.0019
 1742TIP3    H126641   6.104   1.441  12.806  0.4392 -1.1328  1.9415
 1742TIP3    H226642   6.195   1.453  12.686  0.9625  2.5389  2.5860
 1743TIP3   OH226643   4.545   1.350   4.307 -0.0354 -0.1956  0.4634
 1743TIP3    H126644   4.462   1.302   4.303 -0.8494  1.2487 -1.0706
 1743TIP3    H226645   4.611   1.285   4.284 -0.8174 -1.1628  0.8694
 1744TIP3   OH226646   3.308   2.821  13.909  0.2527  0.0244  0.4274
 1744TIP3    H126647   3.306   2.880  13.985  0.6462 -0.6245  0.9534
 1744TIP3    H226648   3.358   2.869  13.843 -0.8377  0.9641  0.2481
 1745TIP3   OH226649   2.348   2.663  11.502  0.7598 -0.2611  0.0009
 1745TIP3    H126650   2.287   2.623  11.564 -0.1722  0.3016 -0.5310
 1745TIP3    H226651   2.294   2.687  11.427  1.9275 -1.2081 -1.1770
 1746TIP3   OH226652   5.681   3.070  12.458  0.0131  0.7005 -0.1072
 1746TIP3    H126653   5.681   3.043  12.366  0.8463 -1.5688  0.4701
 1746TIP3    H226654   5.770   3.051  12.488 -0.8524 -0.8819  1.7240
 1747TIP3   OH226655   6.464   6.700  10.369 -0.3023 -0.8122  0.0470
 1747TIP3    H126656   6.408   6.702  10.447 -1.2501  0.6003 -0.6053
 1747TIP3    H226657   6.427   6.631  10.315 -0.5448 -0.8376  0.2405
 1748TIP3   OH226658   6.031   0.585  13.435 -1.0698 -0.4884  0.4029
 1748TIP3    H126659   6.016   0.626  13.350 -1.3353 -1.8069 -0.2219
 1748TIP3    H226660   5.979   0.637  13.496 -0.2841  0.9334 -0.0960
 1749TIP3   OH226661   4.059   5.619  14.675  0.4950  0.2408  0.0307
 1749TIP3    H126662   4.014   5.581  14.750  0.4189  1.1735  0.4734
 1749TIP3    H226663   4.068   5.712  14.697  0.3683  0.5558 -1.1624
 1750TIP3   OH226664   1.400   1.104   1.569  0.0250  0.1277 -0.4839
 1750TIP3    H126665   1.342   1.093   1.494  0.5438  1.6331 -1.1464
 1750TIP3    H226666   1.448   1.022   1.575 -2.4419 -1.3707  0.3711
 1751TIP3   OH226667   6.456   6.110   6.087 -0.0780  0.1930  0.5208
 1751TIP3    H126668   6.440   6.161   6.166 -0.6118  1.5607 -0.4356
 1751TIP3    H226669   6.376   6.120   6.035  0.6749  0.2178 -0.6721
 1752TIP3   OH226670   2.610   0.859  16.235  0.4416  0.0321 -0.0035
 1752TIP3    H126671   2.545   0.905  16.182 -1.3332 -0.9263  1.2535
 1752TIP3    H226672   2.694   0.891  16.202 -0.5795  0.3383 -2.5943
 1753TIP3   OH226673   4.520   0.694   5.393 -0.6706 -0.3277  0.2821
 1753TIP3    H126674   4.472   0.775   5.408 -1.0678 -0.8905  2.3590
 1753TIP3    H226675   4.468   0.626   5.435 -0.2868 -1.6741 -1.3106
 1754TIP3   OH226676   3.597   3.405   2.334  0.1702 -0.2392  0.3508
 1754TIP3    H126677   3.515   3.357   2.346 -0.5420  0.4195 -1.5149
 1754TIP3    H226678   3.655   3.371   2.401 -0.7697 -2.6354  0.0308
 1755TIP3   OH226679   0.113   1.621   0.737  0.3535 -0.1086  0.2823
 1755TIP3    H126680   0.046   1.553   0.743 -1.8937  2.0696  2.7182
 1755TIP3    H226681   0.102   1.658   0.650 -2.1581  0.5650  0.7941
 1756TIP3   OH226682   0.436   0.170   2.270 -0.2286 -0.2565 -0.1876
 1756TIP3    H126683   0.515   0.117   2.259 -0.1049 -0.5088  1.6101
 1756TIP3    H226684   0.364   0.108   2.257 -0.0925 -0.6158  0.6986
 1757TIP3   OH226685   0.150   5.782   4.243  0.4331  0.5233  0.0378
 1757TIP3    H126686   0.118   5.811   4.157  0.6096 -0.5221 -0.3993
 1757TIP3    H226687   0.070   5.763   4.292  0.3254 -1.2220 -0.7473
 1758TIP3   OH226688   4.811   0.328   3.295 -0.5871  0.1870  0.3384
 1758TIP3    H126689   4.720   0.306   3.316 -0.2999  1.1800  2.9792
 1758TIP3    H226690   4.809   0.422   3.276 -0.2434  0.0143 -0.5779
 1759TIP3   OH226691   2.700   1.310  12.968  0.2819  0.1062 -0.1981
 1759TIP3    H126692   2.615   1.319  12.926  0.4906  0.4721 -0.5475
 1759TIP3    H226693   2.751   1.257  12.907  0.1389 -0.5768  0.2619
 1760TIP3   OH226694   3.996   3.093  14.192 -0.4276  0.2910  0.4682
 1760TIP3    H126695   4.059   3.111  14.262 -0.5847  0.6583  0.5150
 1760TIP3    H226696   3.992   2.998  14.187  1.7121  0.1957 -0.9383
 1761TIP3   OH226697   6.222   3.090   2.288 -0.9418  0.3158  0.0376
 1761TIP3    H126698   6.294   3.071   2.349  0.5168 -0.9227 -1.9418
 1761TIP3    H226699   6.182   3.169   2.323  1.4988  1.1670  1.1606
 1762TIP3   OH226700   5.397   4.764  11.751  0.2715 -0.2694  0.7721
 1762TIP3    H126701   5.443   4.736  11.831  0.4616  0.0196  0.7686
 1762TIP3    H226702   5.436   4.849  11.730  0.3212 -0.4079  0.2904
 1763TIP3   OH226703   0.441   0.693   4.719 -0.1836  0.3407 -0.4015
 1763TIP3    H126704   0.487   0.770   4.752  0.5820 -0.0876 -0.4346
 1763TIP3    H226705   0.377   0.671   4.787  0.9819 -0.1951  0.5539
 1764TIP3   OH226706   1.523   5.364   0.400 -0.4934  0.7319  0.8801
 1764TIP3    H126707   1.568   5.311   0.334  0.8802 -0.0574  2.3788
 1764TIP3    H226708   1.466   5.302   0.446  1.0081  0.4756  2.5399
 1765TIP3   OH226709   2.384   4.379   3.462  0.0903  0.0907  0.2763
 1765TIP3    H126710   2.443   4.453   3.445 -0.7097  0.6232 -0.2304
 1765TIP3    H226711   2.406   4.352   3.552  0.2750  1.0489  0.5345
 1766TIP3   OH226712   1.143   5.587   2.307  0.0126  0.4321  0.4930
 1766TIP3    H126713   1.145   5.499   2.269  1.0399  0.4303  0.5158
 1766TIP3    H226714   1.094   5.576   2.389  0.6903 -0.2653  0.8180
 1767TIP3   OH226715   5.168   0.819   0.208  0.3073  0.0248  0.3486
 1767TIP3    H126716   5.253   0.814   0.250  0.2532  1.4095  0.6985
 1767TIP3    H226717   5.106   0.791   0.275  0.3258  1.1040  0.8462
 1768TIP3   OH226718   4.608   5.764  16.649 -1.3320 -0.3291 -0.6281
 1768TIP3    H126719   4.571   5.751  16.561  0.1485 -0.8103 -1.2056
 1768TIP3    H226720   4.568   5.694  16.701 -1.2885 -0.8101 -1.2230
 1769TIP3   OH226721   0.238   2.690   4.897  1.1292 -0.3152 -0.5230
 1769TIP3    H126722   0.197   2.604   4.891 -0.0690  0.1997  0.0760
 1769TIP3    H226723   0.310   2.686   4.834  2.6183 -2.5663  1.1777
 1770TIP3   OH226724   4.412   0.937  16.873 -0.0202  0.3219  0.1583
 1770TIP3    H126725   4.333   0.884  16.865  1.0088 -1.2433  0.0458
 1770TIP3    H226726   4.380   1.023  16.899 -1.8296 -0.0256 -0.7526
 1771TIP3   OH226727   6.727   4.214   0.644  0.2779  0.1107  0.0652
 1771TIP3    H126728   6.742   4.301   0.680  0.9121 -0.0608  0.2416
 1771TIP3    H226729   6.722   4.227   0.549  0.9235  0.2767  0.0489
 1772TIP3   OH226730   1.689   2.671  13.520 -0.8499 -0.5668 -0.1999
 1772TIP3    H126731   1.747   2.719  13.461 -0.2569 -0.4246  0.4841
 1772TIP3    H226732   1.700   2.579  13.497  0.0161 -0.5796  0.2421
 1773TIP3   OH226733   2.223   4.019  16.247 -0.1298 -0.6002  0.1035
 1773TIP3    H126734   2.215   4.062  16.332 -1.8413 -0.2524 -0.2055
 1773TIP3    H226735   2.306   3.971  16.253  0.7255  0.8997  1.2810
 1774TIP3   OH226736   2.761   0.587  14.031 -0.3592  0.6203  0.3643
 1774TIP3    H126737   2.783   0.580  13.938  1.6372  0.4688  0.8060
 1774TIP3    H226738   2.713   0.506  14.050  1.0933 -0.3770 -0.0743
 1775TIP3   OH226739   0.391   1.577   2.531 -0.8717 -0.1536  0.0244
 1775TIP3    H126740   0.321   1.634   2.562  0.1084  1.5575 -0.7841
 1775TIP3    H226741   0.457   1.579   2.600 -1.0560 -0.7378  0.2214
 1776TIP3   OH226742   2.139   3.078   4.027 -0.4200  0.0497 -0.1859
 1776TIP3    H126743   2.212   3.033   4.068 -0.0281 -0.7215 -1.6530
 1776TIP3    H226744   2.141   3.048   3.936 -2.6801 -0.1412 -0.2209
 1777TIP3   OH226745   1.227   4.975   1.183 -0.7171  0.1527 -0.1131
 1777TIP3    H126746   1.309   4.989   1.135 -0.3358 -1.5665 -0.0539
 1777TIP3    H226747   1.184   4.904   1.136 -1.7845  0.4687  0.3594
 1778TIP3   OH226748   4.418   4.829  12.358 -0.1214  0.0016 -0.3364
 1778TIP3    H126749   4.475   4.861  12.429 -0.1380  1.5734 -0.9925
 1778TIP3    H226750   4.477   4.781  12.300  0.3411  0.7175 -0.4653
 1779TIP3   OH226751   3.047   4.935   2.577 -0.2499  0.8156  0.0408
 1779TIP3    H126752   2.996   4.882   2.515  0.1007 -0.4471  0.8027
 1779TIP3    H226753   2.982   4.994   2.616 -1.0272 -0.2955  0.4910
 1780TIP3   OH226754   1.352   5.194  12.545  0.5560 -0.2150 -0.1462
 1780TIP3    H126755   1.369   5.214  12.453 -1.9192 -0.2646 -0.6946
 1780TIP3    H226756   1.350   5.099  12.549 -3.1402 -0.3270 -0.9985
 1781TIP3   OH226757   1.218   5.458  16.041 -0.0798  0.4587 -0.1214
 1781TIP3    H126758   1.303   5.440  16.081 -0.1633 -0.9486 -0.5127
 1781TIP3    H226759   1.155   5.436  16.110 -0.1802 -0.6299 -0.5436
 1782TIP3   OH226760   4.780   4.325  16.315  0.2556 -0.4696 -0.5196
 1782TIP3    H126761   4.795   4.258  16.382 -1.3792 -0.1098  0.2750
 1782TIP3    H226762   4.858   4.380  16.317 -0.3735  0.4937  2.2821
 1783TIP3   OH226763   1.636   1.811  13.912 -0.0206 -0.4193 -0.4141
 1783TIP3    H126764   1.682   1.892  13.891 -0.4336  0.0720  0.5204
 1783TIP3    H226765   1.648   1.800  14.006 -0.0864 -1.3786 -0.5054
 1784TIP3   OH226766   5.980   5.742   5.958  0.5804  0.3891  0.2147
 1784TIP3    H126767   5.899   5.767   6.003  0.6009  1.2530 -0.2029
 1784TIP3    H226768   5.950   5.700   5.877  0.5356  0.7775  0.0234
 1785TIP3   OH226769   1.011   3.685   3.272  0.3288 -0.3883 -0.0922
 1785TIP3    H126770   0.980   3.633   3.197 -1.1399 -1.1838  1.0126
 1785TIP3    H226771   1.066   3.624   3.322 -1.0981 -0.8237  1.0112
 1786TIP3   OH226772   4.646   2.892   4.815 -0.4641 -0.0682  0.4547
 1786TIP3    H126773   4.711   2.840   4.862  0.0335 -1.2339 -1.4287
 1786TIP3    H226774   4.677   2.983   4.823  1.6469 -0.6224 -0.7033
 1787TIP3   OH226775   1.927   5.398   6.097 -0.2401 -0.8371  0.2669
 1787TIP3    H126776   2.022   5.405   6.110 -0.1057 -0.8219 -0.6837
 1787TIP3    H226777   1.917   5.378   6.004 -1.1489 -1.4120  0.4747
 1788TIP3   OH226778   0.968   4.980  14.177 -0.1935  0.1753 -0.5838
 1788TIP3    H126779   0.940   4.896  14.141 -0.8081  0.5204 -0.9129
 1788TIP3    H226780   0.993   4.960  14.268 -0.6824 -0.2921 -0.5478
 1789TIP3   OH226781   2.700   2.204   2.994  0.6453  0.0717 -0.1207
 1789TIP3    H126782   2.689   2.269   2.925 -0.1733  0.0739  0.0062
 1789TIP3    H226783   2.689   2.253   3.075  3.2837  0.4224  0.1232
 1790TIP3   OH226784   2.457   0.405  13.934  0.4509 -0.5424 -0.1887
 1790TIP3    H126785   2.461   0.420  13.840  1.9651 -0.3795 -0.1330
 1790TIP3    H226786   2.549   0.393  13.960  0.1045 -0.1718  1.3271
 1791TIP3   OH226787   0.947   4.309   1.830 -0.4541  0.5033  0.5354
 1791TIP3    H126788   1.008   4.354   1.770  0.2148 -2.0901 -0.8987
 1791TIP3    H226789   0.891   4.258   1.772 -2.1742  0.6432  2.0108
 1792TIP3   OH226790   2.135   3.559  15.525  0.2035  0.2234 -0.3926
 1792TIP3    H126791   2.053   3.572  15.572  0.8029 -0.3743  0.8519
 1792TIP3    H226792   2.198   3.615  15.569  0.6812 -0.0280 -0.7425
 1793TIP3   OH226793   3.574   5.447  11.713  0.6559  0.1013  0.2099
 1793TIP3    H126794   3.541   5.375  11.660 -0.2890  1.5162 -1.2149
 1793TIP3    H226795   3.503   5.465  11.775  1.0406 -0.4186  0.8067
 1794TIP3   OH226796   4.657   0.266  13.312  0.1872 -0.1397  0.2275
 1794TIP3    H126797   4.578   0.267  13.366 -1.3125 -0.7448 -1.8230
 1794TIP3    H226798   4.659   0.352  13.271  0.3623 -0.2738 -0.0470
 1795TIP3   OH226799   2.751   2.627   5.808  0.7797 -0.3911  0.0227
 1795TIP3    H126800   2.687   2.611   5.878 -0.5366  1.5366 -0.6448
 1795TIP3    H226801   2.724   2.570   5.737  1.4363 -1.5217  0.6506
 1796TIP3   OH226802   4.359   0.636   2.508  0.1051  0.0911 -0.1191
 1796TIP3    H126803   4.437   0.584   2.487  0.3992  0.6221 -0.3561
 1796TIP3    H226804   4.286   0.582   2.477  0.2570 -1.0904  1.4677
 1797TIP3   OH226805   3.820   6.692   0.250  0.7958 -0.4213 -0.1674
 1797TIP3    H126806   3.876   6.625   0.289 -0.3091 -0.4406  1.4792
 1797TIP3    H226807   3.860   6.775   0.274  0.0063 -0.4288  1.2527
 1798TIP3   OH226808   2.167   6.450   2.306 -0.2181  0.1845  0.1762
 1798TIP3    H126809   2.103   6.521   2.316 -0.2665  0.0928  0.5536
 1798TIP3    H226810   2.239   6.474   2.364  1.1351  1.4165 -1.8831
 1799TIP3   OH226811   4.191   6.658  11.153 -0.3026  0.2989  0.1852
 1799TIP3    H126812   4.286   6.648  11.157 -0.1711  1.3957 -0.0164
 1799TIP3    H226813   4.169   6.641  11.061 -0.1860  0.9833  0.0291
 1800TIP3   OH226814   5.730   5.943  16.476  0.3658 -0.2734 -0.6549
 1800TIP3    H126815   5.659   5.913  16.420  0.8639 -0.6598 -1.0917
 1800TIP3    H226816   5.724   5.888  16.554  0.3796 -0.5244 -0.8290
 1801TIP3   OH226817   3.669   1.662  15.080  0.2688 -0.6057 -0.6044
 1801TIP3    H126818   3.732   1.591  15.095  0.9860 -0.3040 -2.0077
 1801TIP3    H226819   3.598   1.644  15.142  0.9691 -1.8895 -0.1259
 1802TIP3   OH226820   6.252   0.636   6.561  0.3076 -0.2536  0.2031
 1802TIP3    H126821   6.187   0.583   6.607  0.8674 -1.4421 -0.3580
 1802TIP3    H226822   6.201   0.696   6.507 -0.3266 -0.2613  0.7833
 1803TIP3   OH226823   2.298   2.241  17.231 -0.3130  0.4245  0.2086
 1803TIP3    H126824   2.299   2.213  17.140  0.6893  1.1625 -0.0221
 1803TIP3    H226825   2.211   2.281  17.243 -0.9518 -0.8566 -0.0337
 1804TIP3   OH226826   0.378   5.432  15.084  0.3078  0.1010  0.4394
 1804TIP3    H126827   0.432   5.395  15.155 -0.0267 -1.2622  0.0116
 1804TIP3    H226828   0.291   5.440  15.122 -0.1752 -1.8045 -0.1168
 1805TIP3   OH226829   6.122   2.926   6.193 -0.1612 -0.2007 -0.2383
 1805TIP3    H126830   6.042   2.878   6.171 -1.0557  0.3631  1.5410
 1805TIP3    H226831   6.091   3.011   6.223  0.9597 -0.4894  1.9471
 1806TIP3   OH226832   5.851   3.280  15.231 -0.0165  0.0909  0.4353
 1806TIP3    H126833   5.793   3.264  15.306  0.4539  0.1218  0.8110
 1806TIP3    H226834   5.796   3.329  15.169 -0.9703 -1.4841 -0.0228
 1807TIP3   OH226835   0.082   6.768  11.002  0.4861  0.2457  0.0526
 1807TIP3    H126836   0.126   6.736  11.080  0.0747 -0.2964  0.0677
 1807TIP3    H226837   0.151   6.807  10.949  0.8416  0.1764  0.4643
 1808TIP3   OH226838   3.019   4.585  13.899  0.3844  0.5013 -0.4586
 1808TIP3    H126839   3.103   4.587  13.853  0.9693  4.7779  0.3337
 1808TIP3    H226840   3.041   4.594  13.991 -0.9543 -0.8785  0.0459
 1809TIP3   OH226841   3.353   5.831  13.254 -0.1760 -0.4310 -0.0013
 1809TIP3    H126842   3.307   5.750  13.278 -0.6454 -0.2771 -0.3566
 1809TIP3    H226843   3.400   5.810  13.174 -0.8229 -0.1813 -0.4609
 1810TIP3   OH226844   2.854   0.797   4.498  0.1187  0.1562 -0.4070
 1810TIP3    H126845   2.789   0.861   4.525 -0.7593  0.5355 -3.1408
 1810TIP3    H226846   2.804   0.722   4.467  1.0242 -0.2447 -0.9611
 1811TIP3   OH226847   2.502   2.892  11.481  0.1923 -0.3013  0.1552
 1811TIP3    H126848   2.435   2.956  11.505 -0.5347 -0.5367 -1.1257
 1811TIP3    H226849   2.462   2.807  11.500  0.6958 -0.4184  0.7301
 1812TIP3   OH226850   3.842   2.550  14.807  0.2267 -0.3356  0.2642
 1812TIP3    H126851   3.874   2.468  14.846 -1.1021 -1.0430 -0.0826
 1812TIP3    H226852   3.812   2.601  14.882  2.2326  0.4183  0.6175
 1813TIP3   OH226853   5.756   1.594  12.874  0.3204  0.2135 -0.1777
 1813TIP3    H126854   5.680   1.538  12.859  1.4700 -1.9233  1.3806
 1813TIP3    H226855   5.747   1.665  12.810 -3.6025  0.7887  0.7509
 1814TIP3   OH226856   0.856   4.412   5.645 -0.2340  0.5001  0.2497
 1814TIP3    H126857   0.777   4.466   5.653 -0.8226 -0.3315  0.1407
 1814TIP3    H226858   0.891   4.408   5.735 -1.0648 -0.2281  0.5526
 1815TIP3   OH226859   5.947   4.518   0.910  0.0118 -0.1862 -0.9103
 1815TIP3    H126860   5.932   4.497   1.002  0.4965 -0.8677 -0.9829
 1815TIP3    H226861   6.042   4.518   0.900  0.1107  2.3717 -0.8472
 1816TIP3   OH226862   5.960   3.735   5.996 -0.2470  0.6482  0.3437
 1816TIP3    H126863   6.027   3.667   5.997 -0.8483  0.0334  1.0436
 1816TIP3    H226864   6.000   3.809   5.951  0.9293  0.3396  0.8542
 1817TIP3   OH226865   5.019   2.544  10.946  0.1166 -0.3117 -0.2161
 1817TIP3    H126866   5.060   2.560  10.861  0.6413  1.9873  0.3948
 1817TIP3    H226867   5.092   2.529  11.005 -0.1784 -0.6214  0.0712
 1818TIP3   OH226868   4.509   2.153   4.795 -0.1373 -0.6119  0.5453
 1818TIP3    H126869   4.458   2.229   4.766 -0.9603 -0.2735  2.6894
 1818TIP3    H226870   4.570   2.136   4.723  0.6409  2.5937  0.2862
 1819TIP3   OH226871   0.383   0.421   1.276 -0.4869 -0.1784  0.5347
 1819TIP3    H126872   0.297   0.394   1.244 -1.2360 -0.1757  2.3927
 1819TIP3    H226873   0.365   0.460   1.362  1.3937 -0.4012  1.0745
 1820TIP3   OH226874   6.375   2.703  13.086  0.3452 -0.4264 -0.1085
 1820TIP3    H126875   6.390   2.656  13.169  0.7647 -0.0774  0.0133
 1820TIP3    H226876   6.352   2.792  13.113 -0.6434 -0.5987 -0.3329
 1821TIP3   OH226877   5.096   2.441  11.572  0.1125 -0.1325  0.3170
 1821TIP3    H126878   5.066   2.350  11.580  0.5096 -0.2829  0.1391
 1821TIP3    H226879   5.132   2.446  11.483 -1.3792  0.6470 -0.2859
 1822TIP3   OH226880   6.221   3.286   3.753 -0.1978 -0.1387 -0.1041
 1822TIP3    H126881   6.290   3.321   3.697 -1.0484  1.8378  0.0091
 1822TIP3    H226882   6.201   3.200   3.716 -1.1403  1.2988 -3.3006
 1823TIP3   OH226883   6.386   0.447  11.393  0.0162  0.0062  0.2611
 1823TIP3    H126884   6.313   0.466  11.451 -0.1650  0.3257 -0.0660
 1823TIP3    H226885   6.403   0.529  11.348  0.4884 -0.1048  0.2336
 1824TIP3   OH226886   0.111   2.405  16.998  0.0290 -0.0070  0.0589
 1824TIP3    H126887   0.018   2.427  17.007 -0.0947 -0.5611  0.1826
 1824TIP3    H226888   0.111   2.311  16.977  0.5667 -0.0448  0.2239
 1825TIP3   OH226889   0.098   3.023  14.680  0.0246 -0.1678 -0.3180
 1825TIP3    H126890   0.181   2.997  14.720 -0.4094 -1.4988 -0.2220
 1825TIP3    H226891   0.088   2.964  14.605 -0.3549  0.6578 -0.9312
 1826TIP3   OH226892   5.380   1.631  17.034  0.3832 -0.3713  0.0564
 1826TIP3    H126893   5.306   1.595  16.985 -0.8308  0.6892  1.0453
 1826TIP3    H226894   5.365   1.602  17.124 -0.7765  2.6542  0.9447
 1827TIP3   OH226895   0.251   0.222  11.316  0.9590  0.1093 -0.0603
 1827TIP3    H126896   0.239   0.247  11.225  0.6220 -0.8351 -0.2853
 1827TIP3    H226897   0.186   0.153  11.331 -0.1369  1.3836  1.3660
 1828TIP3   OH226898   5.791   1.260  17.034 -0.1151 -0.2760  0.2458
 1828TIP3    H126899   5.794   1.203  16.956 -0.3875  0.5763 -0.4029
 1828TIP3    H226900   5.703   1.298  17.032 -0.9307 -1.8838  2.1857
 1829TIP3   OH226901   0.021   0.526   5.077 -0.5046  0.3861  0.4517
 1829TIP3    H126902   0.014   0.572   5.161  0.3690  0.4694  0.4918
 1829TIP3    H226903   0.011   0.434   5.100 -1.9122  0.5163  0.4172
 1830TIP3   OH226904   3.851   0.050   6.286  0.1305  0.5487  0.0258
 1830TIP3    H126905   3.763   0.020   6.309  0.7685 -0.9451  0.6734
 1830TIP3    H226906   3.894   0.065   6.370 -0.0207  3.0044 -0.2811
 1831TIP3   OH226907   1.438   3.742  15.798 -0.5431  0.3415  0.2875
 1831TIP3    H126908   1.343   3.746  15.802 -0.6034 -0.8501  0.2572
 1831TIP3    H226909   1.458   3.655  15.764  0.5457  0.8324 -0.3926
 1832TIP3   OH226910   2.843   1.344  15.971 -0.2048  0.2557  0.2114
 1832TIP3    H126911   2.783   1.352  16.045 -0.5832  0.9835 -0.1626
 1832TIP3    H226912   2.879   1.256  15.979 -0.4825  0.2086  1.0755
 1833TIP3   OH226913   1.687   2.740   0.063  0.1211 -0.3154  0.6371
 1833TIP3    H126914   1.775   2.726   0.098  0.1450 -1.4284  0.2020
 1833TIP3    H226915   1.699   2.798  -0.012  0.9024 -2.5054 -1.0406
 1834TIP3   OH226916   3.560   2.046  13.013  0.4569 -0.1913  0.1737
 1834TIP3    H126917   3.640   2.071  13.059 -0.2808 -0.7957  1.8742
 1834TIP3    H226918   3.564   1.951  13.006  0.4676 -0.1234 -0.8896
 1835TIP3   OH226919   3.731   1.450   3.971 -0.0719 -0.1948  0.7806
 1835TIP3    H126920   3.761   1.386   4.035  1.6366 -1.0866 -0.8054
 1835TIP3    H226921   3.784   1.528   3.988  0.5428 -0.5080  0.3476
 1836TIP3   OH226922   2.512   5.507  13.437  0.5054 -0.7155  0.4001
 1836TIP3    H126923   2.443   5.448  13.467 -0.6578 -0.2858 -1.2963
 1836TIP3    H226924   2.518   5.492  13.343  1.0712  0.9547  0.1378
 1837TIP3   OH226925   5.395   4.024  12.772  0.6763  0.2001  0.7367
 1837TIP3    H126926   5.345   4.085  12.718 -1.8309 -0.5489  2.0308
 1837TIP3    H226927   5.433   3.962  12.711 -1.6206 -0.3156 -0.2655
 1838TIP3   OH226928   1.671   1.239   2.088  0.0254  0.3677  0.6706
 1838TIP3    H126929   1.642   1.166   2.034  1.1591  1.0366 -0.9436
 1838TIP3    H226930   1.657   1.316   2.033  0.7515  1.1474  1.5370
 1839TIP3   OH226931   6.098   0.405   2.901 -0.6989  0.0225 -0.2227
 1839TIP3    H126932   6.079   0.370   2.988 -0.8080  0.8947  0.1177
 1839TIP3    H226933   6.013   0.437   2.869 -0.5437  0.2904 -0.3710
 1840TIP3   OH226934   1.123   5.477  13.496 -0.1245 -0.2368  0.6989
 1840TIP3    H126935   1.068   5.509  13.424  0.1476 -1.6316 -0.1714
 1840TIP3    H226936   1.155   5.392  13.465  0.6527 -0.4972  2.1508
 1841TIP3   OH226937   5.817   4.884  11.803  0.6297 -0.0705  0.2121
 1841TIP3    H126938   5.828   4.969  11.760  0.6894  0.0334  0.4255
 1841TIP3    H226939   5.895   4.876  11.859  0.2405  0.0930  0.7864
 1842TIP3   OH226940   3.810   6.289  12.254  0.2478 -0.3391  0.2478
 1842TIP3    H126941   3.753   6.267  12.180 -0.7291 -0.2340  0.9518
 1842TIP3    H226942   3.767   6.364  12.295  1.5634  0.5557  0.0709
 1843TIP3   OH226943   0.680   1.806  14.740  0.6676 -0.7775  0.6393
 1843TIP3    H126944   0.717   1.895  14.744 -1.9248  0.5392 -1.5275
 1843TIP3    H226945   0.652   1.788  14.829 -1.2723  1.8416  0.6708
 1844TIP3   OH226946   6.359   0.416   1.591 -0.1120  0.4944 -0.2371
 1844TIP3    H126947   6.274   0.373   1.582  0.4618 -0.2519 -2.7416
 1844TIP3    H226948   6.400   0.374   1.667 -1.0491 -0.7512 -0.4027
 1845TIP3   OH226949   3.882   5.881  12.473  0.2817  0.0047 -0.1509
 1845TIP3    H126950   3.923   5.795  12.459  3.2044  1.3659 -0.7671
 1845TIP3    H226951   3.956   5.942  12.474 -1.8811  2.9398 -2.8483
 1846TIP3   OH226952   6.720   4.243  15.453  0.1515 -0.1002 -0.3840
 1846TIP3    H126953   6.739   4.153  15.429 -1.5306 -0.5174 -0.2844
 1846TIP3    H226954   6.747   4.294  15.377  1.3059 -0.6408 -0.3614
 1847TIP3   OH226955   0.287   3.298   5.691  0.4172 -0.6724  0.0396
 1847TIP3    H126956   0.317   3.303   5.782 -1.0090  2.1894  0.4662
 1847TIP3    H226957   0.192   3.292   5.697  0.1472  1.3019 -1.1679
 1848TIP3   OH226958   0.611   2.861  12.201  0.4457  0.2936  0.7471
 1848TIP3    H126959   0.591   2.949  12.232  2.1477  0.3634  1.7753
 1848TIP3    H226960   0.562   2.803  12.259  0.7654  0.5253  1.2526
 1849TIP3   OH226961   5.787   3.450  13.354 -0.7516  0.4880 -0.4968
 1849TIP3    H126962   5.807   3.433  13.262  0.5059  0.2075 -0.1925
 1849TIP3    H226963   5.728   3.379  13.379 -0.2299 -0.0673 -0.8055
 1850TIP3   OH226964   0.240   5.735   0.660 -0.4905  0.1969  0.6075
 1850TIP3    H126965   0.307   5.721   0.728  1.0926  1.4396 -0.6379
 1850TIP3    H226966   0.206   5.647   0.642  0.6414 -0.4390  1.4427
 1851TIP3   OH226967   3.653   1.783   2.674 -0.2805 -0.6166 -0.0950
 1851TIP3    H126968   3.707   1.718   2.719 -2.0059 -1.0545  1.4901
 1851TIP3    H226969   3.672   1.865   2.719  0.2558 -0.4387 -0.6315
 1852TIP3   OH226970   0.780   2.348  12.667  0.0117 -0.2933 -0.4205
 1852TIP3    H126971   0.803   2.295  12.743  2.6741  0.6558 -0.4404
 1852TIP3    H226972   0.734   2.424  12.703 -0.3570 -0.7284  0.0289
 1853TIP3   OH226973   5.578   6.351   4.099  0.2779 -0.0485  0.0344
 1853TIP3    H126974   5.552   6.371   4.189  0.1429 -1.4098  0.3114
 1853TIP3    H226975   5.594   6.257   4.098 -1.0741 -0.3130 -1.6919
 1854TIP3   OH226976   0.113   5.036   1.533 -0.0497 -0.0197 -0.3452
 1854TIP3    H126977   0.127   4.970   1.465  1.3434  1.3927 -1.5077
 1854TIP3    H226978   0.195   5.037   1.582 -0.4143  0.2049  0.2748
 1855TIP3   OH226979   4.837   6.483   6.427  0.0309  0.1681 -0.4748
 1855TIP3    H126980   4.896   6.530   6.368 -0.6239  0.2780 -1.0573
 1855TIP3    H226981   4.766   6.545   6.445  1.1877  0.8621  2.0443
 1856TIP3   OH226982   2.421   4.286  16.477 -0.2941  0.1448  0.2374
 1856TIP3    H126983   2.382   4.301  16.390 -0.9422 -1.0495  0.2923
 1856TIP3    H226984   2.484   4.216  16.462 -0.8442 -0.4934  0.8205
 1857TIP3   OH226985   0.412   4.179   5.581 -0.2401 -0.3185 -0.5784
 1857TIP3    H126986   0.437   4.266   5.612 -0.6460 -0.5348  0.4057
 1857TIP3    H226987   0.494   4.132   5.574 -0.2230 -0.8212  1.9859
 1858TIP3   OH226988   3.305   0.095  15.925  0.4532  0.0031  0.1092
 1858TIP3    H126989   3.215   0.126  15.939  0.3198 -1.5269  3.5877
 1858TIP3    H226990   3.360   0.163  15.964  0.5490 -0.7218  1.2869
 1859TIP3   OH226991   1.882   0.986   0.473 -0.0249  0.2274 -0.1268
 1859TIP3    H126992   1.856   0.943   0.555 -0.4246 -0.9498 -0.8313
 1859TIP3    H226993   1.801   1.027   0.441  0.5444  2.3436  0.9778
 1860TIP3   OH226994   5.326   0.970  13.733  0.0379  0.0576  0.8301
 1860TIP3    H126995   5.284   0.959  13.648 -0.1307 -0.2302  0.9504
 1860TIP3    H226996   5.415   0.938  13.721 -0.0323 -0.1249  0.8046
 1861TIP3   OH226997   4.946   4.575  11.445  0.0726  0.1724 -0.3258
 1861TIP3    H126998   5.037   4.549  11.456  0.3622  0.6171 -1.5477
 1861TIP3    H226999   4.949   4.667  11.420 -0.7266  0.2296 -0.2601
 1862TIP3   OH227000   4.812   4.165   5.583 -0.2514 -0.2630 -0.1684
 1862TIP3    H127001   4.883   4.205   5.531 -0.5894 -0.3589 -0.7060
 1862TIP3    H227002   4.832   4.191   5.673  0.6638 -0.5730 -0.2654
 1863TIP3   OH227003   4.046   6.617  14.420 -0.6803  0.3832 -0.2186
 1863TIP3    H127004   4.061   6.597  14.513  0.4553  2.2354  0.0484
 1863TIP3    H227005   4.130   6.597  14.379 -0.4989  1.5736 -0.4559
 1864TIP3   OH227006   4.532   3.417   4.693  0.1033 -0.2566  0.5684
 1864TIP3    H127007   4.499   3.439   4.780  0.7440 -0.0859  0.7695
 1864TIP3    H227008   4.546   3.322   4.696 -1.1260 -0.4749  0.2157
 1865TIP3   OH227009   6.726   4.039  13.833  0.2543  0.3062  0.1645
 1865TIP3    H127010   6.636   4.072  13.826 -0.0591 -0.7202 -1.0412
 1865TIP3    H227011   6.721   3.971  13.901 -0.5506 -1.6450 -1.6960
 1866TIP3   OH227012   4.610   4.321   0.377 -0.1111  0.0058  0.3729
 1866TIP3    H127013   4.587   4.355   0.463  2.2484  0.6592  0.8069
 1866TIP3    H227014   4.571   4.383   0.315 -2.4318 -0.8534  0.8732
 1867TIP3   OH227015   0.886   4.398  16.898 -0.1656  0.5782 -0.2221
 1867TIP3    H127016   0.809   4.358  16.938  1.0089 -1.3343  0.3003
 1867TIP3    H227017   0.920   4.457  16.965 -1.1367  1.4223 -0.4530
 1868TIP3   OH227018   5.964   1.142  15.058 -0.3808 -0.1203 -0.5939
 1868TIP3    H127019   5.930   1.115  14.973 -0.1618  0.1998 -0.7810
 1868TIP3    H227020   6.040   1.197  15.038 -0.0881 -0.3691 -0.1876
 1869TIP3   OH227021   0.043   1.161  16.902 -0.0320 -0.5165 -0.3152
 1869TIP3    H127022  -0.035   1.218  16.900 -0.6970 -1.2711  1.6562
 1869TIP3    H227023   0.107   1.210  16.954 -0.3831 -1.2342  0.8450
 1870TIP3   OH227024   3.736   4.725  11.521  0.4329 -0.4589 -1.1978
 1870TIP3    H127025   3.776   4.687  11.600 -0.0860 -1.6853 -1.4929
 1870TIP3    H227026   3.787   4.804  11.505  0.2094  0.1212  0.6624
 1871TIP3   OH227027   6.777   2.426  14.549 -0.4973  0.3590  0.0871
 1871TIP3    H127028   6.778   2.381  14.465  0.3852 -2.7238  1.5908
 1871TIP3    H227029   6.828   2.505  14.535 -0.2153 -0.1699 -2.2103
 1872TIP3   OH227030   2.218   4.646  16.134  0.1396 -0.3725 -0.1969
 1872TIP3    H127031   2.248   4.591  16.206 -0.8867  0.7244  1.1371
 1872TIP3    H227032   2.297   4.689  16.101  0.5133 -0.1845  0.9138
 1873TIP3   OH227033   3.342   2.656   1.648  0.5262 -0.3952  0.0639
 1873TIP3    H127034   3.381   2.618   1.726  0.4416  1.3380  1.0006
 1873TIP3    H227035   3.248   2.642   1.659  0.5574 -0.7112 -0.0542
 1874TIP3   OH227036   5.657   2.048   1.006 -0.4565  0.0031 -0.5407
 1874TIP3    H127037   5.660   1.952   1.006 -1.3241 -0.0245 -0.2902
 1874TIP3    H227038   5.568   2.070   0.981 -0.1863  0.7591 -0.8782
 1875TIP3   OH227039   6.455   4.385  13.127 -0.4228 -0.5214 -0.1686
 1875TIP3    H127040   6.388   4.381  13.059 -0.4158  1.7385 -0.4050
 1875TIP3    H227041   6.481   4.294  13.141 -3.3959 -1.4896 -0.1707
 1876TIP3   OH227042   3.511   2.728   5.685 -0.8285 -0.3447  0.1136
 1876TIP3    H127043   3.416   2.733   5.673 -1.2697  0.9588  3.2823
 1876TIP3    H227044   3.523   2.659   5.751  0.7169 -2.0793 -1.8241
 1877TIP3   OH227045   1.762   3.145   3.812  0.8609 -0.6143  0.0420
 1877TIP3    H127046   1.764   3.119   3.720 -2.7426 -0.3344 -0.2440
 1877TIP3    H227047   1.736   3.237   3.810 -0.0339 -0.8165  1.3361
 1878TIP3   OH227048   2.052   0.524  14.130 -0.0778  0.6516  0.4838
 1878TIP3    H127049   2.085   0.480  14.051  1.5125  0.3453  1.2782
 1878TIP3    H227050   2.130   0.538  14.184 -0.9062  2.2555  1.3379
 1879TIP3   OH227051   6.267   6.453  12.036  0.2209 -0.1028 -0.3579
 1879TIP3    H127052   6.334   6.514  12.067  0.5301 -0.3587 -0.5178
 1879TIP3    H227053   6.267   6.464  11.940 -1.3130  1.2951 -0.2385
 1880TIP3   OH227054   2.188   3.556  14.116  0.2393 -0.4607  0.1998
 1880TIP3    H127055   2.207   3.516  14.032  0.2341 -1.0133  0.4577
 1880TIP3    H227056   2.251   3.628  14.123 -1.0168  0.8235 -1.1139
 1881TIP3   OH227057   3.627   5.232   3.676 -0.0577  0.0853 -0.2509
 1881TIP3    H127058   3.564   5.236   3.748  0.5446  1.8094  0.2250
 1881TIP3    H227059   3.580   5.272   3.602 -1.0180 -2.5118 -1.1743
 1882TIP3   OH227060   0.045   5.994  17.229  0.1852  0.0522  0.5055
 1882TIP3    H127061   0.019   6.060  17.164  3.1950  2.3947  1.3891
 1882TIP3    H227062   0.099   6.043  17.291  1.1904 -2.9798  2.2270
 1883TIP3   OH227063   5.948   1.406  15.508 -0.6565 -0.6539  0.1758
 1883TIP3    H127064   5.897   1.364  15.439 -0.5208  0.4389 -0.6196
 1883TIP3    H227065   6.035   1.419  15.470 -0.1054 -1.4386  1.1098
 1884TIP3   OH227066   5.507   4.439  12.000  0.0629 -0.1528  0.5339
 1884TIP3    H127067   5.563   4.514  11.978 -1.3277  0.4350 -1.2777
 1884TIP3    H227068   5.555   4.363  11.967  0.8169  0.0779  1.0680
 1885TIP3   OH227069   6.041   1.499  13.221 -0.1909  0.0945 -0.4350
 1885TIP3    H127070   6.040   1.496  13.125  0.9319  1.7244 -0.5328
 1885TIP3    H227071   6.110   1.561  13.243 -0.0945 -0.6118  1.4640
 1886TIP3   OH227072   0.596   3.924  11.141  0.7156 -0.2226  0.5352
 1886TIP3    H127073   0.668   3.884  11.092  0.9395 -1.4440  1.8052
 1886TIP3    H227074   0.636   3.953  11.223 -0.3132 -1.2911  1.4347
 1887TIP3   OH227075   0.539   0.941  11.123 -0.3707  0.0258 -0.3236
 1887TIP3    H127076   0.615   0.924  11.178  1.1918  0.7530 -2.1111
 1887TIP3    H227077   0.553   0.887  11.045 -1.5566  0.3517 -0.7828
 1888TIP3   OH227078   0.606   6.175  11.664  0.1478  0.0951  0.1194
 1888TIP3    H127079   0.516   6.145  11.677 -0.5402  2.1098  0.3538
 1888TIP3    H227080   0.660   6.101  11.691 -1.4111 -1.6619 -1.2702
 1889TIP3   OH227081   0.837   1.573  14.915  0.0333 -0.5981  0.0014
 1889TIP3    H127082   0.779   1.634  14.961  1.6215  0.5898  0.5085
 1889TIP3    H227083   0.804   1.486  14.939 -0.5632  0.0244  1.5622
 1890TIP3   OH227084   1.757   2.561  16.646  0.3008 -0.0186  0.3938
 1890TIP3    H127085   1.784   2.474  16.616  0.6403  0.3599 -0.4299
 1890TIP3    H227086   1.832   2.617  16.629 -0.5067  0.7735 -0.6604
 1891TIP3   OH227087   2.940   2.823   6.031 -0.1499 -0.0972 -0.2413
 1891TIP3    H127088   2.992   2.766   5.974  0.7653 -0.2908  0.7488
 1891TIP3    H227089   2.859   2.839   5.982 -0.1808 -1.7587 -0.7846
 1892TIP3   OH227090   4.727   3.253  17.047 -0.0576  0.3870 -0.1819
 1892TIP3    H127091   4.667   3.278  16.977 -1.5349 -0.3892  0.7386
 1892TIP3    H227092   4.684   3.282  17.128  0.3794 -0.9561  0.5727
 1893TIP3   OH227093   3.387   1.548   5.532  0.3233 -0.0313 -0.8883
 1893TIP3    H127094   3.354   1.459   5.515 -0.3030 -0.3427  1.5755
 1893TIP3    H227095   3.414   1.547   5.624 -2.2936  3.0375  0.1040
 1894TIP3   OH227096   3.228   0.892  12.104 -0.2269  0.1033 -0.1629
 1894TIP3    H127097   3.141   0.861  12.130  0.1925 -0.5081  0.5642
 1894TIP3    H227098   3.286   0.857  12.171  0.3063  2.4683  0.6997
 1895TIP3   OH227099   6.301   2.802   1.843  0.3625 -0.6887 -0.0632
 1895TIP3    H127100   6.264   2.772   1.926 -0.1074 -0.7361 -0.2838
 1895TIP3    H227101   6.375   2.857   1.868 -0.7202  0.5984  0.4550
 1896TIP3   OH227102   3.727   2.858  14.351 -0.2281  0.1354  0.3086
 1896TIP3    H127103   3.806   2.851  14.299  1.2319 -3.4019  2.6119
 1896TIP3    H227104   3.658   2.823  14.295  0.2533  1.0798 -0.9109
 1897TIP3   OH227105   4.139   6.619  11.907  0.2615  0.0112 -0.6993
 1897TIP3    H127106   4.080   6.580  11.971  0.2601  0.8188 -0.1941
 1897TIP3    H227107   4.141   6.556  11.835  0.8530 -1.2830  0.4009
 1898TIP3   OH227108   4.215   1.970   5.527  0.1377  0.0700  0.2191
 1898TIP3    H127109   4.287   1.964   5.464 -0.4582 -0.2884 -0.4588
 1898TIP3    H227110   4.139   1.940   5.477 -0.0934 -1.7036  1.5725
 1899TIP3   OH227111   0.677   4.478  13.054 -0.1855  0.3491  0.0183
 1899TIP3    H127112   0.617   4.443  12.989 -1.7536  0.6656  1.2296
 1899TIP3    H227113   0.628   4.474  13.136  1.9561 -0.6693  1.3253
 1900TIP3   OH227114   5.690   2.077  15.568  0.2186 -0.4594 -0.1734
 1900TIP3    H127115   5.643   1.995  15.585  1.7018 -1.2259  0.4218
 1900TIP3    H227116   5.733   2.063  15.483  0.8485 -0.4892  0.1459
 1901TIP3   OH227117   4.604   3.860  16.045 -0.0386 -0.2495 -0.4151
 1901TIP3    H127118   4.579   3.790  15.985 -0.0356 -1.0969  0.5533
 1901TIP3    H227119   4.639   3.928  15.988 -2.9812  0.3573 -1.7151
 1902TIP3   OH227120   1.820   3.879  12.427  0.2324 -0.3521  0.5520
 1902TIP3    H127121   1.895   3.841  12.472 -0.0261 -0.0997  1.2075
 1902TIP3    H227122   1.768   3.919  12.496 -0.4283 -0.3857  0.0889
 1903TIP3   OH227123   0.640   6.571  15.912 -0.0924 -0.0389 -0.0941
 1903TIP3    H127124   0.719   6.625  15.907  0.3766 -0.8306 -2.2859
 1903TIP3    H227125   0.588   6.597  15.836  0.3247 -2.8367 -1.4625
 1904TIP3   OH227126   6.593   0.452   1.078  0.2792  0.2518 -0.4588
 1904TIP3    H127127   6.575   0.456   1.172 -0.0484  1.1847 -0.5503
 1904TIP3    H227128   6.509   0.430   1.038  0.4521 -0.2951 -0.5269
 1905TIP3   OH227129   4.410   3.024  15.684 -0.0369 -0.1092 -0.0676
 1905TIP3    H127130   4.494   3.049  15.721  0.0698 -1.3350  0.5726
 1905TIP3    H227131   4.404   2.930  15.698 -1.5769 -0.0307  0.0326
 1906TIP3   OH227132   3.855   5.558   3.295  0.1902 -0.2903 -0.0168
 1906TIP3    H127133   3.791   5.508   3.245 -0.4618 -0.1551  0.6736
 1906TIP3    H227134   3.839   5.533   3.386  0.6714  0.2637  0.2249
 1907TIP3   OH227135   1.298   4.457   0.158 -0.0855 -0.0282 -0.5084
 1907TIP3    H127136   1.333   4.368   0.155 -1.0259 -0.3949 -1.1085
 1907TIP3    H227137   1.374   4.512   0.176  0.5759 -0.9186 -0.5184
 1908TIP3   OH227138   4.340   4.257   2.246 -0.4046  0.3353  0.3590
 1908TIP3    H127139   4.335   4.177   2.193 -1.0142  1.7039 -1.7718
 1908TIP3    H227140   4.426   4.252   2.288 -0.3806 -1.3672  0.1968
 1909TIP3   OH227141   6.766   0.585  14.069 -0.5385  0.1344 -0.4271
 1909TIP3    H127142   6.693   0.647  14.068 -0.7526 -0.0796  0.6766
 1909TIP3    H227143   6.730   0.504  14.033 -0.4573  0.4229 -1.1785
 1910TIP3   OH227144   4.415   4.524  12.867  0.3166 -0.3434  0.2911
 1910TIP3    H127145   4.333   4.573  12.863 -0.5329 -1.7706 -0.8569
 1910TIP3    H227146   4.428   4.492  12.778  1.1574 -1.6579  0.8557
 1911TIP3   OH227147   2.676   1.230  13.663 -0.2794  0.5403  0.3086
 1911TIP3    H127148   2.720   1.197  13.741 -2.1966 -2.9957  0.1075
 1911TIP3    H227149   2.732   1.203  13.590  1.0049  2.9695  0.2974
 1912TIP3   OH227150   0.061   3.443  15.615  0.4274  0.1911  0.4173
 1912TIP3    H127151   0.087   3.351  15.628  0.3670 -0.1148 -1.3661
 1912TIP3    H227152  -0.021   3.438  15.567 -0.8258  1.2097  2.3055
 1913TIP3   OH227153   3.448   6.287   0.523 -0.3126  0.7031 -0.0801
 1913TIP3    H127154   3.524   6.344   0.510  0.0646  0.1635 -0.2638
 1913TIP3    H227155   3.374   6.347   0.529  0.0892  1.2182 -0.2022
 1914TIP3   OH227156   0.853   0.634  12.658  0.2182 -0.2091  0.2344
 1914TIP3    H127157   0.874   0.679  12.576 -0.8094  0.4567  0.3202
 1914TIP3    H227158   0.927   0.654  12.716  1.0106 -0.7916 -0.5581
 1915TIP3   OH227159   2.385   4.195  16.774 -0.1586 -0.2899 -0.3275
 1915TIP3    H127160   2.342   4.110  16.764 -0.4744 -0.3240  1.1567
 1915TIP3    H227161   2.393   4.228  16.684 -2.7815 -0.5353 -0.7366
 1916TIP3   OH227162   0.243   5.935  15.379 -0.2878  0.2885  0.0497
 1916TIP3    H127163   0.153   5.956  15.404 -0.2286  0.3432  0.2177
 1916TIP3    H227164   0.286   5.913  15.462  0.2094  1.5683  0.1541
 1917TIP3   OH227165   2.736   4.099  11.915  0.0041 -0.3051 -0.2828
 1917TIP3    H127166   2.677   4.046  11.968  0.1726 -0.5012 -0.2899
 1917TIP3    H227167   2.776   4.037  11.854  0.1101 -0.1481 -0.3738
 1918TIP3   OH227168   3.769   5.404  15.516 -0.2235 -0.3635  0.4415
 1918TIP3    H127169   3.674   5.414  15.517 -0.3379 -0.6018 -1.9977
 1918TIP3    H227170   3.790   5.387  15.424  2.1714 -0.4561  0.9508
 1919TIP3   OH227171   5.010   3.616   0.447  0.0490 -0.1292 -0.0536
 1919TIP3    H127172   4.940   3.667   0.488  0.3913  0.5576 -0.3149
 1919TIP3    H227173   5.069   3.593   0.519 -0.6352 -1.0651  0.2424
 1920TIP3   OH227174   2.727   2.210   2.384 -0.0122 -0.4363  0.4251
 1920TIP3    H127175   2.778   2.131   2.400  0.5868  0.1782  1.7513
 1920TIP3    H227176   2.785   2.266   2.334 -0.0964 -0.4831  0.2754
 1921TIP3   OH227177   5.362   3.704   0.844  0.7730  0.2952  0.3400
 1921TIP3    H127178   5.341   3.741   0.930  1.5927 -0.7920  1.0321
 1921TIP3    H227179   5.457   3.701   0.842  0.7721  0.7031 -0.7976
 1922TIP3   OH227180   4.701   2.539  13.026 -0.8133  0.5298  0.4543
 1922TIP3    H127181   4.686   2.448  13.050 -0.5784  0.3787  0.0359
 1922TIP3    H227182   4.728   2.581  13.108  0.8137 -0.1583  0.3122
 1923TIP3   OH227183   5.645   6.307  16.338  0.2781  0.3422  0.0287
 1923TIP3    H127184   5.566   6.272  16.381  0.1855 -1.7044 -1.6091
 1923TIP3    H227185   5.632   6.402  16.337 -1.3443  0.1826  1.3198
 1924TIP3   OH227186   0.850   6.731  12.333 -0.1049 -0.2374  0.2306
 1924TIP3    H127187   0.869   6.796  12.401  1.1959 -0.2891 -0.0512
 1924TIP3    H227188   0.904   6.655  12.357  0.6842 -0.1101 -1.0587
 1925TIP3   OH227189   2.964   0.615   5.377  0.5309  0.5132  0.1831
 1925TIP3    H127190   2.889   0.617   5.317 -0.9659 -0.2926  1.9297
 1925TIP3    H227191   3.024   0.682   5.343 -1.2041  1.5544 -0.9824
 1926TIP3   OH227192   2.683   5.836   4.986 -0.3990 -0.0474  0.5712
 1926TIP3    H127193   2.763   5.855   4.936 -0.3102 -0.2690  0.6264
 1926TIP3    H227194   2.642   5.764   4.939 -0.2624 -0.3250  0.8733
 1927TIP3   OH227195   2.818   4.164   5.192  0.2595  0.1682 -0.5368
 1927TIP3    H127196   2.743   4.149   5.251 -1.0043  0.4084 -2.0207
 1927TIP3    H227197   2.798   4.111   5.115  2.1130 -0.4995 -0.6076
 1928TIP3   OH227198   2.956   2.298   2.132  0.3189 -0.1294 -0.1461
 1928TIP3    H127199   3.033   2.299   2.076  1.1518 -3.1628  0.7735
 1928TIP3    H227200   2.883   2.282   2.072  0.4287  1.9379 -0.9154
 1929TIP3   OH227201   6.483   1.574   1.847 -0.3330  0.4463  0.1555
 1929TIP3    H127202   6.455   1.482   1.848 -1.1750  0.6684  1.6038
 1929TIP3    H227203   6.548   1.580   1.777  0.7352 -1.5601  0.8920
 1930TIP3   OH227204   2.892   2.472  15.091 -0.3028 -0.9585  1.1715
 1930TIP3    H127205   2.943   2.550  15.112  0.3176 -1.4574  1.5647
 1930TIP3    H227206   2.908   2.413  15.165  0.1015 -1.8717  0.3736
 1931TIP3   OH227207   1.448   1.956  13.062 -0.0060  0.1189  0.3840
 1931TIP3    H127208   1.375   1.903  13.094  0.9245 -0.4889  1.5971
 1931TIP3    H227209   1.419   2.046  13.073 -1.8262 -0.0445 -2.1864
 1932TIP3   OH227210   0.114   2.658  16.592 -0.1689 -0.3379 -0.0609
 1932TIP3    H127211   0.089   2.660  16.684 -1.4047 -0.4293 -0.3647
 1932TIP3    H227212   0.202   2.621  16.591 -0.7696 -1.9244  0.9783
 1933TIP3   OH227213   2.913   4.338   5.420 -0.2300 -0.2540 -0.2790
 1933TIP3    H127214   2.875   4.288   5.348 -0.6809 -0.4222  0.0762
 1933TIP3    H227215   2.884   4.428   5.405 -2.4065 -0.6771  1.0496
 1934TIP3   OH227216   4.281   6.545   6.453 -0.2079  0.0385 -0.3024
 1934TIP3    H127217   4.350   6.542   6.387 -1.5673 -1.9052 -1.7787
 1934TIP3    H227218   4.220   6.611   6.420 -0.3480 -0.1463 -0.4164
 1935TIP3   OH227219   0.001   4.266  15.179 -0.5567  0.3413  0.4232
 1935TIP3    H127220   0.039   4.258  15.092  0.5476  0.7875  0.8488
 1935TIP3    H227221   0.024   4.354  15.208 -1.4400  0.4235  0.9277
 1936TIP3   OH227222   5.616   1.451  11.038  0.0309  0.4512  0.0327
 1936TIP3    H127223   5.627   1.525  10.979  0.7134  0.2258 -0.1257
 1936TIP3    H227224   5.587   1.490  11.121  1.0805  0.9650  0.1716
 1937TIP3   OH227225   4.697   1.733   5.321  0.2979 -0.1407  0.2233
 1937TIP3    H127226   4.705   1.822   5.288 -0.3675  0.2733  1.1495
 1937TIP3    H227227   4.771   1.686   5.282 -0.1536  0.4476 -1.4251
 1938TIP3   OH227228   5.789   1.092  10.126  0.2595  0.0910  1.2397
 1938TIP3    H127229   5.769   1.003  10.096 -1.9376  0.5714  1.1523
 1938TIP3    H227230   5.877   1.084  10.164  0.2285 -2.0553  1.0189
 1939TIP3   OH227231   1.563   2.963   5.809 -1.0379 -0.2315 -0.7780
 1939TIP3    H127232   1.491   2.924   5.760 -1.7914 -0.7031  0.6557
 1939TIP3    H227233   1.632   2.897   5.808 -0.3791  0.4020 -2.5549
 1940TIP3   OH227234   2.688   6.499   5.271 -0.6341 -0.0788  0.1018
 1940TIP3    H127235   2.629   6.432   5.236  0.9682 -0.0610 -2.9939
 1940TIP3    H227236   2.774   6.459   5.269  0.2809  1.7814 -1.2336
 1941TIP3   OH227237   6.221   4.830  14.739 -0.5101 -0.2654 -0.1974
 1941TIP3    H127238   6.195   4.828  14.831  2.6292 -0.8017  0.7895
 1941TIP3    H227239   6.226   4.923  14.718  0.7967 -0.0643  0.8787
 1942TIP3   OH227240   3.799   6.741  14.469 -0.1160 -0.0745  0.0568
 1942TIP3    H127241   3.881   6.698  14.448  0.1503  0.4019  0.0934
 1942TIP3    H227242   3.771   6.702  14.552 -1.3772 -2.2606 -1.2986
 1943TIP3   OH227243   1.304   1.815  14.541  0.2953  1.0243 -0.6919
 1943TIP3    H127244   1.395   1.793  14.562  0.4608 -0.7052 -2.8549
 1943TIP3    H227245   1.252   1.769  14.606  0.9221  0.8021 -0.3457
 1944TIP3   OH227246   6.473   2.036   2.037  0.2043  0.4225 -0.1029
 1944TIP3    H127247   6.410   1.964   2.047 -0.4170  0.8009 -1.2021
 1944TIP3    H227248   6.550   2.007   2.085 -1.1838  0.4363  2.3331
 1945TIP3   OH227249   5.040   1.118   4.153  0.2089 -0.0437 -0.4369
 1945TIP3    H127250   5.113   1.168   4.191 -0.2841  0.6648 -0.3986
 1945TIP3    H227251   4.977   1.185   4.127 -0.0845 -0.6089 -1.2048
 1946TIP3   OH227252   5.711   6.440   2.844 -0.8272 -0.1086  0.0295
 1946TIP3    H127253   5.712   6.519   2.898 -2.0396  0.6112 -0.9492
 1946TIP3    H227254   5.801   6.433   2.810 -0.8941  1.3593 -0.5459
 1947TIP3   OH227255   4.315   2.922   1.893  0.3921  0.3153  0.2375
 1947TIP3    H127256   4.231   2.884   1.920 -0.4268  2.5421  1.0641
 1947TIP3    H227257   4.348   2.861   1.827 -1.1805 -1.3616  0.8964
 1948TIP3   OH227258   3.963   2.406  15.545 -0.1099  0.1627  0.0728
 1948TIP3    H127259   3.961   2.450  15.460 -1.3479 -0.8472 -0.4556
 1948TIP3    H227260   3.923   2.320  15.528 -0.7390  0.0953  1.7581
 1949TIP3   OH227261   2.727   2.409   6.090  0.1969  0.4092 -0.6626
 1949TIP3    H127262   2.727   2.392   6.184 -1.4062 -0.1397 -0.7284
 1949TIP3    H227263   2.819   2.422   6.067  0.4913  2.0415  1.2276
 1950TIP3   OH227264   0.285   1.432   4.850 -0.3793  0.1112 -0.7644
 1950TIP3    H127265   0.306   1.376   4.776  0.4600  0.4811 -0.8168
 1950TIP3    H227266   0.191   1.420   4.864 -0.2887 -1.0021 -1.0202
 1951TIP3   OH227267   3.310   2.986   4.489  0.6594  0.1242 -0.0912
 1951TIP3    H127268   3.348   3.001   4.402  0.5734  3.5118  0.3303
 1951TIP3    H227269   3.369   2.923   4.530  1.9873  0.1580 -1.8106
 1952TIP3   OH227270   0.360   3.893  16.619 -0.4968  0.1653 -0.4338
 1952TIP3    H127271   0.375   3.987  16.628  0.4626 -0.1367  1.7496
 1952TIP3    H227272   0.442   3.859  16.583 -0.6247  0.0977 -0.6595
 1953TIP3   OH227273   3.024   5.333  14.207  0.1071 -0.0857 -0.1669
 1953TIP3    H127274   2.950   5.377  14.248  1.1855 -0.1253  2.0091
 1953TIP3    H227275   3.098   5.350  14.266  2.2435  1.1714 -2.9309
 1954TIP3   OH227276   3.358   1.268   5.522 -0.0409  0.2352 -1.0715
 1954TIP3    H127277   3.413   1.219   5.582  2.1602  2.6380 -0.9350
 1954TIP3    H227278   3.410   1.275   5.441 -1.5152 -0.0731 -2.0908
 1955TIP3   OH227279   4.851   2.995  14.897 -0.0269  0.6540 -0.0136
 1955TIP3    H127280   4.869   2.920  14.954  0.8437  0.1149 -0.9536
 1955TIP3    H227281   4.819   3.063  14.956  0.5128  0.0011  1.0730
 1956TIP3   OH227282   5.645   2.926  14.759  0.7126  0.4218  0.0647
 1956TIP3    H127283   5.572   2.866  14.744  1.4996 -0.4645 -0.2979
 1956TIP3    H227284   5.692   2.890  14.834  0.0264  1.7343  1.1556
 1957TIP3   OH227285   2.863   2.186   5.241  0.1798  0.0878  0.4012
 1957TIP3    H127286   2.853   2.262   5.184 -1.5794 -0.2684  0.1619
 1957TIP3    H227287   2.957   2.170   5.244  0.4713  1.3936 -0.6995
 1958TIP3   OH227288   0.017   4.773   3.497  0.2956 -0.1837  0.8777
 1958TIP3    H127289   0.050   4.760   3.408  0.2302 -0.9762  0.9694
 1958TIP3    H227290   0.095   4.769   3.552  0.0083 -3.1433  1.2151
 1959TIP3   OH227291   4.776   6.217  17.108 -0.3949  0.0113  0.2886
 1959TIP3    H127292   4.856   6.257  17.142 -0.1689 -0.4571  0.3237
 1959TIP3    H227293   4.789   6.215  17.013 -1.5545  2.4572 -0.0022
 1960TIP3   OH227294   3.106   0.306   4.878 -0.5933 -0.1286  0.2545
 1960TIP3    H127295   3.071   0.253   4.806  0.8889  1.7508 -2.0293
 1960TIP3    H227296   3.042   0.376   4.890 -0.6331 -0.2020  0.4718
 1961TIP3   OH227297   2.375   3.517  16.862 -0.4004 -0.2403  0.1737
 1961TIP3    H127298   2.334   3.463  16.929 -1.1086 -0.8074 -0.6905
 1961TIP3    H227299   2.455   3.549  16.902 -0.8049 -0.5722  1.2825
 1962TIP3   OH227300   0.387   6.146   2.925  0.0124  0.6011 -0.5232
 1962TIP3    H127301   0.446   6.102   2.987 -1.2927 -1.1395 -0.4473
 1962TIP3    H227302   0.343   6.213   2.977  0.6572  0.7527 -0.1627
 1963TIP3   OH227303   0.084   1.337   3.985 -0.1558  0.0058 -0.5413
 1963TIP3    H127304   0.100   1.430   3.999  0.5854 -0.2847  0.7474
 1963TIP3    H227305   0.005   1.333   3.931  1.0458  1.4211 -2.5558
 1964TIP3   OH227306   2.035   0.604   2.931  0.6272  0.3410 -0.2039
 1964TIP3    H127307   2.013   0.690   2.895 -0.1383  0.8855  1.4965
 1964TIP3    H227308   1.950   0.562   2.946  0.9350 -0.0042  0.6335
 1965TIP3   OH227309   5.944   2.528   4.591 -0.0081  0.3660 -0.3395
 1965TIP3    H127310   5.952   2.433   4.605  0.9046  0.5998  0.9104
 1965TIP3    H227311   6.034   2.560   4.595 -0.4337  1.4794  0.8321
 1966TIP3   OH227312   3.293   6.234  13.368 -0.0045 -0.2470 -0.6770
 1966TIP3    H127313   3.206   6.271  13.351 -1.3546 -2.4106  1.0370
 1966TIP3    H227314   3.312   6.182  13.291  0.3359  1.1152 -1.5541
 1967TIP3   OH227315   0.728   6.513  12.604  0.3983 -0.1477 -0.3166
 1967TIP3    H127316   0.695   6.546  12.520  0.0300 -0.6465 -0.3705
 1967TIP3    H227317   0.737   6.590  12.659  3.0059  0.5783 -1.5949
 1968TIP3   OH227318   4.755   4.599   3.779  0.6441 -0.5937 -0.0676
 1968TIP3    H127319   4.662   4.613   3.764  1.0040  1.5174 -0.6263
 1968TIP3    H227320   4.791   4.579   3.693  0.6519 -2.0909  0.2470
 1969TIP3   OH227321   4.388   2.039  11.125  0.0918  0.3359 -0.5542
 1969TIP3    H127322   4.310   1.994  11.091  1.3883 -1.6097 -1.1098
 1969TIP3    H227323   4.422   2.087  11.049  1.0861 -1.2707 -1.1723
 1970TIP3   OH227324   3.757   5.069  13.288  0.1286 -0.5617  0.2343
 1970TIP3    H127325   3.721   4.986  13.254  0.3239 -0.2198 -0.8439
 1970TIP3    H227326   3.809   5.104  13.216  0.8683  0.0239  1.0317
 1971TIP3   OH227327   1.686   3.125  16.336 -0.4060 -0.0587 -0.5510
 1971TIP3    H127328   1.755   3.089  16.281  0.8091 -0.4890  1.1720
 1971TIP3    H227329   1.639   3.048  16.370 -1.6301  0.2202 -1.5170
 1972TIP3   OH227330   4.545   4.604  11.893 -0.4278 -0.4593 -0.2369
 1972TIP3    H127331   4.522   4.512  11.880  0.5903 -0.4377 -2.7438
 1972TIP3    H227332   4.601   4.626  11.819 -0.6799  2.2192  0.2512
 1973TIP3   OH227333   0.847   1.231  15.369 -0.2241 -0.5094  0.3428
 1973TIP3    H127334   0.898   1.156  15.339  0.4631  0.3312 -0.6489
 1973TIP3    H227335   0.878   1.304  15.316 -1.2815  0.3691  0.8948
 1974TIP3   OH227336   5.389   2.163  13.117  0.6278 -0.0353  0.0673
 1974TIP3    H127337   5.320   2.223  13.145  0.2390 -0.4681  0.0417
 1974TIP3    H227338   5.467   2.193  13.165 -0.1582 -1.1340  2.1518
 1975TIP3   OH227339   2.649   6.067  17.251  0.8388  0.3628  0.3236
 1975TIP3    H127340   2.741   6.073  17.278  1.2195  0.4270 -0.9357
 1975TIP3    H227341   2.651   6.074  17.156 -0.3447 -1.2572  0.1379
 1976TIP3   OH227342   5.209   2.349   2.005 -0.3085 -0.2174  0.1243
 1976TIP3    H127343   5.177   2.275   2.056 -0.3460 -0.5971 -0.4450
 1976TIP3    H227344   5.294   2.371   2.044 -2.5085  2.9347  3.8835
 1977TIP3   OH227345   0.716   5.422   3.744 -0.4438  0.0565  0.5027
 1977TIP3    H127346   0.766   5.454   3.819 -0.0660  0.0519  0.2595
 1977TIP3    H227347   0.659   5.354   3.780 -2.2002  1.8399  1.2650
 1978TIP3   OH227348   1.300   3.036  14.826  0.3217 -0.6779  0.0763
 1978TIP3    H127349   1.353   2.970  14.871  0.4081 -1.2661 -0.8483
 1978TIP3    H227350   1.261   2.988  14.752 -0.2174  0.1315 -0.1749
 1979TIP3   OH227351   2.264   3.332  14.337 -0.6201 -0.3344 -0.5848
 1979TIP3    H127352   2.238   3.409  14.286  1.0920  0.3522 -0.4988
 1979TIP3    H227353   2.217   3.259  14.296  0.2861  0.2659 -2.8266
 1980TIP3   OH227354   5.007   2.343  12.608  0.3419  0.1869  0.0402
 1980TIP3    H127355   5.044   2.421  12.649 -0.8826  1.5170 -1.2604
 1980TIP3    H227356   4.916   2.342  12.636  0.2991 -0.6741 -0.1120
 1981TIP3   OH227357   6.752   6.562   2.131 -0.3527 -0.6829  0.4858
 1981TIP3    H127358   6.720   6.472   2.125 -0.0353 -0.7488 -0.4075
 1981TIP3    H227359   6.845   6.555   2.110 -0.4718 -0.0662 -0.3034
 1982TIP3   OH227360   1.912   1.035   3.974  0.5052  0.0245  0.2745
 1982TIP3    H127361   1.966   0.961   4.002 -0.8711 -0.9768  0.3818
 1982TIP3    H227362   1.875   1.070   4.054  0.0147 -0.0921  0.1034
 1983TIP3   OH227363   0.162   2.978  16.157  0.3630 -0.1298 -0.2300
 1983TIP3    H127364   0.138   2.940  16.073 -2.8039  0.0954  0.4442
 1983TIP3    H227365   0.216   2.911  16.199  2.7659  0.0952 -2.6536
 1984TIP3   OH227366   4.078   5.150   4.237 -0.4558  0.3239 -0.1740
 1984TIP3    H127367   4.044   5.116   4.154  0.3312  1.8189 -1.1424
 1984TIP3    H227368   4.123   5.231   4.214 -0.8413  1.1732  1.8139
 1985TIP3   OH227369   1.647   4.357   2.241 -0.4150  0.1807  0.7111
 1985TIP3    H127370   1.648   4.376   2.335 -0.8270  1.8041  0.4181
 1985TIP3    H227371   1.712   4.417   2.204  0.7049 -1.3598  0.0854
 1986TIP3   OH227372   5.054   4.481  12.579 -0.0023  0.1995  0.2245
 1986TIP3    H127373   4.961   4.506  12.583 -0.3683 -1.1892  1.7783
 1986TIP3    H227374   5.057   4.410  12.515  0.1060  0.6211 -0.2457
 1987TIP3   OH227375   2.486   0.194  11.992  0.0331 -0.0097  0.2941
 1987TIP3    H127376   2.507   0.273  11.943 -1.5126  0.3300  0.1425
 1987TIP3    H227377   2.532   0.124  11.944 -0.3991  0.4912 -0.8908
 1988TIP3   OH227378   3.289   5.020   3.737  0.2605  0.4679 -0.4169
 1988TIP3    H127379   3.220   5.079   3.704  0.0740  1.2630  1.2816
 1988TIP3    H227380   3.345   5.077   3.790  0.8765 -0.6385  0.1489
 1989TIP3   OH227381   0.142   2.655  11.309  0.6252  0.0972 -0.2367
 1989TIP3    H127382   0.134   2.749  11.290  1.0794 -0.2894 -2.6751
 1989TIP3    H227383   0.088   2.613  11.242  0.9067 -1.4112  0.4490
 1990TIP3   OH227384   3.014   0.808  16.036  0.4224  0.1626  0.7366
 1990TIP3    H127385   3.098   0.763  16.044  0.6354  0.6568  1.3501
 1990TIP3    H227386   2.971   0.766  15.962  1.2106 -0.0983  0.4200
 1991TIP3   OH227387   6.309   5.227  16.518 -0.0749  0.1079  0.1511
 1991TIP3    H127388   6.316   5.135  16.542  0.6883  0.3893  1.0851
 1991TIP3    H227389   6.364   5.236  16.440 -1.0160 -0.4279 -0.5947
 1992TIP3   OH227390   4.395   5.055  16.027 -0.1561 -0.0857  0.0494
 1992TIP3    H127391   4.396   5.136  15.977  0.0733  0.2271  0.5564
 1992TIP3    H227392   4.303   5.043  16.051  0.0997  1.2847  1.9743
 1993TIP3   OH227393   5.386   0.322   3.771 -0.1811  0.2130  0.7616
 1993TIP3    H127394   5.340   0.400   3.740 -0.3106 -0.2326 -0.2092
 1993TIP3    H227395   5.479   0.344   3.762 -0.2137 -0.0172 -0.2679
 1994TIP3   OH227396   3.435   2.089  16.536  0.3396 -0.2062 -0.8024
 1994TIP3    H127397   3.429   2.055  16.446  0.1885  0.5704 -1.0900
 1994TIP3    H227398   3.368   2.157  16.540 -1.3015 -1.8147  0.6327
 1995TIP3   OH227399   1.051   6.121  14.458 -0.7448 -0.2003 -0.4254
 1995TIP3    H127400   0.963   6.092  14.433 -1.2613  1.3316 -0.4345
 1995TIP3    H227401   1.037   6.183  14.529  0.4819 -1.5545  1.0817
 1996TIP3   OH227402   3.874   6.101  11.384  0.4866  0.0982 -0.4965
 1996TIP3    H127403   3.790   6.141  11.405  1.0441  0.1367  2.0121
 1996TIP3    H227404   3.860   6.057  11.300 -1.9776  0.2393 -0.2346
 1997TIP3   OH227405   2.582   5.940  16.355 -0.0609 -0.4870 -0.1091
 1997TIP3    H127406   2.541   5.929  16.269  1.1935  0.4130 -0.8682
 1997TIP3    H227407   2.641   5.865  16.364 -0.5226 -0.8181  0.1678
 1998TIP3   OH227408   3.841   0.069   2.486  0.0261 -0.5831  0.3749
 1998TIP3    H127409   3.776   0.000   2.476 -0.2991 -0.4281  1.3839
 1998TIP3    H227410   3.792   0.146   2.512  0.3406  0.1571 -1.0849
 1999TIP3   OH227411   5.436   0.791   2.285  0.2330 -0.2941  0.0080
 1999TIP3    H127412   5.451   0.848   2.361  1.4458 -0.4172 -0.1113
 1999TIP3    H227413   5.447   0.849   2.210 -0.7792 -0.2140 -0.0851
 2000TIP3   OH227414   3.195   6.586  11.436  0.1555 -0.1878  0.5849
 2000TIP3    H127415   3.133   6.581  11.363  0.6407 -1.4319  0.2406
 2000TIP3    H227416   3.273   6.541  11.404  0.8511  0.3982  1.4148
 2001TIP3   OH227417   1.425   2.124   4.539  0.1533  0.0886  0.0278
 2001TIP3    H127418   1.440   2.030   4.541 -2.3889 -0.3956  1.1473
 2001TIP3    H227419   1.438   2.152   4.630 -2.6505  0.0312  0.5609
 2002TIP3   OH227420   3.536   0.757   2.818 -0.4135  0.4186 -0.1183
 2002TIP3    H127421   3.555   0.702   2.894  0.4811  0.9314  0.0416
 2002TIP3    H227422   3.569   0.706   2.744 -1.5400 -0.2062 -0.2033
 2003TIP3   OH227423   1.967   3.543   3.405 -0.1980  0.5212  0.8464
 2003TIP3    H127424   1.931   3.614   3.351 -1.9473 -0.9166  0.0067
 2003TIP3    H227425   2.039   3.507   3.353 -0.3792  0.6268  0.5225
 2004TIP3   OH227426   2.578   0.457  12.127 -0.4211  0.0243 -0.6411
 2004TIP3    H127427   2.497   0.493  12.163  0.4355  1.7110 -0.2853
 2004TIP3    H227428   2.575   0.479  12.034 -0.9188 -1.0083 -0.8789
 2005TIP3   OH227429   0.331   6.696   2.011 -0.2057  0.2793  0.3073
 2005TIP3    H127430   0.308   6.717   2.102 -1.0490 -1.4588  0.5372
 2005TIP3    H227431   0.316   6.602   2.004 -0.2477  0.3965 -1.6794
 2006TIP3   OH227432   3.198   4.441  13.385  0.6620 -0.2707  0.1604
 2006TIP3    H127433   3.114   4.471  13.421 -0.4708 -0.2208 -2.3415
 2006TIP3    H227434   3.250   4.521  13.378  0.0405  0.0907 -0.4629
 2007TIP3   OH227435   4.719   4.984  11.328  0.2173 -0.6309  0.2823
 2007TIP3    H127436   4.722   5.039  11.406 -0.7255 -0.8828  0.5090
 2007TIP3    H227437   4.773   4.909  11.349  2.1064  0.4939 -0.2874
 2008TIP3   OH227438   0.660   4.457  15.118  0.1112  0.2576  0.1613
 2008TIP3    H127439   0.571   4.449  15.151  0.1580  1.1352  0.5284
 2008TIP3    H227440   0.683   4.369  15.088 -0.6121 -0.1331  0.7369
 2009TIP3   OH227441   2.794   0.754  14.833 -0.7406  0.7384 -0.2414
 2009TIP3    H127442   2.885   0.726  14.834 -0.8606  0.2930 -0.9212
 2009TIP3    H227443   2.783   0.799  14.749 -1.3288  0.1249 -0.5096
 2010TIP3   OH227444   2.384   6.191   2.440  0.7879 -0.0788 -0.5231
 2010TIP3    H127445   2.368   6.129   2.512 -2.0276 -0.0088 -0.9587
 2010TIP3    H227446   2.390   6.276   2.484 -0.8451 -0.0432 -0.2984
 2011TIP3   OH227447   5.817   1.775  11.217  0.2055 -0.3664 -0.7102
 2011TIP3    H127448   5.906   1.769  11.182  0.7113  1.9433  0.0145
 2011TIP3    H227449   5.773   1.839  11.161 -0.2087  0.3545  0.3888
 2012TIP3   OH227450   2.864   0.362  11.186 -0.5349  0.8084  0.1610
 2012TIP3    H127451   2.805   0.408  11.126 -1.4087  1.3673  1.4064
 2012TIP3    H227452   2.854   0.407  11.270 -0.0542 -0.5243  0.9751
 2013TIP3   OH227453   3.818   5.372  12.703 -0.4962 -0.0271  0.4280
 2013TIP3    H127454   3.892   5.388  12.760 -0.6964  0.6788  0.5033
 2013TIP3    H227455   3.772   5.298  12.743  0.2344 -0.5568  0.3010
 2014TIP3   OH227456   5.077   1.992   3.371  0.0837  0.3936  0.2587
 2014TIP3    H127457   5.032   2.056   3.426  0.5670  1.4151 -0.5149
 2014TIP3    H227458   5.022   1.914   3.376 -2.2620  1.8324 -1.3252
 2015TIP3   OH227459   3.314   0.171   6.602  0.4950  0.2833  0.4723
 2015TIP3    H127460   3.375   0.163   6.675 -0.3559  0.3116  1.2045
 2015TIP3    H227461   3.272   0.256   6.614  0.7457  0.5382 -0.3752
 2016TIP3   OH227462   5.928   2.819   0.367 -0.1750  0.0258  0.3261
 2016TIP3    H127463   5.973   2.804   0.284  0.3542  2.1623  0.1774
 2016TIP3    H227464   5.894   2.733   0.392  3.4315 -1.6052  0.1473
 2017TIP3   OH227465   2.615   0.498   1.686 -1.0104 -0.4439  0.1754
 2017TIP3    H127466   2.648   0.518   1.774 -1.0552  0.1669  0.0565
 2017TIP3    H227467   2.691   0.463   1.640 -0.8149 -0.1136  0.2474
 2018TIP3   OH227468   1.343   5.254  13.850  0.5006 -0.7625 -0.4387
 2018TIP3    H127469   1.261   5.231  13.807 -0.8780  0.8032  1.2125
 2018TIP3    H227470   1.349   5.349  13.842  1.4793 -0.7098  0.5980
 2019TIP3   OH227471   1.452   1.202  14.327  0.0568 -0.3445 -0.2559
 2019TIP3    H127472   1.461   1.127  14.385 -0.3081  0.1116  0.4056
 2019TIP3    H227473   1.435   1.165  14.240 -0.7215 -1.0002  0.1752
 2020TIP3   OH227474   5.253   4.913   2.199 -0.3356  0.2991  0.0029
 2020TIP3    H127475   5.297   4.976   2.255 -1.8722  1.3543  0.0853
 2020TIP3    H227476   5.180   4.962   2.160 -1.1770 -1.2397 -0.4582
 2021TIP3   OH227477   1.869   0.799  16.095  0.2032  0.5878  0.7582
 2021TIP3    H127478   1.872   0.703  16.093 -0.0392  0.4813 -2.9345
 2021TIP3    H227479   1.960   0.826  16.087  0.3489  0.7358  2.6454
 2022TIP3   OH227480   4.153   3.002   3.684 -0.0726 -0.0936  0.2318
 2022TIP3    H127481   4.138   3.025   3.592 -1.6455  0.7095  0.6517
 2022TIP3    H227482   4.245   3.023   3.700  0.1428  0.0132 -1.0845
 2023TIP3   OH227483   5.230   5.710   3.371  0.4202  0.1141 -0.2128
 2023TIP3    H127484   5.189   5.701   3.457  0.7695 -2.2438 -0.2194
 2023TIP3    H227485   5.170   5.767   3.322 -1.2517 -0.7331  0.7432
 2024TIP3   OH227486   4.192   0.891   5.915  0.3793 -0.5035  0.6193
 2024TIP3    H127487   4.272   0.845   5.939 -0.5327 -2.7328 -0.3590
 2024TIP3    H227488   4.134   0.880   5.990  1.0686  1.5781  1.5603
 2025TIP3   OH227489   0.466   4.297  11.082  0.4514 -0.4859 -0.2823
 2025TIP3    H127490   0.484   4.331  10.994 -0.0424  0.8867  0.1086
 2025TIP3    H227491   0.376   4.264  11.077  0.5185 -0.6576 -0.3603
 2026TIP3   OH227492   1.596   3.270  15.456 -0.3593  0.2049  0.4889
 2026TIP3    H127493   1.579   3.265  15.362 -0.6863 -1.3077  0.6013
 2026TIP3    H227494   1.690   3.255  15.465 -0.3955 -0.0527  0.4327
 2027TIP3   OH227495   5.573   5.986   4.044 -0.1519 -0.1944 -0.2579
 2027TIP3    H127496   5.499   5.953   3.992 -0.6180 -2.2415  1.5577
 2027TIP3    H227497   5.618   5.907   4.073  1.6364  0.9807  0.2807
 2028TIP3   OH227498   0.534   0.480   3.723 -0.1754  0.1821  0.4985
 2028TIP3    H127499   0.605   0.444   3.669  1.9107  1.0647  2.4891
 2028TIP3    H227500   0.568   0.564   3.754 -2.9002  1.5744  0.0283
 2029TIP3   OH227501   0.625   0.460  15.561  0.5425  0.3274  0.3375
 2029TIP3    H127502   0.668   0.533  15.517 -3.1184  2.5590  0.0189
 2029TIP3    H227503   0.637   0.479  15.655  1.5127  0.0622  0.2729
 2030TIP3   OH227504   1.135   1.676  14.711 -0.0412 -0.2559  0.0931
 2030TIP3    H127505   1.134   1.692  14.805 -1.6161 -0.4060  0.1200
 2030TIP3    H227506   1.051   1.635  14.693  0.4075 -0.5985 -1.3300
 2031TIP3   OH227507   1.682   6.750   0.052 -0.3732 -0.0941 -0.0552
 2031TIP3    H127508   1.600   6.776   0.093 -0.5847  0.7249 -0.9620
 2031TIP3    H227509   1.682   6.795  -0.033 -0.1429 -2.0710 -1.1607
 2032TIP3   OH227510   0.731   1.556   5.286 -1.1492  0.1250 -0.1839
 2032TIP3    H127511   0.747   1.621   5.355  1.2296  0.4730 -0.9816
 2032TIP3    H227512   0.754   1.472   5.325 -1.3569  0.1179 -0.0742
 2033TIP3   OH227513   6.062   5.267  11.308 -0.4032 -0.2098 -0.3390
 2033TIP3    H127514   6.117   5.219  11.246  0.7955  1.5582 -0.7337
 2033TIP3    H227515   6.068   5.216  11.389  1.3197 -0.4367 -0.5616
 2034TIP3   OH227516   2.781   3.635  13.639  0.3404  0.4926 -0.0694
 2034TIP3    H127517   2.735   3.685  13.707  2.3004  0.2544  1.5234
 2034TIP3    H227518   2.712   3.582  13.598 -1.1227  1.5857  0.8551
 2035TIP3   OH227519   2.672   0.607   4.415  0.0765  0.3371 -0.0469
 2035TIP3    H127520   2.680   0.587   4.509  0.4532  3.2538  0.6326
 2035TIP3    H227521   2.655   0.522   4.375  2.3363 -1.4521  2.3478
 2036TIP3   OH227522   0.565   6.049   2.429  0.4398 -0.7403  0.3960
 2036TIP3    H127523   0.619   6.002   2.366 -0.3476 -0.4948 -0.4680
 2036TIP3    H227524   0.516   5.980   2.475  1.7155 -0.9995  1.4508
 2037TIP3   OH227525   2.805   5.355   0.749 -0.0471  0.3391 -0.1072
 2037TIP3    H127526   2.876   5.312   0.701 -1.8987 -0.8237 -1.9606
 2037TIP3    H227527   2.832   5.351   0.841  2.2688 -0.0036 -0.7428
 2038TIP3   OH227528   6.585   2.530   4.832  0.0314  0.0913 -0.8817
 2038TIP3    H127529   6.589   2.606   4.890  0.0557  0.6940 -1.6498
 2038TIP3    H227530   6.533   2.466   4.880  3.6209 -1.1731  1.7586
 2039TIP3   OH227531   3.694   6.759   4.708 -0.3430  0.1968  0.4737
 2039TIP3    H127532   3.624   6.819   4.734  0.3929  1.3460 -0.0879
 2039TIP3    H227533   3.773   6.799   4.744  0.0337 -1.1133  1.1559
 2040TIP3   OH227534   1.536   4.959  15.061 -0.2193 -0.4203 -0.5060
 2040TIP3    H127535   1.538   4.883  15.003  1.0464 -0.7263 -0.0938
 2040TIP3    H227536   1.470   5.016  15.023 -0.6502 -1.3917 -1.2551
 2041TIP3   OH227537   3.954   3.106   2.119  0.5483  0.6638 -0.1499
 2041TIP3    H127538   3.964   3.059   2.201  0.0680 -0.2286 -0.5824
 2041TIP3    H227539   4.042   3.139   2.099  0.6982  0.7605  0.6343
 2042TIP3   OH227540   4.306   1.867  15.005 -0.0477 -0.2070  0.0021
 2042TIP3    H127541   4.272   1.956  15.000 -1.9805 -0.9314 -0.6814
 2042TIP3    H227542   4.272   1.833  15.088 -0.4317 -0.7167 -0.3544
 2043TIP3   OH227543   4.316   5.912   5.600 -0.7729 -0.0866 -0.4544
 2043TIP3    H127544   4.300   5.851   5.672 -0.3122  0.3191  0.0078
 2043TIP3    H227545   4.251   5.981   5.613 -2.2139 -1.1216 -1.7780
 2044TIP3   OH227546   6.712   1.755   3.230 -0.0558 -0.6763  0.1947
 2044TIP3    H127547   6.742   1.690   3.166 -1.0984 -2.3239  1.2914
 2044TIP3    H227548   6.789   1.770   3.286  0.5505 -0.0198 -0.7958
 2045TIP3   OH227549   3.702   5.173   6.374  0.1182 -0.3993  0.2457
 2045TIP3    H127550   3.696   5.232   6.449  1.4262  0.2152 -0.1011
 2045TIP3    H227551   3.789   5.133   6.381  0.8751  0.7299 -1.6521
 2046TIP3   OH227552   0.885   3.242   1.278 -0.4104 -0.1185  0.0357
 2046TIP3    H127553   0.901   3.329   1.242  0.0409 -1.0491 -2.1937
 2046TIP3    H227554   0.816   3.256   1.343 -0.9964  1.7846 -0.8982
 2047TIP3   OH227555   4.309   2.952   2.393  0.3698 -0.3585 -0.1844
 2047TIP3    H127556   4.330   3.046   2.396 -1.8660  0.2718 -1.6403
 2047TIP3    H227557   4.332   2.920   2.480  1.5266  1.4628  0.2392
 2048TIP3   OH227558   6.635   6.585  11.704  0.1335 -0.4253  0.1620
 2048TIP3    H127559   6.558   6.642  11.705  1.3806  1.3376 -0.3984
 2048TIP3    H227560   6.616   6.521  11.635 -1.5775 -1.1707  1.2610
 2049TIP3   OH227561   1.247   2.375   4.297 -0.4193 -0.0614 -0.7679
 2049TIP3    H127562   1.252   2.354   4.391 -0.7406 -1.7324 -1.0809
 2049TIP3    H227563   1.272   2.293   4.254  0.1808  0.8295 -2.1468
 2050TIP3   OH227564   4.580   4.418  10.988  0.2788 -0.2271  0.4585
 2050TIP3    H127565   4.583   4.437  11.082  0.7167  0.3566  0.3331
 2050TIP3    H227566   4.606   4.326  10.981  0.8132 -0.1080  0.8548
 2051TIP3   OH227567   3.161   6.587  15.784 -0.4782  0.2267 -0.1945
 2051TIP3    H127568   3.109   6.537  15.721  0.3461  0.9425 -1.4845
 2051TIP3    H227569   3.175   6.672  15.742 -0.5958  1.0312  1.3139
 2052TIP3   OH227570   6.468   2.037   3.629  0.2583 -0.0825 -0.1278
 2052TIP3    H127571   6.495   2.083   3.708  0.0329 -0.5176  0.2096
 2052TIP3    H227572   6.539   2.051   3.566 -0.1235  1.3170 -0.2805
 2053TIP3   OH227573   5.902   0.220  11.342 -0.5066 -0.5140 -0.6084
 2053TIP3    H127574   5.941   0.175  11.267  0.9040 -0.8394  0.2742
 2053TIP3    H227575   5.934   0.171  11.418 -0.7094  0.6928  0.2815
 2054TIP3   OH227576   3.022   3.790  16.204 -0.1406  0.0664 -0.2503
 2054TIP3    H127577   3.038   3.767  16.296  0.7486  1.3921 -0.0445
 2054TIP3    H227578   2.958   3.725  16.174  0.5969 -1.2475  0.8870
 2055TIP3   OH227579   6.542   5.250  14.836  0.2639  0.1506 -0.2912
 2055TIP3    H127580   6.455   5.286  14.819 -0.0744  0.2889  1.5465
 2055TIP3    H227581   6.581   5.238  14.749 -2.6487 -2.6427 -1.3984
 2056TIP3   OH227582   0.139   5.715  16.399 -0.5965  0.0777 -0.0906
 2056TIP3    H127583   0.045   5.734  16.400 -0.7642 -0.7311  0.7916
 2056TIP3    H227584   0.173   5.754  16.479 -0.3791 -0.5433  0.1281
 2057TIP3   OH227585   3.747   0.961   4.887 -0.7849 -0.1067 -0.4717
 2057TIP3    H127586   3.732   0.874   4.851 -0.5888 -1.4563  2.4575
 2057TIP3    H227587   3.842   0.970   4.891 -0.6423 -1.5367  2.8047
 2058TIP3   OH227588   4.417   0.919  13.211 -0.1373  0.3253  0.2321
 2058TIP3    H127589   4.431   0.852  13.144 -1.1801 -0.6624  0.9657
 2058TIP3    H227590   4.502   0.964  13.217  0.1460  0.0804 -1.3272
 2059TIP3   OH227591   4.409   3.970  15.218 -0.5344 -0.6614 -0.3121
 2059TIP3    H127592   4.326   3.979  15.265 -0.6163 -2.0501 -0.1536
 2059TIP3    H227593   4.454   4.054  15.231 -0.7220 -0.8625  1.8878
 2060TIP3   OH227594   3.843   1.132   0.800 -0.2994  0.3423 -0.5460
 2060TIP3    H127595   3.874   1.182   0.876  1.4917 -2.9332  1.1351
 2060TIP3    H227596   3.762   1.091   0.830  0.8703 -1.6662  0.0385
 2061TIP3   OH227597   2.301   2.312  14.062  0.2520 -0.0558  0.6270
 2061TIP3    H127598   2.290   2.278  13.973 -0.3333 -0.1235  0.7217
 2061TIP3    H227599   2.389   2.285  14.087  0.8561  0.9176 -0.3468
 2062TIP3   OH227600   4.627   5.296   2.170  0.2370  0.2744  0.3561
 2062TIP3    H127601   4.688   5.346   2.115 -1.6326  1.4589 -0.7551
 2062TIP3    H227602   4.621   5.211   2.127  1.5208 -0.0572  0.8080
 2063TIP3   OH227603   4.671   4.020   0.418 -0.4909  0.0701 -0.1928
 2063TIP3    H127604   4.729   4.014   0.342 -0.3299  0.8940 -0.1502
 2063TIP3    H227605   4.636   4.109   0.415 -0.2282  0.2325  0.8717
 2064TIP3   OH227606   2.812   5.913   3.951  0.3319  0.5145 -0.1829
 2064TIP3    H127607   2.904   5.937   3.963  0.0436  1.2441  0.6276
 2064TIP3    H227608   2.794   5.851   4.021  0.0025  0.9425  0.1100
 2065TIP3   OH227609   1.096   5.243  15.526  0.1180  0.1565 -0.1288
 2065TIP3    H127610   1.017   5.290  15.500 -1.0976 -1.1433  1.0442
 2065TIP3    H227611   1.110   5.268  15.618  0.2979 -0.6088  0.0616
 2066TIP3   OH227612   1.792   1.402   2.291 -0.1732  0.4229 -0.2712
 2066TIP3    H127613   1.710   1.360   2.266 -1.6546  0.6493  3.6331
 2066TIP3    H227614   1.845   1.332   2.329 -1.0046  1.1618  2.4864
 2067TIP3   OH227615   3.656   0.415  16.827 -0.0118 -0.1464 -0.3642
 2067TIP3    H127616   3.699   0.348  16.773  0.7283  0.3424 -0.3896
 2067TIP3    H227617   3.725   0.479  16.845 -0.5838  0.3461  0.0943
 2068TIP3   OH227618   5.533   2.484   1.614  0.1018 -0.0442  0.0485
 2068TIP3    H127619   5.469   2.529   1.670  0.1678  0.4416 -0.2524
 2068TIP3    H227620   5.618   2.512   1.648  0.1582 -0.8231  0.5527
 2069TIP3   OH227621   4.038   6.200   4.479 -0.0711 -0.3319  0.5434
 2069TIP3    H127622   3.981   6.159   4.414 -1.3035  2.0449  0.0192
 2069TIP3    H227623   4.126   6.175   4.453 -0.7160 -2.3184  0.0864
 2070TIP3   OH227624   5.569   4.993  12.517 -0.0155 -0.2835  0.0277
 2070TIP3    H127625   5.511   4.916  12.520  0.2217 -0.4386  2.3931
 2070TIP3    H227626   5.624   4.978  12.440 -0.9183 -1.7641 -0.3789
 2071TIP3   OH227627   1.071   0.626   6.125  0.6555  0.8765  0.1655
 2071TIP3    H127628   1.148   0.643   6.180 -0.2751  0.8947  1.5357
 2071TIP3    H227629   1.005   0.686   6.158 -0.6084 -0.6345  0.5025
 2072TIP3   OH227630   6.271   6.740  15.532 -0.3278 -0.4351 -0.2453
 2072TIP3    H127631   6.288   6.795  15.609  0.4409 -0.4533 -0.3948
 2072TIP3    H227632   6.253   6.802  15.461 -0.3355 -0.3993 -0.2122
 2073TIP3   OH227633   4.406   3.722   2.306 -0.4355  0.1337  0.6356
 2073TIP3    H127634   4.445   3.780   2.242 -1.7175 -0.3691 -0.6477
 2073TIP3    H227635   4.325   3.766   2.333 -0.9846 -0.6270  0.2848
 2074TIP3   OH227636   6.475   2.343   4.202 -0.5103 -0.1301 -0.1353
 2074TIP3    H127637   6.513   2.255   4.200  1.4602  0.6631 -1.3354
 2074TIP3    H227638   6.402   2.339   4.140 -1.0561 -1.1523  0.5568
 2075TIP3   OH227639   1.523   4.220   3.660 -0.1607  0.5843 -0.9878
 2075TIP3    H127640   1.572   4.160   3.603  0.2145  1.2987 -1.4263
 2075TIP3    H227641   1.570   4.217   3.743  1.5553  2.3501 -1.8094
 2076TIP3   OH227642   6.702   2.551  16.367 -0.1088  0.0605 -0.0269
 2076TIP3    H127643   6.769   2.583  16.428 -0.7012  1.2070  0.0569
 2076TIP3    H227644   6.645   2.496  16.420  0.9439 -1.2117 -0.1719
 2077TIP3   OH227645   2.501   4.544  15.604 -0.1408 -0.1791 -0.4827
 2077TIP3    H127646   2.447   4.479  15.650  0.8992 -0.6092  0.1724
 2077TIP3    H227647   2.466   4.545  15.515 -0.1190 -1.7260 -0.5340
 2078TIP3   OH227648   2.728   2.428   5.636  0.3983  0.0278 -0.0267
 2078TIP3    H127649   2.778   2.414   5.555  1.2387 -0.6389  0.5844
 2078TIP3    H227650   2.710   2.340   5.668  0.2296  0.2876  0.5997
 2079TIP3   OH227651   4.638   5.083  15.860 -0.6833 -0.1272 -0.0361
 2079TIP3    H127652   4.612   5.161  15.910  0.9998 -0.4881  1.4984
 2079TIP3    H227653   4.636   5.012  15.924  2.0969 -0.5080 -0.2441
 2080TIP3   OH227654   5.957   3.052  12.042  0.1235 -0.4412  0.0021
 2080TIP3    H127655   6.025   3.110  12.077  0.5740 -0.8591 -0.1644
 2080TIP3    H227656   5.923   3.098  11.965 -1.6257  0.9998  1.5204
 2081TIP3   OH227657   0.744   0.158   3.638  0.1022 -0.8831  0.3866
 2081TIP3    H127658   0.781   0.146   3.551  1.3260  0.7041  0.6594
 2081TIP3    H227659   0.651   0.174   3.622  0.3676 -0.3099 -0.6615
 2082TIP3   OH227660   1.342   5.882   3.943  0.0302 -0.3224  0.1651
 2082TIP3    H127661   1.343   5.975   3.965  0.7844 -0.4299  0.6140
 2082TIP3    H227662   1.405   5.842   4.004  0.3191 -0.9985 -0.5598
 2083TIP3   OH227663   2.418   0.358  16.837  0.1207  0.0190  0.2522
 2083TIP3    H127664   2.495   0.315  16.873  1.7743  2.6254  0.0796
 2083TIP3    H227665   2.453   0.426  16.779 -2.3358  0.8463 -0.3970
 2084TIP3   OH227666   6.309   4.789   2.084  0.2091  0.1960  0.0658
 2084TIP3    H127667   6.267   4.850   2.144  1.7498  0.3512  1.0248
 2084TIP3    H227668   6.392   4.829   2.062 -0.0812 -0.1021 -1.8068
 2085TIP3   OH227669   1.731   2.325   1.165 -0.1488  0.2182  0.4711
 2085TIP3    H127670   1.793   2.252   1.166  2.4656  2.2941 -0.1174
 2085TIP3    H227671   1.685   2.316   1.081  0.8231 -0.2485 -0.0326
 2086TIP3   OH227672   6.579   6.319  13.750 -0.4884 -0.4948  1.1101
 2086TIP3    H127673   6.600   6.411  13.767 -0.6443 -0.1751 -0.3576
 2086TIP3    H227674   6.664   6.276  13.742 -0.4044 -0.1481  0.0941
 2087TIP3   OH227675   3.807   3.903  11.111  0.0158  0.7811  0.0234
 2087TIP3    H127676   3.762   3.986  11.093 -0.5853  0.6556  0.8952
 2087TIP3    H227677   3.757   3.863  11.183 -0.6154 -1.0431 -1.3429
 2088TIP3   OH227678   3.529   3.260  14.474 -0.0534  0.0230  0.0903
 2088TIP3    H127679   3.504   3.347  14.505  1.1270  0.3403  0.2075
 2088TIP3    H227680   3.623   3.254  14.493  0.0747 -0.9241 -0.7531
 2089TIP3   OH227681   1.745   2.366  16.267 -0.4943 -0.3699 -1.2664
 2089TIP3    H127682   1.821   2.401  16.314  0.3423  0.0352 -2.8635
 2089TIP3    H227683   1.672   2.379  16.327  0.4643  0.5073 -0.2412
 2090TIP3   OH227684   3.195   3.467  11.637  0.1920 -0.1809  0.3718
 2090TIP3    H127685   3.135   3.457  11.563 -0.2930  0.1397  0.7126
 2090TIP3    H227686   3.148   3.428  11.711  0.2716  0.3506  0.7059
 2091TIP3   OH227687   4.417   1.480   5.287  0.2539 -0.1434  0.4851
 2091TIP3    H127688   4.380   1.463   5.200  1.6897 -1.0874  0.0266
 2091TIP3    H227689   4.475   1.406   5.303  0.0554  0.0419  2.2479
 2092TIP3   OH227690   0.484   1.258   1.893 -0.4967  0.5160 -0.3308
 2092TIP3    H127691   0.564   1.300   1.859  0.0167  0.0415  0.2653
 2092TIP3    H227692   0.423   1.330   1.905  0.4172  1.1305  0.8170
 2093TIP3   OH227693   3.987   4.819   0.878  0.2514 -0.2466  0.1359
 2093TIP3    H127694   3.965   4.840   0.787  0.9084 -1.4303 -0.3257
 2093TIP3    H227695   3.920   4.862   0.930 -0.5030 -0.0639 -0.9567
 2094TIP3   OH227696   4.515   1.804  13.039  0.3635  0.0576 -0.6536
 2094TIP3    H127697   4.589   1.744  13.035  1.0186  0.8646 -0.8038
 2094TIP3    H227698   4.468   1.778  13.119 -0.3339 -1.7436 -1.6066
 2095TIP3   OH227699   4.020   3.956   0.139  0.3119  0.7255 -0.8608
 2095TIP3    H127700   3.947   3.904   0.107 -0.0930  0.9626 -0.3333
 2095TIP3    H227701   4.013   4.039   0.092  0.6656  0.4948 -1.3335
 2096TIP3   OH227702   6.625   5.080  12.832 -0.0574 -0.3424  0.3000
 2096TIP3    H127703   6.638   5.079  12.737  0.3491  1.2697  0.3030
 2096TIP3    H227704   6.563   5.010  12.849 -1.2585  0.2743 -1.3397
 2097TIP3   OH227705   6.183   6.320  14.249  0.0860 -0.0158 -0.2191
 2097TIP3    H127706   6.270   6.335  14.213  0.5749 -0.8994  0.5671
 2097TIP3    H227707   6.134   6.280  14.178  0.0734  1.1760 -0.9145
 2098TIP3   OH227708   1.321   4.261  15.192 -0.5018  0.0161  0.5809
 2098TIP3    H127709   1.278   4.328  15.139 -0.4772  0.2051  0.7968
 2098TIP3    H227710   1.412   4.264  15.165 -0.6232 -0.3832  0.1253
 2099TIP3   OH227711   1.193   6.648   4.214 -0.0672 -0.2563  0.2685
 2099TIP3    H127712   1.222   6.683   4.130 -1.9536 -0.4373 -0.5096
 2099TIP3    H227713   1.194   6.723   4.273  0.2183  0.1257 -0.2131
 2100TIP3   OH227714   2.217   6.407  14.501 -0.2424 -0.1026 -0.1702
 2100TIP3    H127715   2.259   6.399  14.415 -0.3247  0.3950 -0.2625
 2100TIP3    H227716   2.168   6.326  14.512 -1.0259  0.2426 -1.0229
 2101TIP3   OH227717   3.865   0.207   0.842 -0.4686 -0.2513  0.1773
 2101TIP3    H127718   3.907   0.261   0.775 -1.1554  0.6963  0.4836
 2101TIP3    H227719   3.807   0.149   0.794  1.3088 -1.7476 -0.2754
 2102TIP3   OH227720   3.647   4.852   3.933 -0.4227  0.8074  0.8274
 2102TIP3    H127721   3.684   4.768   3.905 -1.0044  0.4368  1.1571
 2102TIP3    H227722   3.723   4.910   3.938 -0.1683  0.6442 -0.5910
 2103TIP3   OH227723   6.442   2.862   3.266 -0.0713 -0.1625  0.1390
 2103TIP3    H127724   6.453   2.922   3.192  1.2994 -0.4161  0.1167
 2103TIP3    H227725   6.383   2.909   3.326 -1.1175  0.0939 -1.0329
 2104TIP3   OH227726   4.829   3.924  12.382 -0.3628  0.2149  0.1729
 2104TIP3    H127727   4.779   3.873  12.446 -0.6574 -0.5154 -0.6277
 2104TIP3    H227728   4.893   3.863  12.346 -2.0359 -0.2422 -2.2688
 2105TIP3   OH227729   4.839   3.903  12.939 -0.1124  0.3140 -0.4576
 2105TIP3    H127730   4.884   3.908  13.023 -0.0789 -2.2148 -0.2305
 2105TIP3    H227731   4.903   3.937  12.875  1.2409 -0.9349  0.1568
 2106TIP3   OH227732   2.985   4.470  11.752  0.6705 -0.2398 -0.1707
 2106TIP3    H127733   3.036   4.438  11.827 -1.0118  1.3672  1.7755
 2106TIP3    H227734   2.894   4.458  11.779 -0.0367 -0.7926 -2.5498
 2107TIP3   OH227735   2.623   0.339   4.768 -0.5385 -0.6181 -0.2267
 2107TIP3    H127736   2.611   0.351   4.863  0.3100 -0.3293 -0.1504
 2107TIP3    H227737   2.534   0.340   4.733 -0.8174  0.3494  0.4460
 2108TIP3   OH227738   0.700   2.590   4.773 -0.3833  0.4520 -0.5306
 2108TIP3    H127739   0.704   2.541   4.855  1.3906  1.7206  0.2124
 2108TIP3    H227740   0.717   2.680   4.798 -0.3018  0.9513 -2.2419
 2109TIP3   OH227741   6.596   1.968  14.631 -0.0138  0.5183 -0.5992
 2109TIP3    H127742   6.618   1.919  14.552  0.5506 -1.8591  0.9383
 2109TIP3    H227743   6.678   1.974  14.680 -0.7909 -0.0553  0.8305
 2110TIP3   OH227744   5.722   1.528  12.025 -0.0798 -0.0605  0.1571
 2110TIP3    H127745   5.782   1.515  12.099  2.6728  0.4367 -1.8625
 2110TIP3    H227746   5.679   1.611  12.044  1.5316  0.7049  0.6386
 2111TIP3   OH227747   0.282   3.625  15.633  0.0991  0.7521  0.5270
 2111TIP3    H127748   0.220   3.552  15.625 -0.1255  0.7463  2.0022
 2111TIP3    H227749   0.359   3.586  15.675  0.2995  1.2065  0.5849
 2112TIP3   OH227750   1.210   3.930   4.459 -0.1268  0.6546  0.0584
 2112TIP3    H127751   1.276   3.999   4.458  1.1807 -0.5154  1.3406
 2112TIP3    H227752   1.231   3.877   4.536  0.0599 -2.2674 -1.8426
 2113TIP3   OH227753   1.793   2.805   2.734 -0.1669  0.3415  0.2420
 2113TIP3    H127754   1.884   2.790   2.760  0.1565 -0.6889 -1.3467
 2113TIP3    H227755   1.790   2.897   2.709  0.2456  0.5738  1.0185
 2114TIP3   OH227756   2.198   6.642  14.086  0.4783  0.2222  0.4450
 2114TIP3    H127757   2.160   6.685  14.163  1.6233  0.0649  1.1266
 2114TIP3    H227758   2.239   6.712  14.037 -0.1606  0.3064  0.0169
 2115TIP3   OH227759   5.594   6.165  11.182  0.0760 -0.2773 -0.2397
 2115TIP3    H127760   5.571   6.250  11.218  0.9035 -0.1238 -0.0418
 2115TIP3    H227761   5.690   6.167  11.174  0.0036 -0.7373 -1.3881
 2116TIP3   OH227762   2.918   0.542   2.578 -0.3419 -0.4806  0.1085
 2116TIP3    H127763   2.835   0.502   2.554 -0.1491 -0.9826  0.2803
 2116TIP3    H227764   2.984   0.494   2.528 -0.2061  0.3593 -0.5611
 2117TIP3   OH227765   4.571   2.082  15.437  0.4559  0.0773 -0.4762
 2117TIP3    H127766   4.482   2.107  15.413  0.3649  0.9783  0.7044
 2117TIP3    H227767   4.627   2.144  15.389  0.3281  1.0704  0.6182
 2118TIP3   OH227768   4.788   0.711  11.702 -0.3669  0.0264 -0.2602
 2118TIP3    H127769   4.839   0.792  11.693 -0.3071  0.0133 -0.0457
 2118TIP3    H227770   4.855   0.642  11.708 -0.4160 -0.0228 -0.2798
 2119TIP3   OH227771   0.292   4.596  13.764 -0.2403 -0.2516 -0.4049
 2119TIP3    H127772   0.377   4.612  13.723 -0.0697 -0.1469 -0.0091
 2119TIP3    H227773   0.247   4.681  13.760  0.6809  0.3922  1.7329
 2120TIP3   OH227774   0.532   4.420  14.043 -0.4485  0.9489 -0.3530
 2120TIP3    H127775   0.616   4.438  14.085 -1.0775 -1.0100  1.9660
 2120TIP3    H227776   0.487   4.504  14.044  1.1256  1.8387 -0.8303
 2121TIP3   OH227777   0.857   2.820   1.240 -0.2679 -0.1280  0.8253
 2121TIP3    H127778   0.866   2.893   1.179  0.5665  0.6106  1.7904
 2121TIP3    H227779   0.922   2.756   1.211  0.4140  0.3987  1.1635
 2122TIP3   OH227780   4.635   2.942  10.796 -0.5111 -0.1028 -0.0220
 2122TIP3    H127781   4.542   2.950  10.776 -0.3863  0.1275 -0.5284
 2122TIP3    H227782   4.678   2.998  10.731  0.0750 -1.3966 -0.7872
 2123TIP3   OH227783   3.984   0.342  17.046  0.5247 -0.4523  0.3894
 2123TIP3    H127784   4.026   0.386  17.120 -0.9999  0.9592  0.4656
 2123TIP3    H227785   3.911   0.294  17.085 -0.2824  0.2967 -0.1948
 2124TIP3   OH227786   1.812   6.289  16.650 -0.3975 -0.1446 -0.0149
 2124TIP3    H127787   1.755   6.262  16.578 -1.2384 -0.1243  0.6143
 2124TIP3    H227788   1.796   6.383  16.659 -1.3518 -0.3864  1.0638
 2125TIP3   OH227789   3.351   1.167  13.388 -0.0486 -0.2797 -0.0184
 2125TIP3    H127790   3.433   1.211  13.409 -0.2807  0.6667 -1.0431
 2125TIP3    H227791   3.347   1.167  13.293 -0.7677 -1.2064 -0.0035
 2126TIP3   OH227792   1.226   0.696   6.368 -0.2479  0.3451 -0.2023
 2126TIP3    H127793   1.275   0.751   6.307 -1.2882  1.5870  0.0333
 2126TIP3    H227794   1.292   0.662   6.428  0.4247  1.4432 -0.2879
 2127TIP3   OH227795   2.785   3.650  14.496  0.2830  0.1128  0.2177
 2127TIP3    H127796   2.732   3.624  14.420 -0.4421  0.2982  0.6458
 2127TIP3    H227797   2.759   3.589  14.565 -1.8667  2.2035  1.4125
 2128TIP3   OH227798   1.883   2.199   0.298  0.2414 -0.1220  0.9153
 2128TIP3    H127799   1.898   2.277   0.351 -1.3049  0.5251  0.4420
 2128TIP3    H227800   1.806   2.219   0.245  0.5733 -1.4889 -0.1653
 2129TIP3   OH227801   1.127   1.842  15.670  0.2201 -0.2917  0.8260
 2129TIP3    H127802   1.057   1.907  15.666  0.7243  0.2989  1.4670
 2129TIP3    H227803   1.181   1.859  15.593  0.8386  0.6142  1.4530
 2130TIP3   OH227804   6.675   0.285   1.655  0.2514  0.0631  0.3547
 2130TIP3    H127805   6.711   0.359   1.705  1.3168 -0.4143  0.3170
 2130TIP3    H227806   6.718   0.291   1.570  1.0201 -1.0976  0.6383
 2131TIP3   OH227807   5.366   4.705  11.091  0.1797 -0.6495 -0.2527
 2131TIP3    H127808   5.454   4.670  11.108 -0.3279 -1.3559  1.0404
 2131TIP3    H227809   5.333   4.652  11.018  1.2028  0.3394 -1.4948
 2132TIP3   OH227810   6.357   0.060  15.159  0.3070  0.8464  0.2863
 2132TIP3    H127811   6.448   0.085  15.145  0.0797  0.0904 -3.8734
 2132TIP3    H227812   6.360  -0.035  15.169  0.1210  1.0768  3.4000
 2133TIP3   OH227813   0.869   4.128  10.997  0.2838 -0.5127 -0.3578
 2133TIP3    H127814   0.962   4.111  11.008  0.1360 -1.2057 -0.1047
 2133TIP3    H227815   0.834   4.128  11.086  0.2315  1.0067 -0.3409
 2134TIP3   OH227816   5.024   1.774   2.282 -0.0747 -0.0717 -0.1902
 2134TIP3    H127817   5.087   1.826   2.331 -0.5958  0.9005 -0.5100
 2134TIP3    H227818   5.009   1.824   2.202 -0.3260 -0.9056 -0.6822
 2135TIP3   OH227819   0.102   3.692  11.210 -0.5859 -0.2463 -0.0166
 2135TIP3    H127820   0.088   3.669  11.302  1.9347  0.4937  0.6429
 2135TIP3    H227821   0.148   3.616  11.174  2.3009  1.0703  0.5703
 2136TIP3   OH227822   2.294   4.789   5.156 -0.2067 -0.2469  0.0391
 2136TIP3    H127823   2.298   4.842   5.235 -2.7827 -1.0463  0.7971
 2136TIP3    H227824   2.341   4.708   5.178 -0.9618 -0.4893  0.7913
 2137TIP3   OH227825   4.712   5.130  16.243 -0.5099  0.0120 -0.3714
 2137TIP3    H127826   4.707   5.073  16.166 -1.3395 -1.6739  0.8617
 2137TIP3    H227827   4.640   5.101  16.299 -0.1276  1.4166  0.9173
 2138TIP3   OH227828   0.834   2.976  12.919 -0.6159  0.0068  0.4230
 2138TIP3    H127829   0.888   2.925  12.858 -0.7314  0.8810 -0.4285
 2138TIP3    H227830   0.830   2.922  12.998  1.2835 -0.2059  0.4189
 2139TIP3   OH227831   2.170   4.685   3.688  0.5001 -0.1255  0.0964
 2139TIP3    H127832   2.175   4.748   3.760  0.7615 -0.3989  0.3216
 2139TIP3    H227833   2.079   4.689   3.658  1.0702  2.2258 -1.6026
 2140TIP3   OH227834   3.163   5.902   6.601  0.1882  0.5771 -0.6983
 2140TIP3    H127835   3.200   5.815   6.585 -4.5530 -1.8020 -0.2622
 2140TIP3    H227836   3.104   5.918   6.527 -1.3396  2.0030  0.7442
 2141TIP3   OH227837   2.101   1.281  13.196 -0.2056 -0.5110 -0.0718
 2141TIP3    H127838   2.013   1.317  13.185  0.2702  0.6298 -0.2977
 2141TIP3    H227839   2.150   1.350  13.242  0.9108 -0.6044 -1.0796
 2142TIP3   OH227840   3.253   0.638   5.578 -0.1364 -0.4346 -0.1785
 2142TIP3    H127841   3.160   0.642   5.558 -0.2772 -0.1457  0.5308
 2142TIP3    H227842   3.262   0.683   5.662  0.8452  0.8644 -0.9355
 2143TIP3   OH227843   1.395   4.819   2.548  0.4831 -0.2221 -0.0608
 2143TIP3    H127844   1.421   4.847   2.460 -0.7189  1.8612  0.1745
 2143TIP3    H227845   1.376   4.900   2.595 -1.1381 -1.3503  1.4002
 2144TIP3   OH227846   4.302   4.048  12.654  0.4056  0.2843 -0.2272
 2144TIP3    H127847   4.208   4.053  12.672  0.3419 -3.5076  1.3387
 2144TIP3    H227848   4.343   4.090  12.729 -0.0968 -2.5338  1.7740
 2145TIP3   OH227849   3.191   0.133  15.672  0.3903  0.6143 -0.3555
 2145TIP3    H127850   3.269   0.127  15.618  0.5865 -3.0494  0.0875
 2145TIP3    H227851   3.220   0.112  15.760 -1.0618 -0.9112 -0.1956
 2146TIP3   OH227852   3.756   2.690  13.830  0.3662 -0.2076  0.5161
 2146TIP3    H127853   3.690   2.691  13.761 -0.2976 -1.7316  1.0708
 2146TIP3    H227854   3.766   2.597  13.852  0.9123  0.2023  2.1361
 2147TIP3   OH227855   0.165   2.608  13.935  0.4953  0.5438  0.2524
 2147TIP3    H127856   0.241   2.558  13.965 -0.8343 -2.9749 -1.6387
 2147TIP3    H227857   0.092   2.570  13.982 -0.4221  2.2253  0.2706
 2148TIP3   OH227858   2.269   2.338  14.388 -0.0912 -0.1863 -0.6656
 2148TIP3    H127859   2.277   2.282  14.465  0.0553 -1.5019 -1.5980
 2148TIP3    H227860   2.267   2.277  14.314  1.5767  1.0831 -1.8479
 2149TIP3   OH227861   0.401   4.863   0.738 -0.3857 -0.3409  0.4403
 2149TIP3    H127862   0.444   4.913   0.807 -0.4730 -0.9170  0.9181
 2149TIP3    H227863   0.471   4.811   0.698 -0.4123 -0.3336  0.3833
 2150TIP3   OH227864   4.951   0.059   5.372  0.2101 -0.3655  0.6006
 2150TIP3    H127865   4.963  -0.035   5.359 -1.8672 -0.7302  0.8398
 2150TIP3    H227866   4.922   0.092   5.287  1.2297  0.1266  0.4366
 2151TIP3   OH227867   4.757   5.547  11.583 -0.0631 -0.2928  0.3692
 2151TIP3    H127868   4.807   5.466  11.591  0.2360 -0.1022  0.4684
 2151TIP3    H227869   4.771   5.575  11.492  0.4372  0.0293  0.5409
 2152TIP3   OH227870   3.980   6.180   6.484  0.0265  0.2337 -0.6404
 2152TIP3    H127871   3.930   6.239   6.540 -0.3232 -0.3973 -0.2663
 2152TIP3    H227872   4.051   6.234   6.449 -0.1054  0.7951 -0.0679
 2153TIP3   OH227873   6.151   3.217  14.760  0.0128  0.5979 -0.1269
 2153TIP3    H127874   6.190   3.282  14.817 -1.2839  0.1543  1.3529
 2153TIP3    H227875   6.191   3.134  14.787 -1.0583  0.3001  0.6269
 2154TIP3   OH227876   5.297   1.711   1.241  0.6679 -0.1440 -0.1466
 2154TIP3    H127877   5.230   1.658   1.282  1.5432 -2.1484 -1.1741
 2154TIP3    H227878   5.312   1.670   1.156  1.3389  1.8271 -1.0524
 2155TIP3   OH227879   3.304   1.177  11.634  0.2686 -0.0122 -0.5816
 2155TIP3    H127880   3.358   1.218  11.702 -0.9737 -0.2597  0.5829
 2155TIP3    H227881   3.293   1.087  11.663 -1.6693  0.3104 -0.2032
 2156TIP3   OH227882   4.424   1.501   5.664 -0.5472 -0.1962 -0.3721
 2156TIP3    H127883   4.363   1.465   5.728  0.1973  0.3036  0.6336
 2156TIP3    H227884   4.368   1.534   5.594 -1.5230  1.2104  1.0098
 2157TIP3   OH227885   2.429   0.444   1.064  1.0380  0.1721 -0.4606
 2157TIP3    H127886   2.341   0.434   1.100  1.8559  0.4444  1.8027
 2157TIP3    H227887   2.454   0.355   1.038  0.0178  0.1367 -1.3952
 2158TIP3   OH227888   5.505   6.072  16.047  0.0084 -0.2855  0.0181
 2158TIP3    H127889   5.508   6.041  16.138  1.4968 -1.3723 -0.3597
 2158TIP3    H227890   5.508   6.167  16.054  0.9541 -0.3696  1.1061
 2159TIP3   OH227891   5.454   5.060  15.516  0.4043 -0.1485  0.3846
 2159TIP3    H127892   5.472   5.095  15.429 -1.0144 -1.3157 -0.4312
 2159TIP3    H227893   5.378   5.111  15.547 -0.0438 -0.7395  0.2773
 2160TIP3   OH227894   1.060   3.207   4.547  0.1826  0.0760  0.3993
 2160TIP3    H127895   1.019   3.291   4.529  0.5220  0.0894 -0.3525
 2160TIP3    H227896   1.152   3.220   4.526  0.2854 -0.4025  0.5375
 2161TIP3   OH227897   5.460   6.543  14.474  0.0707  0.2738  0.7338
 2161TIP3    H127898   5.396   6.602  14.433 -2.8341 -3.1478 -0.2317
 2161TIP3    H227899   5.430   6.535  14.565 -0.3966 -0.6330  0.5154
 2162TIP3   OH227900   2.047   2.093  14.194 -0.1472  0.4849 -0.3994
 2162TIP3    H127901   1.996   2.056  14.266 -1.6696  1.3390 -0.9688
 2162TIP3    H227902   2.136   2.098  14.227 -0.2614 -1.6956  0.4270
 2163TIP3   OH227903   2.245   6.736   3.672  0.1404  0.4698 -0.4353
 2163TIP3    H127904   2.247   6.780   3.587  0.6326  0.7566 -0.2768
 2163TIP3    H227905   2.262   6.805   3.736  2.7654 -0.2176 -0.2985
 2164TIP3   OH227906   3.340   1.706   3.090  0.0889 -0.0609 -1.0181
 2164TIP3    H127907   3.349   1.800   3.102  1.1381 -0.3334  0.6502
 2164TIP3    H227908   3.267   1.696   3.028 -1.8583  1.7646  0.8006
 2165TIP3   OH227909   4.964   6.705  15.279 -0.0932 -0.1783 -0.2311
 2165TIP3    H127910   5.014   6.625  15.298 -0.8816 -0.9146 -1.1416
 2165TIP3    H227911   4.925   6.729  15.363 -0.7257 -1.3872 -0.1634
 2166TIP3   OH227912   2.818   2.934  14.690  0.0211  0.2510  0.0216
 2166TIP3    H127913   2.760   2.952  14.765  0.5002  1.2558  0.1720
 2166TIP3    H227914   2.759   2.934  14.615 -0.4727 -0.7978  0.3827
 2167TIP3   OH227915   4.916   0.854  17.036  0.2542 -0.1499  0.1062
 2167TIP3    H127916   4.825   0.827  17.046  0.5937 -1.0090  1.0396
 2167TIP3    H227917   4.960   0.819  17.113  1.9996 -2.4782 -1.7694
 2168TIP3   OH227918   5.648   3.451   0.419 -0.3978 -0.7799 -0.2973
 2168TIP3    H127919   5.583   3.391   0.384 -1.4007 -0.8502  1.6021
 2168TIP3    H227920   5.630   3.534   0.374 -1.4675 -0.9379 -0.1832
 2169TIP3   OH227921   0.383   0.293   3.139  0.4942  0.4641  0.5989
 2169TIP3    H127922   0.315   0.230   3.163 -0.0914  0.9646  0.2852
 2169TIP3    H227923   0.339   0.353   3.079  0.8825  1.4903  1.3085
 2170TIP3   OH227924   6.542   1.670  12.526  0.8724 -0.1591  0.3618
 2170TIP3    H127925   6.573   1.743  12.580 -0.0162 -0.3965  1.2278
 2170TIP3    H227926   6.492   1.711  12.456  0.1475  0.0705  0.9976
 2171TIP3   OH227927   1.395   3.986  14.303 -0.3892  0.3639 -0.0644
 2171TIP3    H127928   1.374   3.894  14.290  0.4912 -0.0680  1.4028
 2171TIP3    H227929   1.462   3.987  14.371 -2.6569  2.2905  2.3253
 2172TIP3   OH227930   6.042   3.200   2.493 -0.4122  0.1211  0.3440
 2172TIP3    H127931   6.090   3.273   2.454 -0.9942  0.4348  0.2024
 2172TIP3    H227932   6.083   3.188   2.578 -1.3195  1.6693  1.0553
 2173TIP3   OH227933   2.015   4.301   0.705 -0.1141 -0.1334 -0.0424
 2173TIP3    H127934   1.942   4.344   0.661  0.4227  0.7424 -0.1023
 2173TIP3    H227935   1.976   4.262   0.784 -0.5679  0.6972  0.1564
 2174TIP3   OH227936   0.650   2.982  15.965 -0.9885  0.0816  0.1078
 2174TIP3    H127937   0.680   2.892  15.966  0.3964  0.4419  3.0824
 2174TIP3    H227938   0.558   2.976  15.937 -0.4314 -1.9863 -1.4937
 2175TIP3   OH227939   1.320   0.047  15.997 -0.0056 -0.2131 -0.5086
 2175TIP3    H127940   1.240   0.084  16.034  0.9349  1.4169 -0.0304
 2175TIP3    H227941   1.291   0.005  15.916 -1.4978 -0.5717  0.1714
 2176TIP3   OH227942   0.055   5.844  11.546  0.1230 -0.3561 -0.1205
 2176TIP3    H127943   0.044   5.862  11.452 -0.7847 -0.1016  0.0307
 2176TIP3    H227944   0.021   5.922  11.590  1.1338 -0.2034  0.4169
 2177TIP3   OH227945   0.909   5.487  13.977 -0.4533 -0.0993  0.0223
 2177TIP3    H127946   0.939   5.543  14.048 -0.7619  0.3757 -0.2181
 2177TIP3    H227947   0.970   5.504  13.905  0.1644 -0.9508  0.3204
 2178TIP3   OH227948   0.154   4.642   0.310 -0.1876  0.1149  0.2623
 2178TIP3    H127949   0.245   4.644   0.279 -0.0006 -1.7899  0.5663
 2178TIP3    H227950   0.103   4.672   0.235  0.7853  4.4569  1.0296
 2179TIP3   OH227951   0.941   2.486  12.040  0.5910 -0.0765  0.8721
 2179TIP3    H127952   0.864   2.508  12.092 -0.1952 -1.7717  0.5205
 2179TIP3    H227953   0.951   2.391  12.051  0.6880 -0.4333 -1.5853
 2180TIP3   OH227954   2.686   2.505  13.594 -0.2116  0.0666 -0.5672
 2180TIP3    H127955   2.690   2.414  13.563  0.1361 -0.0622 -0.1559
 2180TIP3    H227956   2.597   2.533  13.574 -0.4958 -0.5480 -0.1965
 2181TIP3   OH227957   1.389   4.007   5.178 -0.4558 -0.6360  0.0023
 2181TIP3    H127958   1.484   4.014   5.173 -0.5330  0.9246  0.0587
 2181TIP3    H227959   1.373   3.922   5.219  0.8417 -1.8288 -1.7876
 2182TIP3   OH227960   6.343   4.939   4.993 -0.0895 -0.3467 -0.4778
 2182TIP3    H127961   6.326   4.908   5.082 -2.5657  0.8026 -0.4618
 2182TIP3    H227962   6.421   4.892   4.966 -0.0630 -1.7727  1.8008
 2183TIP3   OH227963   4.799   4.101  14.591 -0.1027  0.2905  0.8259
 2183TIP3    H127964   4.872   4.090  14.531 -0.9537 -0.5742 -0.0747
 2183TIP3    H227965   4.788   4.196  14.598  0.9629  0.4239  0.8171
 2184TIP3   OH227966   0.179   5.566   5.957 -0.1044  0.3343 -0.0987
 2184TIP3    H127967   0.169   5.485   6.007  0.8135 -0.4636 -1.1519
 2184TIP3    H227968   0.091   5.604   5.954 -0.4514 -0.3767  0.8037
 2185TIP3   OH227969   1.320   2.717  14.319 -0.2219  0.2219  0.1452
 2185TIP3    H127970   1.414   2.730  14.314 -0.5054  2.3509 -0.4117
 2185TIP3    H227971   1.306   2.674  14.403  1.1553  0.6900  0.6374
 2186TIP3   OH227972   4.861   0.715  14.583 -0.5906  0.3663 -0.0188
 2186TIP3    H127973   4.921   0.657  14.536 -1.3134 -0.7488  0.3938
 2186TIP3    H227974   4.918   0.770  14.637  0.0737 -0.5293  0.2120
 2187TIP3   OH227975   2.619   5.693  15.845  0.2182 -0.7402 -0.6273
 2187TIP3    H127976   2.582   5.720  15.761  1.6720 -1.1021 -1.4111
 2187TIP3    H227977   2.558   5.728  15.910 -2.4721 -2.7892 -1.8657
 2188TIP3   OH227978   1.027   1.057  15.235  0.3325  0.3497  0.1198
 2188TIP3    H127979   0.967   1.093  15.170  0.9368  1.4193  0.1405
 2188TIP3    H227980   1.114   1.069  15.198  0.6168 -0.1279  0.6060
 2189TIP3   OH227981   4.471   2.346  12.519  0.6545 -0.5898  0.7999
 2189TIP3    H127982   4.442   2.283  12.585  0.2992  0.1323  1.3468
 2189TIP3    H227983   4.390   2.387  12.488  0.5270 -2.4955 -1.7980
 2190TIP3   OH227984   5.566   2.202   2.732  0.3203  0.3110  0.6100
 2190TIP3    H127985   5.525   2.129   2.686 -0.1983  0.8549  0.2070
 2190TIP3    H227986   5.499   2.234   2.792 -0.4882  2.2485 -1.1991
 2191TIP3   OH227987   6.096   5.174   6.325  0.0610 -0.1222 -0.1422
 2191TIP3    H127988   6.122   5.256   6.366 -0.4423 -0.2443  0.4374
 2191TIP3    H227989   6.134   5.106   6.382 -0.4295 -0.2912 -0.0067
 2192TIP3   OH227990   5.452   5.049  13.324 -0.2611  0.2983 -0.0704
 2192TIP3    H127991   5.408   4.980  13.373  0.3995  0.8126  1.2893
 2192TIP3    H227992   5.395   5.064  13.248 -2.5322  1.0505  1.6674
 2193TIP3   OH227993   6.669   4.341   3.727  0.6075 -0.4635 -0.4576
 2193TIP3    H127994   6.756   4.338   3.687  0.8410  1.2754 -0.1259
 2193TIP3    H227995   6.674   4.280   3.801  1.1332 -1.3291 -1.1860
 2194TIP3   OH227996   4.453   1.538  16.220 -0.1187  0.1836 -0.5315
 2194TIP3    H127997   4.481   1.548  16.129 -0.1531 -0.5100 -0.6241
 2194TIP3    H227998   4.423   1.448  16.226 -0.2561  0.2687  0.1337
 2195TIP3   OH227999   0.538   6.049   3.190 -0.1361 -0.3606 -0.2569
 2195TIP3    H128000   0.609   6.110   3.168  0.4519 -0.0974  2.0650
 2195TIP3    H228001   0.496   6.088   3.267 -0.5258 -2.2882  0.5698
 2196TIP3   OH228002   5.221   3.642   1.273 -0.4490 -0.0011 -0.4070
 2196TIP3    H128003   5.198   3.703   1.344  0.1465  0.0086 -0.2156
 2196TIP3    H228004   5.265   3.570   1.317 -0.5865 -0.2686 -0.7073
 2197TIP3   OH228005   0.649   4.856  11.426  0.1246  0.5313 -0.2117
 2197TIP3    H128006   0.570   4.802  11.433  0.9707 -0.6252  0.5884
 2197TIP3    H228007   0.684   4.861  11.515  0.7561  1.3688 -0.4872
 2198TIP3   OH228008   5.903   0.841   5.341 -0.0245 -0.4610  0.8491
 2198TIP3    H128009   5.905   0.914   5.403 -0.8248 -1.7546  2.4987
 2198TIP3    H228010   5.940   0.768   5.390 -1.4530 -1.7318  0.0901
 2199TIP3   OH228011   4.220   1.736  12.619 -0.0512  0.0022  0.2807
 2199TIP3    H128012   4.230   1.677  12.544 -0.4569  0.1323  0.1251
 2199TIP3    H228013   4.230   1.824  12.583  1.0544  0.0237  0.5907
 2200TIP3   OH228014   0.267   3.551   3.142 -0.3963 -0.4687 -0.1746
 2200TIP3    H128015   0.361   3.558   3.155 -0.2736 -1.5197 -0.3431
 2200TIP3    H228016   0.242   3.632   3.099  0.5861 -0.5447 -0.9194
 2201TIP3   OH228017   1.470   4.637  10.529 -0.3160 -0.0324 -0.8723
 2201TIP3    H128018   1.435   4.571  10.589  0.8417  0.5327  0.4913
 2201TIP3    H228019   1.393   4.673  10.486 -1.3855  0.5752  1.3898
 2202TIP3   OH228020   6.531   4.141   5.130 -0.6577  0.1542  0.0796
 2202TIP3    H128021   6.575   4.160   5.047  3.0977  0.0359  1.8483
 2202TIP3    H228022   6.494   4.053   5.117  0.0699  0.0185 -1.3765
 2203TIP3   OH228023   5.842   5.986   1.618  0.0784  0.0630  0.2495
 2203TIP3    H128024   5.750   6.011   1.611 -0.8170 -2.7294  0.6815
 2203TIP3    H228025   5.849   5.943   1.704  0.7113 -3.3276 -1.3249
 2204TIP3   OH228026   1.045   2.612  14.181  0.3129  0.2341 -0.3193
 2204TIP3    H128027   1.131   2.644  14.208 -0.1063 -0.4104  2.0071
 2204TIP3    H228028   1.016   2.558  14.254 -1.9025  0.1124 -1.2254
 2205TIP3   OH228029   5.649   4.413   3.320  0.3547  0.6222  0.3192
 2205TIP3    H128030   5.696   4.493   3.294  1.1731  0.0879  0.1105
 2205TIP3    H228031   5.565   4.420   3.276  1.0001  0.6455 -0.9678
 2206TIP3   OH228032   3.088   4.054  14.214  0.4777 -0.3336 -0.2052
 2206TIP3    H128033   3.046   3.971  14.235 -0.9171  0.5188  0.5490
 2206TIP3    H228034   3.086   4.058  14.118  1.8617 -1.7763 -0.3333
 2207TIP3   OH228035   1.282   5.992   1.679 -0.0923 -0.3771  0.4921
 2207TIP3    H128036   1.237   5.941   1.746 -1.3994 -2.6862 -1.9265
 2207TIP3    H228037   1.364   5.943   1.664  0.0881 -0.0027  0.2607
 2208TIP3   OH228038   4.624   3.226   1.615  0.1670  0.1114 -0.5449
 2208TIP3    H128039   4.557   3.179   1.565 -0.2705 -1.6918  1.5488
 2208TIP3    H228040   4.574   3.281   1.675  0.5534 -0.3599  0.2288
 2209TIP3   OH228041   5.038   4.157  17.027 -0.5101 -0.0644 -0.1995
 2209TIP3    H128042   4.975   4.093  17.062 -0.1833 -1.5825 -2.1595
 2209TIP3    H228043   5.009   4.170  16.936 -0.2144  2.1926 -0.0126
 2210TIP3   OH228044   5.362   3.369  15.284  0.0270 -0.5341  0.0563
 2210TIP3    H128045   5.308   3.343  15.209  0.8007  0.1822 -0.7563
 2210TIP3    H228046   5.306   3.350  15.360  0.1280 -3.5914 -0.5050
 2211TIP3   OH228047   2.470   6.349   3.141  0.5593 -0.2387 -0.1053
 2211TIP3    H128048   2.434   6.436   3.160 -0.0964 -0.2221 -1.2781
 2211TIP3    H228049   2.561   6.355   3.168  0.7394  1.1010 -0.8911
 2212TIP3   OH228050   5.766   5.536   5.276 -0.1256  0.1626 -0.3177
 2212TIP3    H128051   5.859   5.536   5.252  0.0136  1.5770  0.0915
 2212TIP3    H228052   5.724   5.480   5.211  0.6991  1.3146 -1.9288
 2213TIP3   OH228053   0.108   5.724  13.710 -0.0025 -0.2679 -0.0170
 2213TIP3    H128054   0.122   5.814  13.681  0.0065  0.1134  1.1199
 2213TIP3    H228055   0.132   5.670  13.634 -1.8916  0.7188 -1.4278
 2214TIP3   OH228056   6.551   0.906   2.360  0.2211  0.6454 -0.4962
 2214TIP3    H128057   6.628   0.915   2.305  1.2159 -0.6207  0.6264
 2214TIP3    H228058   6.584   0.869   2.442 -1.5324  0.3404  0.1193
 2215TIP3   OH228059   3.273   2.931   1.974 -0.1424  1.0504 -0.3228
 2215TIP3    H128060   3.237   2.957   2.059 -1.3815 -1.6558  0.0815
 2215TIP3    H228061   3.197   2.928   1.916  0.1178 -0.4678 -0.6120
 2216TIP3   OH228062   6.129   0.852   3.443  0.5553 -0.0524 -0.3846
 2216TIP3    H128063   6.177   0.910   3.502  0.8916 -1.1666  0.4731
 2216TIP3    H228064   6.185   0.774   3.435  0.5011  0.0577 -2.1627
 2217TIP3   OH228065   0.859   5.104  12.648 -0.0117  0.2106  0.0196
 2217TIP3    H128066   0.770   5.082  12.619  0.2058 -0.2326 -0.3157
 2217TIP3    H228067   0.898   5.151  12.575  0.5641 -0.9790 -0.4498
 2218TIP3   OH228068   3.530   6.057   3.893  0.4303 -0.0372 -0.1552
 2218TIP3    H128069   3.593   6.049   3.964  0.2512  0.7716  0.1045
 2218TIP3    H228070   3.445   6.056   3.936  0.2759 -0.8428 -0.4787
 2219TIP3   OH228071   6.365   4.073   2.800 -0.2258 -0.1356  0.2510
 2219TIP3    H128072   6.279   4.092   2.837 -0.5799 -0.3053 -0.4519
 2219TIP3    H228073   6.403   4.007   2.858  0.3360  1.4880  1.7835
 2220TIP3   OH228074   5.012   1.059  12.358  0.1558  0.0185 -0.0627
 2220TIP3    H128075   4.966   0.976  12.359 -0.2180  0.2253  0.4886
 2220TIP3    H228076   5.073   1.052  12.285  1.1830 -1.3043  0.8614
 2221TIP3   OH228077   4.406   1.823  15.991 -0.5042  0.1473 -0.0369
 2221TIP3    H128078   4.498   1.834  15.969 -0.6251  0.8888 -0.2026
 2221TIP3    H228079   4.382   1.738  15.954 -0.0422  0.2194 -0.5088
 2222TIP3   OH228080   4.272   2.612   5.865 -0.8315  0.0391 -0.4490
 2222TIP3    H128081   4.226   2.602   5.948  1.1321  0.2042  0.7358
 2222TIP3    H228082   4.316   2.528   5.851  3.4340  1.5830  1.7431
 2223TIP3   OH228083   4.886   5.900   0.777 -0.3648 -0.2484 -0.4692
 2223TIP3    H128084   4.923   5.987   0.761 -0.1966 -0.0367  0.9249
 2223TIP3    H228085   4.791   5.915   0.782 -0.5446 -0.5180 -2.3511
 2224TIP3   OH228086   2.413   4.743   1.991 -0.1470  0.2359 -0.2949
 2224TIP3    H128087   2.399   4.789   2.074  2.1279  1.4398 -0.5017
 2224TIP3    H228088   2.417   4.812   1.925  1.0191 -0.4431 -0.9690
 2225TIP3   OH228089   1.836   1.845  17.097  0.0880 -0.0945 -0.1768
 2225TIP3    H128090   1.823   1.781  17.167 -0.2071 -0.6221 -0.7007
 2225TIP3    H228091   1.930   1.864  17.098  0.2693 -0.9473 -0.3597
 2226TIP3   OH228092   0.856   3.468  10.664  0.2788  0.0448  0.4374
 2226TIP3    H128093   0.778   3.495  10.712  0.1465 -1.5494  1.1840
 2226TIP3    H228094   0.827   3.396  10.608  1.0067  0.0847 -0.0071
 2227TIP3   OH228095   1.027   2.781   5.833 -0.4620  0.5831 -0.6474
 2227TIP3    H128096   0.990   2.755   5.918 -1.0317  0.5145 -0.9138
 2227TIP3    H228097   1.079   2.859   5.853  0.4052 -0.1215 -0.0219
 2228TIP3   OH228098   6.510   2.912  13.942 -0.2309 -0.2661 -0.4276
 2228TIP3    H128099   6.531   2.854  14.016 -1.2998 -0.3721 -0.1954
 2228TIP3    H228100   6.569   2.986  13.953  1.5825 -1.5313 -1.0371
 2229TIP3   OH228101   6.297   1.749   3.384 -0.0646  0.6938  0.5242
 2229TIP3    H128102   6.299   1.716   3.474  0.5538 -1.7409 -0.2915
 2229TIP3    H228103   6.217   1.711   3.347  0.0641  1.0642 -0.1472
 2230TIP3   OH228104   2.154   5.455  16.886 -0.2224  0.1301 -0.9449
 2230TIP3    H128105   2.177   5.380  16.940 -0.7963  0.5144 -0.1508
 2230TIP3    H228106   2.234   5.475  16.837  0.6952  0.5388  0.6714
 2231TIP3   OH228107   1.525   1.188   2.401  0.3153 -0.3121  0.1416
 2231TIP3    H128108   1.521   1.098   2.432 -2.9438  0.1558  1.5076
 2231TIP3    H228109   1.500   1.182   2.308 -1.8147 -0.7292  0.6901
 2232TIP3   OH228110   2.753   2.184   3.435 -0.2242  0.4351 -0.6883
 2232TIP3    H128111   2.739   2.270   3.394  0.3909  0.4035 -0.9722
 2232TIP3    H228112   2.773   2.204   3.526 -2.5909  0.4601 -0.1129
 2233TIP3   OH228113   4.168   4.497  15.833  0.2449 -0.4866 -0.2856
 2233TIP3    H128114   4.247   4.445  15.850  0.7698  0.2537 -0.4239
 2233TIP3    H228115   4.200   4.586  15.820 -0.6695 -0.0707  0.2220
 2234TIP3   OH228116   3.914   1.293  10.724 -0.0885  0.3505  0.5119
 2234TIP3    H128117   4.000   1.304  10.684  1.7956 -1.5024  3.6257
 2234TIP3    H228118   3.902   1.371  10.778 -0.2352  0.4572  0.3277
 2235TIP3   OH228119   5.633   2.156   4.529 -0.4766 -0.0079  0.4262
 2235TIP3    H128120   5.670   2.222   4.470  1.2468 -0.5197  0.8499
 2235TIP3    H228121   5.545   2.187   4.549  0.1370  1.9537  0.3027
 2236TIP3   OH228122   5.855   4.905   3.973  0.1853 -0.0793  0.1258
 2236TIP3    H128123   5.819   4.914   3.885  1.0158 -0.0181 -0.2145
 2236TIP3    H228124   5.927   4.842   3.963 -1.9613 -2.9634  1.4156
 2237TIP3   OH228125   1.195   1.648  11.858  0.4314  0.0437  0.0537
 2237TIP3    H128126   1.279   1.691  11.844  1.0280 -0.9404  0.4714
 2237TIP3    H228127   1.195   1.626  11.951 -0.0996 -0.3470 -0.0332
 2238TIP3   OH228128   0.097   6.334   1.855 -0.2267 -0.2653  1.2045
 2238TIP3    H128129   0.077   6.245   1.825 -1.3019  0.1467  0.6197
 2238TIP3    H228130   0.020   6.360   1.905 -1.5362  1.5645 -1.4959
 2239TIP3   OH228131   6.382   2.808   0.700 -0.5408 -0.0059  0.2208
 2239TIP3    H128132   6.372   2.853   0.616  0.3200  0.1369  0.1796
 2239TIP3    H228133   6.438   2.733   0.680  0.5789  0.6317  0.8450
 2240TIP3   OH228134   6.331   5.900  12.912  0.5718 -0.1140  0.0147
 2240TIP3    H128135   6.382   5.931  12.986 -0.2592 -2.1234  1.5265
 2240TIP3    H228136   6.329   5.974  12.851  0.1763  2.1002  2.5537
 2241TIP3   OH228137   4.541   6.126   6.255 -0.1531  0.1031  0.4424
 2241TIP3    H128138   4.461   6.115   6.306 -0.6480  0.8125 -0.1653
 2241TIP3    H228139   4.511   6.160   6.171  0.7192 -0.3428 -0.0621
 2242TIP3   OH228140   3.404   3.016  13.065  0.0309  0.2333  0.0671
 2242TIP3    H128141   3.318   3.006  13.107 -0.2220  1.4492 -0.1328
 2242TIP3    H228142   3.423   2.930  13.029 -3.0852  0.8431 -3.6583
 2243TIP3   OH228143   1.730   1.134  11.552  0.2707  0.1305 -0.7254
 2243TIP3    H128144   1.794   1.188  11.507 -1.1623  2.2066 -0.4601
 2243TIP3    H228145   1.747   1.150  11.645  0.8834 -1.2357 -0.5824
 2244TIP3   OH228146   5.989   6.704  11.819 -0.1406 -0.0643 -0.0129
 2244TIP3    H128147   6.065   6.646  11.828 -0.4941 -0.3261  1.7524
 2244TIP3    H228148   6.013   6.766  11.751  0.9420 -1.2335 -0.7334
 2245TIP3   OH228149   3.847   4.439  11.547 -0.8512 -0.1939 -0.4194
 2245TIP3    H128150   3.872   4.509  11.607 -0.6714 -2.6074  2.6371
 2245TIP3    H228151   3.929   4.415  11.503  0.0857 -1.0617  1.6183
 2246TIP3   OH228152   3.767   1.792  12.882 -0.0144  0.0362 -0.0391
 2246TIP3    H128153   3.751   1.759  12.794 -0.1827 -0.8897  0.3261
 2246TIP3    H228154   3.686   1.775  12.930  0.5639 -0.8205  0.6819
 2247TIP3   OH228155   0.664   4.281  16.469  0.4186 -0.4644  0.0617
 2247TIP3    H128156   0.667   4.193  16.434 -1.3555 -0.3205 -0.5382
 2247TIP3    H228157   0.738   4.326  16.429 -0.2092 -0.9543 -1.7053
 2248TIP3   OH228158   5.499   1.456  14.737 -0.7318 -0.1432  0.4253
 2248TIP3    H128159   5.411   1.440  14.702 -1.0189  1.0661  0.5462
 2248TIP3    H228160   5.486   1.459  14.832 -0.7566  1.0318  0.3994
 2249TIP3   OH228161   4.371   6.673  16.441 -1.1720  0.2657 -0.1146
 2249TIP3    H128162   4.344   6.743  16.382 -2.4337 -0.5030 -0.4941
 2249TIP3    H228163   4.396   6.717  16.522 -0.5881  1.2442 -0.8071
 2250TIP3   OH228164   0.872   1.956  12.112  0.2807  0.2424  0.8752
 2250TIP3    H128165   0.784   1.919  12.107 -0.1429  1.3817 -1.1617
 2250TIP3    H228166   0.865   2.026  12.177 -1.4339  2.8497 -1.8304
 2251TIP3   OH228167   0.996   3.627  11.419  0.2172  0.5820  0.3478
 2251TIP3    H128168   0.927   3.644  11.355 -0.7027 -2.1828  0.4537
 2251TIP3    H228169   0.949   3.601  11.498  1.3437  0.1441  0.8960
 2252TIP3   OH228170   0.793   4.140  13.744  0.4870 -0.0394  0.6001
 2252TIP3    H128171   0.846   4.060  13.740  0.3221 -0.1343  0.1856
 2252TIP3    H228172   0.710   4.116  13.703  0.8206  0.6367 -0.5204
 2253TIP3   OH228173   0.229   5.056   5.934 -0.4896  0.0488  0.5916
 2253TIP3    H128174   0.222   5.145   5.899 -0.6674 -0.1423  0.1150
 2253TIP3    H228175   0.278   5.008   5.867  1.1189  0.1794  1.6352
 2254TIP3   OH228176   5.040   4.452  17.218 -0.3729  0.0222  0.1284
 2254TIP3    H128177   5.070   4.364  17.239 -2.3288 -0.4510  1.1040
 2254TIP3    H228178   4.957   4.462  17.265 -0.7903  1.9623 -0.8968
 2255TIP3   OH228179   2.894   4.862  17.139 -0.4937 -0.0273  0.5151
 2255TIP3    H128180   2.945   4.942  17.137  0.1220 -0.3444  1.7632
 2255TIP3    H228181   2.803   4.891  17.147 -0.2029  0.5732  2.0019
 2256TIP3   OH228182   5.883   3.412   3.151  0.2639 -0.2063 -0.8256
 2256TIP3    H128183   5.829   3.411   3.230  1.6714  2.8188  0.3465
 2256TIP3    H228184   5.862   3.495   3.108  0.9035 -0.9351 -2.6448
 2257TIP3   OH228185   5.450   5.700   4.293 -0.3789 -0.2541 -0.0774
 2257TIP3    H128186   5.525   5.714   4.235 -0.4308  2.4394  0.3914
 2257TIP3    H228187   5.474   5.624   4.346 -0.0363 -2.3974 -3.0453
 2258TIP3   OH228188   1.064   3.537   0.499  0.4795  0.5070 -0.0301
 2258TIP3    H128189   1.053   3.538   0.594 -1.0613  1.6292 -0.1860
 2258TIP3    H228190   0.999   3.599   0.467 -2.1455 -2.9508 -2.1355
 2259TIP3   OH228191   4.492   4.934   0.590  0.1846 -0.2269  0.4265
 2259TIP3    H128192   4.401   4.957   0.610 -0.8642 -2.9918 -0.7474
 2259TIP3    H228193   4.540   4.953   0.671 -1.6495  0.0930  1.4874
 2260TIP3   OH228194   3.494   0.108   1.447 -0.1144  0.1949 -0.0203
 2260TIP3    H128195   3.585   0.133   1.464  0.5356 -3.0758  2.2337
 2260TIP3    H228196   3.452   0.116   1.533 -1.2787 -0.7389 -0.4883
 2261TIP3   OH228197   3.545   1.012  14.950 -0.2156  0.4522  0.6256
 2261TIP3    H128198   3.511   1.100  14.932 -1.5780  0.4433  2.8141
 2261TIP3    H228199   3.636   1.027  14.974 -0.6665  1.4073  1.8485
 2262TIP3   OH228200   1.444   4.711   3.970  0.3441  0.0950 -0.6679
 2262TIP3    H128201   1.491   4.776   4.022  0.0506  0.9099 -1.3818
 2262TIP3    H228202   1.429   4.755   3.886  1.0679 -1.2921 -1.5432
 2263TIP3   OH228203   3.081   6.730  13.301  0.1047 -0.6061 -0.0547
 2263TIP3    H128204   3.016   6.750  13.368 -0.2881  0.4514 -0.7415
 2263TIP3    H228205   3.152   6.687  13.350 -0.7067 -0.9711  0.8354
 2264TIP3   OH228206   3.191   2.050  16.919 -0.2467  0.0980  0.5041
 2264TIP3    H128207   3.170   1.961  16.889 -2.1108  0.1038  1.5746
 2264TIP3    H228208   3.239   2.037  17.001  0.7750  0.0842 -0.0922
 2265TIP3   OH228209   5.377   3.301   3.639  0.0461 -0.0187 -0.3295
 2265TIP3    H128210   5.404   3.377   3.691  0.6918  0.0283 -0.7201
 2265TIP3    H228211   5.397   3.225   3.694  0.1360  0.0593 -0.2544
 2266TIP3   OH228212   5.115   3.317   0.935 -0.6187 -0.6126  0.2242
 2266TIP3    H128213   5.180   3.271   0.882  0.0210  1.5910 -1.0297
 2266TIP3    H228214   5.166   3.357   1.006 -0.7224  0.2434 -0.1641
 2267TIP3   OH228215   4.946   2.073   4.451 -0.1297  0.0148  0.3306
 2267TIP3    H128216   4.882   2.021   4.402  0.9694  1.3041 -2.7241
 2267TIP3    H228217   4.937   2.162   4.416  0.2858  1.2465  3.0725
 2268TIP3   OH228218   1.533   1.520   4.128 -0.0326  0.1592 -0.2871
 2268TIP3    H128219   1.470   1.448   4.123 -1.4357  1.1224  2.0225
 2268TIP3    H228220   1.597   1.491   4.193  0.1984  0.4086 -0.4045
 2269TIP3   OH228221   1.504   2.322  14.877 -0.3455  0.4381  0.8849
 2269TIP3    H128222   1.485   2.408  14.914  1.5234  1.0782  0.5138
 2269TIP3    H228223   1.520   2.340  14.784 -1.4827 -0.5799  0.4746
 2270TIP3   OH228224   3.227   2.635  14.879  0.0571 -0.3101 -0.2377
 2270TIP3    H128225   3.163   2.595  14.820 -1.0129  0.2735  0.4867
 2270TIP3    H228226   3.175   2.665  14.954  1.2828 -0.4289  0.6935
 2271TIP3   OH228227   4.958   2.435  15.693  0.6154 -0.2019 -0.0094
 2271TIP3    H128228   4.995   2.358  15.650  0.8279  0.5594 -1.2428
 2271TIP3    H228229   4.995   2.509  15.645 -0.4561  0.6428  0.4209
 2272TIP3   OH228230   0.120   3.872  16.975  0.0902  0.6854 -0.0821
 2272TIP3    H128231   0.046   3.933  16.972 -0.8553 -0.4130  0.2476
 2272TIP3    H228232   0.090   3.795  16.927  0.8911  0.0936  0.3436
 2273TIP3   OH228233   6.538   4.947   2.032 -0.7459 -0.5579  0.2895
 2273TIP3    H128234   6.599   4.967   2.104  0.0605 -2.3042  0.1378
 2273TIP3    H228235   6.506   5.033   2.003  1.9268  0.4946  0.1531
 2274TIP3   OH228236   5.261   4.348   1.385  0.3293  0.1025  0.4660
 2274TIP3    H128237   5.244   4.417   1.321 -0.0913 -0.9860 -0.6346
 2274TIP3    H228238   5.295   4.394   1.461 -1.5912  1.7159  0.4277
 2275TIP3   OH228239   1.452   0.231   5.190 -0.0871  0.3346 -0.3411
 2275TIP3    H128240   1.396   0.249   5.265 -1.1004 -4.4053  0.3485
 2275TIP3    H228241   1.392   0.223   5.116  0.0483 -1.3687 -0.2943
 2276TIP3   OH228242   4.806   5.200   5.036 -0.3301 -0.0366 -0.2474
 2276TIP3    H128243   4.711   5.210   5.022 -0.0967  1.5479 -0.9860
 2276TIP3    H228244   4.844   5.277   4.994  1.3201 -0.7526 -0.1350
 2277TIP3   OH228245   5.836   5.433   6.478 -0.4973  0.3383  0.1407
 2277TIP3    H128246   5.869   5.368   6.539 -1.6526  0.2445  0.6756
 2277TIP3    H228247   5.742   5.440   6.497 -0.4789  1.8700 -0.1643
 2278TIP3   OH228248   4.395   1.325  12.871  0.0568  0.6261 -0.5968
 2278TIP3    H128249   4.430   1.237  12.864 -0.1519  0.3653  1.1819
 2278TIP3    H228250   4.471   1.379  12.892  0.0257  0.7205 -0.7235
 2279TIP3   OH228251   0.717   1.162   2.443 -0.0225  0.3838  0.0923
 2279TIP3    H128252   0.786   1.096   2.449  0.7713  1.2346  0.5299
 2279TIP3    H228253   0.635   1.111   2.443  0.5582 -0.5758  0.7104
 2280TIP3   OH228254   2.744   4.967  15.038  0.3455  0.0948  0.7467
 2280TIP3    H128255   2.728   5.057  15.010  1.1057  0.2873  0.9084
 2280TIP3    H228256   2.682   4.915  14.988  1.3638  0.4729 -1.0105
 2281TIP3   OH228257   4.681   2.643  12.203 -0.2807 -0.9108 -0.1507
 2281TIP3    H128258   4.763   2.692  12.201 -1.3564  0.9754 -2.6328
 2281TIP3    H228259   4.706   2.556  12.235  2.2518  0.2431  1.3224
 2282TIP3   OH228260   1.094   0.537   2.232 -0.0912 -0.0171 -0.4107
 2282TIP3    H128261   1.148   0.471   2.276 -0.5216 -0.2542 -0.2282
 2282TIP3    H228262   1.005   0.501   2.234 -0.1444  0.0366 -1.3452
 2283TIP3   OH228263   1.253   0.224   1.341 -0.4609 -0.1631  0.2733
 2283TIP3    H128264   1.278   0.294   1.280 -1.7549 -0.0145 -0.1102
 2283TIP3    H228265   1.157   0.224   1.339 -0.4847 -1.7060  0.5636
 2284TIP3   OH228266   5.735   6.069   0.494  0.1122  0.3964 -0.6112
 2284TIP3    H128267   5.665   6.049   0.433  0.4320  1.1485 -1.2437
 2284TIP3    H228268   5.735   6.164   0.502  0.4938  0.3540  0.0642
 2285TIP3   OH228269   4.515   3.568   0.784  0.1324 -0.2224  0.0565
 2285TIP3    H128270   4.554   3.652   0.809 -1.7724  0.2133  1.8504
 2285TIP3    H228271   4.510   3.572   0.688  0.3336  1.5928  0.0826
 2286TIP3   OH228272   5.135   0.989  17.273  0.1648 -0.0860 -0.2111
 2286TIP3    H128273   5.208   0.975  17.213 -0.3842 -0.7530 -0.7440
 2286TIP3    H228274   5.148   0.924  17.343 -0.4001 -0.8491 -0.7888
 2287TIP3   OH228275   1.266   4.670  13.627 -0.6776  0.0296 -0.2031
 2287TIP3    H128276   1.256   4.739  13.692 -0.7361 -1.9450  2.0395
 2287TIP3    H228277   1.176   4.646  13.603 -0.7474 -0.8258  0.8411
 2288TIP3   OH228278   2.004   3.166  13.852 -0.0489 -0.1780 -0.3649
 2288TIP3    H128279   1.995   3.195  13.761 -1.6487 -1.7168 -0.7493
 2288TIP3    H228280   2.040   3.077  13.845  0.6503  0.0222  0.5589
 2289TIP3   OH228281   5.604   0.565  13.436 -0.0573 -0.3581 -0.1506
 2289TIP3    H128282   5.622   0.486  13.386 -0.0478 -0.6169  0.2578
 2289TIP3    H228283   5.683   0.578  13.489 -0.3141 -0.4370  0.2550
 2290TIP3   OH228284   5.357   5.628  11.439 -0.3122  0.0944 -0.6654
 2290TIP3    H128285   5.310   5.680  11.504 -0.2659  0.9981 -1.3432
 2290TIP3    H228286   5.442   5.672  11.431  0.2077 -0.8143 -0.3454
 2291TIP3   OH228287   0.014   1.584  14.789  0.1278 -0.4135  0.4438
 2291TIP3    H128288   0.070   1.557  14.862  0.1035 -0.8820  0.2938
 2291TIP3    H228289  -0.055   1.637  14.830 -0.8903 -2.1008  1.0397
 2292TIP3   OH228290   2.488   2.540   4.803 -0.1110 -0.1179 -0.6683
 2292TIP3    H128291   2.491   2.475   4.873 -1.2493  0.8068  0.2996
 2292TIP3    H228292   2.396   2.540   4.775  0.2645 -0.2626 -1.9907
 2293TIP3   OH228293   6.291   3.649   2.005  0.0653  0.1273  0.3461
 2293TIP3    H128294   6.377   3.688   2.022 -0.0492  0.6842 -0.3205
 2293TIP3    H228295   6.310   3.568   1.958  0.2708 -0.2926  1.1329
 2294TIP3   OH228296   5.845   4.479   0.335  0.5062  0.6355 -0.6849
 2294TIP3    H128297   5.796   4.440   0.407  1.5422 -0.2304 -0.4306
 2294TIP3    H228298   5.787   4.548   0.301 -1.2305 -0.9088 -0.9686
 2295TIP3   OH228299   2.601   3.574   4.183 -0.0750 -0.1007 -0.0528
 2295TIP3    H128300   2.519   3.601   4.141 -1.1734  0.2896  2.1540
 2295TIP3    H228301   2.585   3.484   4.211  0.4040 -0.1614  0.0241
 2296TIP3   OH228302   1.162   3.355  15.343  0.4803 -0.3806 -0.4866
 2296TIP3    H128303   1.155   3.446  15.371  1.2520 -0.9659  1.7496
 2296TIP3    H228304   1.085   3.312  15.380  0.4229 -0.7713 -1.0386
 2297TIP3   OH228305   4.580   4.060   4.790 -0.0581 -0.1697  0.1209
 2297TIP3    H128306   4.639   3.985   4.792 -0.6023 -0.5885  0.8321
 2297TIP3    H228307   4.576   4.085   4.697  2.3586  0.7793  0.1882
 2298TIP3   OH228308   1.373   6.187  16.952  0.3172 -0.1336  0.4916
 2298TIP3    H128309   1.334   6.244  16.886 -1.3459  0.2456  1.7370
 2298TIP3    H228310   1.443   6.140  16.906  0.6489  1.7064 -0.9595
 2299TIP3   OH228311   1.094   0.245   3.956  0.3305 -0.7478 -0.0106
 2299TIP3    H128312   1.040   0.175   3.918 -0.4907  0.5572 -1.4014
 2299TIP3    H228313   1.044   0.325   3.938  2.2976  0.4265 -0.5120
 2300TIP3   OH228314   4.346   1.341  12.203 -0.1704 -0.5174  0.0029
 2300TIP3    H128315   4.414   1.335  12.136  0.2217  1.2751  0.1971
 2300TIP3    H228316   4.273   1.384  12.158 -1.0350 -2.0129 -0.0770
 2301TIP3   OH228317   1.186   3.412   3.260  0.0553  0.1031  0.2606
 2301TIP3    H128318   1.196   3.365   3.343 -0.7070  2.6443  1.9058
 2301TIP3    H228319   1.103   3.381   3.225  1.1963 -2.2924 -0.5448
 2302TIP3   OH228320   5.727   4.376  17.267  0.5419  0.6036  0.1772
 2302TIP3    H128321   5.823   4.379  17.263  0.6704 -2.1995 -2.1364
 2302TIP3    H228322   5.706   4.283  17.281 -1.8193  0.7929 -1.5210
 2303TIP3   OH228323   6.606   0.825   3.633 -0.5866  0.0786  0.2274
 2303TIP3    H128324   6.530   0.879   3.610  0.8353  1.8984 -0.4975
 2303TIP3    H228325   6.622   0.772   3.555  1.8071  3.3764 -1.8692
 2304TIP3   OH228326   3.103   0.988  16.602 -0.1995 -0.2538 -0.1060
 2304TIP3    H128327   3.106   1.033  16.687 -1.1808  2.0837 -1.2446
 2304TIP3    H228328   3.024   0.934  16.607  0.7013 -1.5261  1.0785
 2305TIP3   OH228329   2.570   5.799  13.088 -0.0884  0.2240  0.2680
 2305TIP3    H128330   2.583   5.807  12.993 -1.1053  0.8142  0.1766
 2305TIP3    H228331   2.533   5.883  13.114 -2.0820 -0.7740  0.7975
 2306TIP3   OH228332   3.425   6.102   5.813 -0.0593 -0.1953 -0.2045
 2306TIP3    H128333   3.378   6.134   5.890  0.4850  1.7876 -0.6298
 2306TIP3    H228334   3.357   6.091   5.747 -0.4700 -1.4884  0.4011
 2307TIP3   OH228335   1.782   3.785  16.291 -0.1097  0.5968 -0.1893
 2307TIP3    H128336   1.793   3.691  16.281 -0.6433  0.4991  0.0821
 2307TIP3    H228337   1.747   3.815  16.207  0.7458  0.6725 -0.5270
 2308TIP3   OH228338   4.829   3.137  15.583  0.7418  0.4672 -0.1607
 2308TIP3    H128339   4.901   3.088  15.543 -0.6167  0.3429 -2.6639
 2308TIP3    H228340   4.870   3.218  15.615  2.1600 -0.0688 -0.5599
 2309TIP3   OH228341   6.154   3.598   3.690 -0.0120  0.2804  0.3960
 2309TIP3    H128342   6.204   3.538   3.745 -1.3300 -0.8561  0.4023
 2309TIP3    H228343   6.221   3.654   3.650  1.3188 -1.4059  0.1196
 2310TIP3   OH228344   6.410   5.581   4.076  0.2309 -0.3734 -0.0295
 2310TIP3    H128345   6.480   5.613   4.133 -1.2351 -2.3053  3.1492
 2310TIP3    H228346   6.332   5.627   4.106 -0.3694 -0.2653 -1.6492
 2311TIP3   OH228347   3.512   2.416  12.751 -0.3431 -0.1148 -0.6626
 2311TIP3    H128348   3.604   2.440  12.749 -0.5924  0.7966 -1.4872
 2311TIP3    H228349   3.501   2.374  12.836  0.7227  0.2015 -0.3509
 2312TIP3   OH228350   1.096   4.318  17.151  0.7201 -0.4255  0.9151
 2312TIP3    H128351   1.178   4.271  17.166 -0.4789 -2.9283  0.1653
 2312TIP3    H228352   1.074   4.299  17.060  0.1607  1.7257  0.5454
 2313TIP3   OH228353   1.153   4.995   0.136  0.3848  0.1406 -0.4071
 2313TIP3    H128354   1.158   5.087   0.112  0.8387  0.6915  1.6278
 2313TIP3    H228355   1.243   4.963   0.128  0.3743  0.0855 -0.3070
 2314TIP3   OH228356   1.756   0.334  11.942  0.1137 -0.1524 -0.1080
 2314TIP3    H128357   1.771   0.287  11.860 -1.0076  0.7889 -0.8897
 2314TIP3    H228358   1.734   0.265  12.005 -0.3664 -0.7797 -0.9380
 2315TIP3   OH228359   5.752   1.694   0.285 -0.3660 -0.4937  0.4699
 2315TIP3    H128360   5.667   1.659   0.256 -0.1582 -0.8939  0.3326
 2315TIP3    H228361   5.808   1.687   0.208 -0.6602  1.3553  0.0468
 2316TIP3   OH228362   2.222   3.052  12.521  0.1796 -0.0301  0.4150
 2316TIP3    H128363   2.142   3.003  12.540  0.4998 -0.2801  1.1509
 2316TIP3    H228364   2.267   2.999  12.455  0.1060 -0.2778  0.5640
 2317TIP3   OH228365   6.382   2.221   6.136  0.7695 -0.0311 -0.1215
 2317TIP3    H128366   6.302   2.171   6.124  1.5281 -1.6275  1.0836
 2317TIP3    H228367   6.358   2.293   6.194  0.2210 -0.5419  0.2924
 2318TIP3   OH228368   5.679   2.375  13.597  0.0486  0.0783  0.0296
 2318TIP3    H128369   5.592   2.414  13.602  0.2255  0.5758 -0.6632
 2318TIP3    H228370   5.726   2.410  13.673 -0.9690 -1.8285  1.6475
 2319TIP3   OH228371   5.716   5.854   4.806  0.3630 -0.1680  0.3479
 2319TIP3    H128372   5.662   5.851   4.885 -1.0250  1.4597 -0.4690
 2319TIP3    H228373   5.761   5.938   4.810 -0.0416  0.1210 -0.7737
 2320TIP3   OH228374   3.462   4.386  13.672 -0.3145 -0.1711  0.5688
 2320TIP3    H128375   3.519   4.389  13.595 -1.0540 -1.6156 -0.0679
 2320TIP3    H228376   3.508   4.328  13.733  0.2340  0.9124  1.2058
 2321TIP3   OH228377   1.984   2.166  13.154 -0.0759  0.0792 -0.2967
 2321TIP3    H128378   1.979   2.137  13.245  0.0377  2.0187  0.3631
 2321TIP3    H228379   1.926   2.107  13.107 -1.9107  0.4132  1.4207
 2322TIP3   OH228380   6.505   0.670  11.964  0.3148 -0.0143  0.0388
 2322TIP3    H128381   6.537   0.618  11.890 -1.5886  0.8295 -1.4843
 2322TIP3    H228382   6.582   0.719  11.994  0.8934  0.6708 -2.3255
 2323TIP3   OH228383   6.525   6.008   4.206 -0.0078 -0.2934 -0.1644
 2323TIP3    H128384   6.492   5.923   4.232  0.7865 -0.8699 -0.9651
 2323TIP3    H228385   6.551   6.051   4.288 -0.1001 -0.9574  0.2157
 2324TIP3   OH228386   3.197   3.345   1.114  0.2627  0.3312 -0.1401
 2324TIP3    H128387   3.217   3.439   1.122  1.5392 -0.0020  0.9930
 2324TIP3    H228388   3.203   3.312   1.204 -0.9177 -0.7134 -0.4141
 2325TIP3   OH228389   0.784   1.044  11.570  0.0823  0.1737 -0.1215
 2325TIP3    H128390   0.753   1.134  11.579  0.7841  0.3194  1.0963
 2325TIP3    H228391   0.879   1.053  11.563  0.0978 -0.4416 -0.8358
 2326TIP3   OH228392   1.570   1.163  12.731 -0.3525 -0.3208 -0.2760
 2326TIP3    H128393   1.481   1.150  12.697 -0.6674  0.5895  0.1865
 2326TIP3    H228394   1.623   1.180  12.653 -1.0292  1.5422 -0.3684
 2327TIP3   OH228395   5.220   0.316   1.691  0.4942 -0.3461 -0.1501
 2327TIP3    H128396   5.261   0.383   1.745  0.0584  0.4221 -0.7374
 2327TIP3    H228397   5.271   0.237   1.706  0.9491  0.0948  0.6471
 2328TIP3   OH228398   2.566   6.722  14.519  0.2555 -0.4834  0.0708
 2328TIP3    H128399   2.483   6.726  14.567  0.5214 -1.9740  0.7155
 2328TIP3    H228400   2.546   6.761  14.434 -1.6380 -2.3852 -0.4588
 2329TIP3   OH228401   6.411   0.427  10.873  0.3452  0.9494  0.2000
 2329TIP3    H128402   6.426   0.486  10.800  2.3044  0.2486 -0.0433
 2329TIP3    H228403   6.473   0.356  10.859  1.0357  0.9557  2.6886
 2330TIP3   OH228404   3.903   0.615  15.935  0.1300 -0.1625  0.8114
 2330TIP3    H128405   3.972   0.627  15.871  1.5800 -0.0968  2.3056
 2330TIP3    H228406   3.914   0.689  15.996 -0.7469 -0.5877  1.5175
 2331TIP3   OH228407   0.628   0.886   4.774 -0.6508 -0.0929  0.5486
 2331TIP3    H128408   0.661   0.967   4.814  0.8318  0.3508 -1.3987
 2331TIP3    H228409   0.690   0.818   4.801  0.1339  0.1355 -0.6045
 2332TIP3   OH228410   4.228   4.773   6.453  0.2005 -0.3889 -0.0811
 2332TIP3    H128411   4.236   4.680   6.432  1.5647  0.0882 -1.9794
 2332TIP3    H228412   4.290   4.816   6.394  0.0511  1.6834  1.1786
 2333TIP3   OH228413   1.239   5.085  11.810  0.2225 -0.1283 -0.4260
 2333TIP3    H128414   1.260   5.179  11.810  1.1652 -0.3226 -0.6374
 2333TIP3    H228415   1.323   5.043  11.794  0.3680 -1.1326  2.3659
 2334TIP3   OH228416   1.781   0.038  12.238 -0.1287  0.0555  0.8192
 2334TIP3    H128417   1.756  -0.043  12.282  0.9340 -0.2535  0.8829
 2334TIP3    H228418   1.874   0.026  12.217  0.8803  2.3656  3.3727
 2335TIP3   OH228419   4.798   5.139   5.889 -0.5569  0.5722  0.3666
 2335TIP3    H128420   4.803   5.119   5.795 -1.0806 -1.4406  0.7305
 2335TIP3    H228421   4.885   5.172   5.910 -0.2014  0.3595 -0.6762
 2336TIP3   OH228422   4.446   1.140  13.747 -0.7027  0.4858  0.0818
 2336TIP3    H128423   4.467   1.163  13.656 -2.3463  0.3758 -0.3449
 2336TIP3    H228424   4.402   1.055  13.741  0.1938 -0.0910  1.1184
 2337TIP3   OH228425   0.197   4.734   6.092 -0.2687  0.3414  0.0400
 2337TIP3    H128426   0.183   4.724   5.998 -1.4683  1.8585  0.0129
 2337TIP3    H228427   0.189   4.645   6.127 -2.6156  0.0833 -0.9714
 2338TIP3   OH228428   1.738   1.075  16.180  0.1183  0.5566  0.0358
 2338TIP3    H128429   1.773   0.986  16.182 -1.2518 -0.0837 -1.6856
 2338TIP3    H228430   1.698   1.088  16.266  0.1302 -0.5812  0.2237
 2339TIP3   OH228431   6.699   5.953  14.724  0.5074  0.3017  0.1035
 2339TIP3    H128432   6.786   5.946  14.684  1.0161 -1.8442  1.4046
 2339TIP3    H228433   6.680   6.046  14.725  2.4642  0.7646 -0.9001
 2340TIP3   OH228434   3.463   3.084   1.869  0.0799 -0.3274 -0.5404
 2340TIP3    H128435   3.391   3.031   1.903 -0.7053  0.2338 -1.2662
 2340TIP3    H228436   3.532   3.076   1.934 -0.2986 -1.6152 -0.2591
 2341TIP3   OH228437   1.646   0.616   4.560  0.2207  0.9157 -0.6105
 2341TIP3    H128438   1.583   0.558   4.517  1.3724  0.2990 -1.4974
 2341TIP3    H228439   1.730   0.570   4.554  1.2610  2.8188 -1.7115
 2342TIP3   OH228440   1.707   6.409  15.548  0.2379  1.2921 -0.2105
 2342TIP3    H128441   1.667   6.423  15.462  0.1885 -1.2920 -0.6679
 2342TIP3    H228442   1.634   6.388  15.606  0.4248  1.6902  0.1817
 2343TIP3   OH228443   1.396   6.365   5.647  0.1985  0.0552  0.1133
 2343TIP3    H128444   1.424   6.448   5.609 -0.0295  0.4635  0.8250
 2343TIP3    H228445   1.300   6.371   5.651  0.0749 -0.8394 -1.1834
 2344TIP3   OH228446   1.388   3.124  13.120  0.0378  0.7625  0.2148
 2344TIP3    H128447   1.474   3.165  13.113  0.2257  0.2741 -0.5064
 2344TIP3    H228448   1.381   3.070  13.041 -1.2727  1.4410 -0.1645
 2345TIP3   OH228449   2.639   3.231   0.773  0.0779  0.4196 -0.2617
 2345TIP3    H128450   2.646   3.217   0.867 -1.5860  2.3721  0.2320
 2345TIP3    H228451   2.566   3.175   0.745  0.2836  0.1747 -0.3107
 2346TIP3   OH228452   3.887   3.720   3.069  0.1989  0.2780  0.1375
 2346TIP3    H128453   3.836   3.647   3.035 -0.5949  0.7871  0.2128
 2346TIP3    H228454   3.978   3.696   3.052  0.0545 -1.4002  1.4830
 2347TIP3   OH228455   1.823   5.701  13.416 -0.6840 -0.3869 -0.4879
 2347TIP3    H128456   1.799   5.613  13.444 -1.2979 -0.4068 -1.0550
 2347TIP3    H228457   1.918   5.698  13.403 -0.3678 -0.4104  1.4481
 2348TIP3   OH228458   6.750   1.076   0.799  0.4833  0.0615  0.0422
 2348TIP3    H128459   6.808   1.096   0.872  2.2581  0.9861 -1.5119
 2348TIP3    H228460   6.732   1.161   0.758 -0.6692 -0.3981 -0.4519
 2349TIP3   OH228461   4.658   4.902   4.649 -0.0529 -0.4187  0.0920
 2349TIP3    H128462   4.702   4.986   4.665  1.7204 -1.6948  2.6956
 2349TIP3    H228463   4.691   4.874   4.563  0.6839  0.7573 -0.0336
 2350TIP3   OH228464   2.424   1.106   2.557 -0.0175 -0.2260 -0.0588
 2350TIP3    H128465   2.372   1.127   2.634 -1.1404  1.1661 -1.1463
 2350TIP3    H228466   2.446   1.191   2.519  0.4018 -0.8859 -1.3537
 2351TIP3   OH228467   4.748   6.082  14.065 -0.3534 -0.1543  0.0649
 2351TIP3    H128468   4.656   6.059  14.052 -0.5095  0.1250  0.6385
 2351TIP3    H228469   4.751   6.177  14.051 -0.4070  0.0497  1.3688
 2352TIP3   OH228470   4.435   3.015   3.389  0.1286  0.0486  0.6005
 2352TIP3    H128471   4.457   2.930   3.428  0.0803  0.1413  0.8295
 2352TIP3    H228472   4.418   3.072   3.464 -0.9606 -0.0351  0.4208
 2353TIP3   OH228473   2.619   3.638  13.877 -0.1081  0.0081  0.0390
 2353TIP3    H128474   2.560   3.714  13.874 -0.3043 -0.0897 -3.8745
 2353TIP3    H228475   2.562   3.566  13.905 -1.7881  0.1158 -2.6899
 2354TIP3   OH228476   0.688   3.391   3.219 -0.1449  0.2971 -0.0977
 2354TIP3    H128477   0.764   3.404   3.276  0.3729  2.0261 -1.1034
 2354TIP3    H228478   0.679   3.296   3.213  0.4105  0.0560  2.0063
 2355TIP3   OH228479   4.381   2.311   4.613  0.4426 -0.2364  0.2625
 2355TIP3    H128480   4.343   2.396   4.588 -2.1435 -1.1081  0.9075
 2355TIP3    H228481   4.446   2.293   4.545 -0.6117  1.1971 -1.2209
 2356TIP3   OH228482   2.252   5.708   4.631  0.5138  0.4836  0.0716
 2356TIP3    H128483   2.311   5.658   4.574 -0.6287  0.2769 -0.9777
 2356TIP3    H228484   2.255   5.797   4.595 -0.3220  0.3203 -0.4355
 2357TIP3   OH228485   1.738   2.716   5.795 -0.3826 -0.4468  0.1581
 2357TIP3    H128486   1.703   2.704   5.884 -0.2584 -0.2742  0.2320
 2357TIP3    H228487   1.685   2.658   5.740  0.2487 -1.3555  0.5030
 2358TIP3   OH228488   5.608   1.637   0.916 -0.2842 -0.0785  0.4116
 2358TIP3    H128489   5.591   1.555   0.869  1.3096 -1.2766  1.7888
 2358TIP3    H228490   5.652   1.693   0.852  0.5586 -1.1401  0.0263
 2359TIP3   OH228491   4.011   1.721   2.938  0.1814 -0.0145 -0.6571
 2359TIP3    H128492   3.979   1.645   2.986  1.3443  0.8193  1.5655
 2359TIP3    H228493   3.953   1.792   2.963  2.1945  0.9770  1.5816
 2360TIP3   OH228494   6.582   2.287  16.426  0.2221  0.4012  0.9458
 2360TIP3    H128495   6.554   2.197  16.439  2.1908 -0.3518  0.2229
 2360TIP3    H228496   6.542   2.312  16.343 -1.9702  0.9452  2.0748
 2361TIP3   OH228497   2.909   2.516  13.221 -0.1368 -0.1942  0.2833
 2361TIP3    H128498   2.941   2.542  13.135 -0.3812 -0.6869  0.0385
 2361TIP3    H228499   2.907   2.420  13.218 -0.5270 -0.2033  0.6974
 2362TIP3   OH228500   0.925   2.681   1.618 -0.0559 -0.0250 -0.7818
 2362TIP3    H128501   0.991   2.612   1.615 -1.0075 -0.9368 -2.1352
 2362TIP3    H228502   0.872   2.660   1.695  1.8610  1.3856  1.0068
 2363TIP3   OH228503   5.261   3.848  15.156  0.8999  0.4491 -0.1472
 2363TIP3    H128504   5.298   3.937  15.155 -0.8872  1.3004  1.6210
 2363TIP3    H228505   5.170   3.861  15.184  0.1018 -1.8098 -1.4638
 2364TIP3   OH228506   4.904   3.388  11.183 -0.6145 -0.1692  0.3301
 2364TIP3    H128507   4.998   3.398  11.170 -0.5298 -0.6038  0.6105
 2364TIP3    H228508   4.872   3.477  11.198 -0.1535 -0.0893  0.8508
 2365TIP3   OH228509   2.694   6.422   5.893  0.2406 -0.1877 -0.6092
 2365TIP3    H128510   2.720   6.512   5.873 -0.4867  0.2031  0.0861
 2365TIP3    H228511   2.603   6.430   5.923  0.5376 -0.9964  0.5816
 2366TIP3   OH228512   5.399   4.718  16.962 -0.1690  0.2220 -0.1565
 2366TIP3    H128513   5.425   4.807  16.984 -0.6970  0.6500 -1.2107
 2366TIP3    H228514   5.305   4.715  16.980  0.1302 -0.6440  1.4713
 2367TIP3   OH228515   3.678   3.405  12.596  0.0808  0.5239 -0.4206
 2367TIP3    H128516   3.594   3.363  12.577  0.0176  0.8013 -0.7618
 2367TIP3    H228517   3.677   3.418  12.691 -1.2401  2.5889 -0.6610
 2368TIP3   OH228518   1.401   3.158  16.664 -0.2018  0.3935  0.7772
 2368TIP3    H128519   1.421   3.248  16.636  0.1892  0.2544  0.6036
 2368TIP3    H228520   1.322   3.167  16.717 -0.6367  0.7331  0.0852
 2369TIP3   OH228521   1.738   4.993   4.999 -0.6607 -0.4422 -0.3996
 2369TIP3    H128522   1.828   5.008   5.027 -1.3278  0.9824  1.0906
 2369TIP3    H228523   1.741   5.004   4.904  0.8154 -0.9922 -0.4571
 2370TIP3   OH228524   2.764   2.758   0.419  0.2842 -0.6424  0.0990
 2370TIP3    H128525   2.699   2.806   0.369  2.3057  2.0282 -0.1784
 2370TIP3    H228526   2.723   2.742   0.504 -0.1799  2.7417  0.6591
 2371TIP3   OH228527   6.147   1.020  12.225  0.4010 -0.4111 -0.4658
 2371TIP3    H128528   6.217   1.074  12.188  2.1111 -1.0664  1.5857
 2371TIP3    H228529   6.178   0.930  12.213  1.1157 -0.6672  2.4118
 2372TIP3   OH228530   3.711   0.248   4.577 -0.1667  0.0120  0.2994
 2372TIP3    H128531   3.661   0.288   4.505 -1.3242 -0.1141  1.0144
 2372TIP3    H228532   3.672   0.285   4.656 -1.3006 -2.4997  1.0053
 2373TIP3   OH228533   1.159   1.769   4.863 -0.0975 -0.0322  0.2745
 2373TIP3    H128534   1.209   1.851   4.867 -0.6995  0.3566 -0.1087
 2373TIP3    H228535   1.157   1.747   4.770  1.7951 -1.5768  0.5184
 2374TIP3   OH228536   1.598   3.208   5.663  0.0315 -0.2708  0.0856
 2374TIP3    H128537   1.567   3.136   5.719 -0.6860 -1.6453 -1.9449
 2374TIP3    H228538   1.657   3.165   5.601  0.8044  1.2052 -0.2336
 2375TIP3   OH228539   5.729   6.000  15.764  0.2508 -0.0921  0.4221
 2375TIP3    H128540   5.738   5.992  15.669 -1.6416 -2.0143  0.3408
 2375TIP3    H228541   5.661   6.066  15.776  0.9153  0.5944  0.4841
 2376TIP3   OH228542   2.800   0.777   3.858 -0.4639 -0.0736  0.2448
 2376TIP3    H128543   2.785   0.842   3.927  0.9004  0.4217  0.0970
 2376TIP3    H228544   2.740   0.705   3.879  0.2679 -0.1613  2.2476
 2377TIP3   OH228545   1.187   5.512   5.629  0.2973  0.1326  0.4159
 2377TIP3    H128546   1.275   5.512   5.667 -0.0075 -1.4194  1.1925
 2377TIP3    H228547   1.159   5.420   5.633 -1.5759  0.6804  0.6764
 2378TIP3   OH228548   1.253   3.725  17.195  0.0105  0.2158 -0.0616
 2378TIP3    H128549   1.344   3.698  17.192 -0.4440 -1.4016 -0.7291
 2378TIP3    H228550   1.230   3.726  17.288  0.6863  0.5649  0.1029
 2379TIP3   OH228551   1.613   2.032  16.364 -0.1157 -0.8309 -0.3331
 2379TIP3    H128552   1.663   2.082  16.300  0.4114 -1.5449 -0.4858
 2379TIP3    H228553   1.673   1.965  16.396 -0.3648 -0.4924  0.9199
 2380TIP3   OH228554   2.450   6.769  15.113 -0.9911  0.0832  0.6696
 2380TIP3    H128555   2.391   6.772  15.038  0.6584 -1.7197 -0.8409
 2380TIP3    H228556   2.519   6.832  15.092 -0.3799 -0.6238  0.4981
 2381TIP3   OH228557   4.285   4.306   3.920 -0.0796  0.7184  0.5939
 2381TIP3    H128558   4.294   4.214   3.897 -1.5474  0.6626  0.1463
 2381TIP3    H228559   4.320   4.353   3.844  2.9368  0.6106  1.7693
 2382TIP3   OH228560   4.309   3.137  10.854  0.0289 -0.1593 -0.0172
 2382TIP3    H128561   4.336   3.058  10.807 -0.8839 -1.3677  1.4378
 2382TIP3    H228562   4.256   3.185  10.790  0.4703 -0.7697 -0.8661
 2383TIP3   OH228563   4.499   1.036   2.462 -0.3948 -0.5642 -0.1115
 2383TIP3    H128564   4.575   1.082   2.427 -0.5629  0.3039  0.6075
 2383TIP3    H228565   4.474   0.974   2.394 -0.6919  1.0277 -1.5213
 2384TIP3   OH228566   5.611   4.231  15.758  0.2060  0.1443  0.5135
 2384TIP3    H128567   5.620   4.312  15.808 -0.2507  1.3669 -1.2730
 2384TIP3    H228568   5.528   4.241  15.710 -0.1627 -1.6587  0.6954
 2385TIP3   OH228569   3.440   2.693   3.392 -0.6344 -0.2480 -0.3877
 2385TIP3    H128570   3.459   2.599   3.397 -0.9242 -0.3118 -0.4372
 2385TIP3    H228571   3.350   2.697   3.359 -0.2171  0.0693 -1.5229
 2386TIP3   OH228572   5.015   5.972   2.384  0.1206 -0.1637 -0.2953
 2386TIP3    H128573   5.102   5.995   2.351  0.3061 -0.4596 -0.0293
 2386TIP3    H228574   5.018   5.877   2.394  0.3532 -0.0265  1.2988
 2387TIP3   OH228575   1.866   3.850   5.715  0.1462 -0.0232 -0.0530
 2387TIP3    H128576   1.939   3.812   5.764 -0.1286  0.2107  0.5451
 2387TIP3    H228577   1.788   3.822   5.764 -0.5268 -3.4704 -2.6939
 2388TIP3   OH228578   0.448   0.265   3.886 -0.0294 -0.3337 -0.0357
 2388TIP3    H128579   0.457   0.335   3.821  1.7411  0.2064  0.7301
 2388TIP3    H228580   0.362   0.227   3.868 -2.5327  3.9148  1.2953
 2389TIP3   OH228581   5.845   4.835   6.564  0.2070 -0.3960  0.5081
 2389TIP3    H128582   5.826   4.916   6.611 -2.2419 -0.2489 -0.6019
 2389TIP3    H228583   5.940   4.835   6.555  0.3047  2.2435  0.7400
 2390TIP3   OH228584   1.671   4.927   1.643 -0.1247  0.1727  0.1822
 2390TIP3    H128585   1.579   4.902   1.633 -0.1387  0.4198 -0.3790
 2390TIP3    H228586   1.719   4.845   1.640 -0.3602 -0.0070  1.0080
 2391TIP3   OH228587   6.353   4.989   3.460 -0.1089  0.5367  1.1400
 2391TIP3    H128588   6.413   5.054   3.497 -0.1172  1.3806 -0.2484
 2391TIP3    H228589   6.394   4.905   3.478  0.2732  0.9481  2.3225
 2392TIP3   OH228590   6.402   0.956  13.896  0.5219 -0.3431  0.0256
 2392TIP3    H128591   6.434   0.870  13.869  1.5972  0.3535 -1.0806
 2392TIP3    H228592   6.315   0.940  13.932  0.4265 -1.8026 -0.7734
 2393TIP3   OH228593   1.484   2.392  12.478 -0.6987  0.1357 -0.5030
 2393TIP3    H128594   1.419   2.402  12.548  0.7708 -0.7256  1.0618
 2393TIP3    H228595   1.520   2.480  12.465 -0.5958  0.2130  0.2448
 2394TIP3   OH228596   4.976   4.578   1.572 -0.4526 -0.3833  0.4637
 2394TIP3    H128597   5.025   4.618   1.501 -0.6256 -0.0002  0.5605
 2394TIP3    H228598   4.926   4.508   1.530 -0.1173 -0.5273  0.3032
 2395TIP3   OH228599   3.718   5.866  15.890  0.5011 -0.1030 -0.1037
 2395TIP3    H128600   3.674   5.899  15.968  1.5581 -0.9354  0.8698
 2395TIP3    H228601   3.767   5.942  15.857 -0.4481  0.4216 -0.3394
 2396TIP3   OH228602   0.944   1.954   3.003  0.4769  0.0037  0.0785
 2396TIP3    H128603   0.907   1.868   3.020  0.1294  0.0447 -0.4349
 2396TIP3    H228604   0.882   2.015   3.043  0.1391  0.0583 -0.5126
 2397TIP3   OH228605   0.605   3.456  11.281  0.4266 -0.0484  0.3007
 2397TIP3    H128606   0.655   3.459  11.200  0.4585 -1.7882  0.2184
 2397TIP3    H228607   0.666   3.422  11.346  0.3764  1.2456  1.0663
 2398TIP3   OH228608   1.695   4.764  16.424  0.4022  0.1366  0.0348
 2398TIP3    H128609   1.645   4.833  16.381  0.0822  0.3261  0.7054
 2398TIP3    H228610   1.664   4.763  16.514 -1.9854 -3.0690 -0.6446
 2399TIP3   OH228611   0.066   0.446  13.259 -0.6291 -0.1687  0.6823
 2399TIP3    H128612   0.093   0.362  13.222  0.3583  0.6763 -0.5837
 2399TIP3    H228613   0.004   0.422  13.328 -0.1208 -1.9499  0.5860
 2400TIP3   OH228614   0.898   1.870  15.970  0.3969 -0.0106 -0.1091
 2400TIP3    H128615   0.887   1.824  16.053  0.2301  0.1324 -0.0516
 2400TIP3    H228616   0.909   1.800  15.905  0.6216 -0.1206  0.0447
 2401TIP3   OH228617   6.733   6.608   0.771  0.1841 -0.5059  0.0155
 2401TIP3    H128618   6.663   6.563   0.818  0.3181 -1.6436 -0.8345
 2401TIP3    H228619   6.691   6.685   0.733 -1.0894 -2.0302 -1.8923
 2402TIP3   OH228620   2.383   2.767  11.787  0.0795  0.1250 -0.4069
 2402TIP3    H128621   2.422   2.761  11.700 -0.6277 -1.5299 -0.6519
 2402TIP3    H228622   2.360   2.677  11.810 -1.6430  0.7583  0.6125
 2403TIP3   OH228623   0.936   6.007   2.722 -0.5769  0.6298 -0.4604
 2403TIP3    H128624   0.941   5.930   2.779 -0.4519  2.7526  2.6595
 2403TIP3    H228625   0.995   5.987   2.650  0.3555 -1.7251  0.8314
 2404TIP3   OH228626   6.175   0.209  12.777  0.1246  0.1008 -0.7974
 2404TIP3    H128627   6.189   0.171  12.690  1.3052 -1.9492  0.2176
 2404TIP3    H228628   6.260   0.200  12.821 -0.7206  0.1274  0.9114
 2405TIP3   OH228629   1.318   6.403   5.061 -0.0683 -0.2409  0.2695
 2405TIP3    H128630   1.381   6.442   5.122  0.7301  2.1503 -1.8520
 2405TIP3    H228631   1.372   6.346   5.005  0.1791  1.2155 -1.0627
 2406TIP3   OH228632   2.934   1.330  11.030 -0.5671  0.2069  0.5458
 2406TIP3    H128633   2.966   1.240  11.025  0.7430  0.7205 -2.5348
 2406TIP3    H228634   3.013   1.384  11.029 -1.3672  1.4440  1.2805
 2407TIP3   OH228635   3.735   4.168   1.069  0.0307  0.9077 -0.4725
 2407TIP3    H128636   3.731   4.217   1.151 -0.2465 -0.5163  0.3957
 2407TIP3    H228637   3.828   4.164   1.048  0.4153 -1.0391  1.2729
 2408TIP3   OH228638   2.851   4.574   3.459  0.3433 -0.6268 -0.1675
 2408TIP3    H128639   2.873   4.519   3.384 -0.7593 -0.2846 -0.7572
 2408TIP3    H228640   2.760   4.553   3.479  0.0764  0.5593 -0.0506
 2409TIP3   OH228641   3.116   5.198   4.805 -0.3477 -0.3015 -0.4502
 2409TIP3    H128642   3.070   5.116   4.787  1.1706 -1.0800 -0.9771
 2409TIP3    H228643   3.124   5.200   4.901  0.6918 -1.4119 -0.5010
 2410TIP3   OH228644   4.966   1.825  16.782  0.3771 -0.2666 -0.3975
 2410TIP3    H128645   4.979   1.762  16.853  2.9062 -0.5359 -1.0348
 2410TIP3    H228646   4.984   1.910  16.822  0.9691 -0.3378 -0.5122
 2411TIP3   OH228647   0.613   2.203  12.462 -0.3277 -0.2208  0.3038
 2411TIP3    H128648   0.537   2.210  12.519  0.3974  0.5581  1.2120
 2411TIP3    H228649   0.688   2.226  12.518  0.3237  1.4753 -1.1647
 2412TIP3   OH228650   5.226   2.008  13.522 -0.3872  0.5967  0.1716
 2412TIP3    H128651   5.260   1.920  13.529 -0.0954  0.7679  1.0145
 2412TIP3    H228652   5.287   2.062  13.571 -0.6008  1.2625 -0.2706
 2413TIP3   OH228653   1.627   2.126  11.476  1.0763  0.0536  0.8439
 2413TIP3    H128654   1.655   2.190  11.541 -2.5667  0.6765  2.0155
 2413TIP3    H228655   1.647   2.041  11.516  0.6892  0.4477  1.9088
 2414TIP3   OH228656   1.548   0.582  12.310 -0.2654 -0.3553 -0.0236
 2414TIP3    H128657   1.507   0.661  12.276 -0.2359  0.6313  2.1203
 2414TIP3    H228658   1.541   0.519  12.238 -1.1225  1.2834 -1.4476
 2415TIP3   OH228659   4.584   2.001  13.668 -0.6980  0.3188  0.0035
 2415TIP3    H128660   4.560   2.038  13.753 -1.9650  1.7467 -0.9159
 2415TIP3    H228661   4.509   1.946  13.645 -0.8357  0.7669 -0.6350
 2416TIP3   OH228662   6.438   4.118   2.193  0.0467 -0.4970 -0.2223
 2416TIP3    H128663   6.510   4.076   2.145 -0.8510 -0.8699 -1.2646
 2416TIP3    H228664   6.392   4.045   2.236 -0.5324 -0.4056 -0.6854
 2417TIP3   OH228665   0.749   3.821  11.401  0.5496  0.0094 -0.5595
 2417TIP3    H128666   0.750   3.771  11.319  0.0178  1.6811 -1.6395
 2417TIP3    H228667   0.667   3.795  11.443 -0.4330  0.9672 -1.7946
 2418TIP3   OH228668   2.643   6.353   0.945 -0.5600 -0.5930 -0.8089
 2418TIP3    H128669   2.647   6.260   0.924 -1.7486 -0.3906 -2.1465
 2418TIP3    H228670   2.578   6.388   0.884 -0.0956  1.1278 -0.3714
 2419TIP3   OH228671   0.042   4.155   1.402  0.3750  0.3328  0.5532
 2419TIP3    H128672   0.023   4.090   1.470  1.0982  0.1257  0.5683
 2419TIP3    H228673   0.114   4.116   1.353 -0.0108  0.5734 -0.2087
 2420TIP3   OH228674   1.439   3.292  15.038  0.1564 -0.7257  0.5557
 2420TIP3    H128675   1.521   3.262  15.077  1.0732  1.2692  0.2905
 2420TIP3    H228676   1.458   3.382  15.009 -1.0525 -1.4112 -2.7279
 2421TIP3   OH228677   1.172   0.401  16.541 -0.2491  0.1322 -0.1822
 2421TIP3    H128678   1.231   0.455  16.488 -0.2763  0.3423  0.0040
 2421TIP3    H228679   1.214   0.395  16.626  0.4286 -1.2491 -0.5783
 2422TIP3   OH228680   6.130   4.940  14.152 -0.3578  0.6021 -0.1439
 2422TIP3    H128681   6.140   5.009  14.217 -1.0914  0.3774  0.2164
 2422TIP3    H228682   6.196   4.875  14.175 -2.1558 -0.6349  1.8864
 2423TIP3   OH228683   4.617   4.855   3.211 -0.1493  0.3497  0.1554
 2423TIP3    H128684   4.599   4.791   3.280 -0.6063  0.3374  0.0225
 2423TIP3    H228685   4.552   4.837   3.144 -0.1641  0.8379  0.0391
 2424TIP3   OH228686   5.928   1.948   1.973 -0.3990 -0.1463 -0.1739
 2424TIP3    H128687   5.864   1.901   1.919 -1.1040  0.5676  0.0212
 2424TIP3    H228688   5.881   1.966   2.055 -0.5155  1.7739 -0.6169
 2425TIP3   OH228689   6.089   0.487   0.698 -0.0259  0.0048  0.3010
 2425TIP3    H128690   6.118   0.484   0.789  0.8382 -1.2461  0.0164
 2425TIP3    H228691   6.137   0.561   0.660  0.8878 -0.4742  0.4805
 2426TIP3   OH228692   4.680   6.546  14.780  0.4306  0.2616 -0.4636
 2426TIP3    H128693   4.722   6.578  14.701  0.2353  0.6184 -0.4249
 2426TIP3    H228694   4.735   6.473  14.809  0.3797 -0.0075 -1.0447
 2427TIP3   OH228695   1.403   6.644  15.025  0.4024 -0.0137 -0.4371
 2427TIP3    H128696   1.368   6.675  15.109 -0.6241 -0.6503 -0.6090
 2427TIP3    H228697   1.325   6.630  14.971  1.0799  1.6682 -1.9724
 2428TIP3   OH228698   3.046   2.364  14.878 -0.2463  0.0009  0.0272
 2428TIP3    H128699   3.009   2.357  14.966 -0.8796 -2.9991 -0.3812
 2428TIP3    H228700   2.970   2.370  14.821 -0.0496 -2.1223 -0.5352
 2429TIP3   OH228701   2.341   3.505  16.594 -0.4889  0.3257  0.0614
 2429TIP3    H128702   2.370   3.490  16.684 -0.7234  3.1011  0.6998
 2429TIP3    H228703   2.421   3.494  16.541  0.8727  3.3183  1.2595
 2430TIP3   OH228704   1.976   1.419   3.358 -0.1162  0.4720 -0.3561
 2430TIP3    H128705   2.041   1.405   3.428  1.5304  0.7142 -1.7672
 2430TIP3    H228706   1.935   1.334   3.346 -0.3014  0.3868  0.7833
 2431TIP3   OH228707   4.736   1.767  16.579  0.1392 -0.4395  0.0957
 2431TIP3    H128708   4.771   1.680  16.598  4.4069  0.4954 -2.1325
 2431TIP3    H228709   4.691   1.756  16.495 -0.9610 -0.7507  0.6995
 2432TIP3   OH228710   1.999   1.927   3.947 -0.1287 -0.0651 -0.5726
 2432TIP3    H128711   1.987   1.946   4.040 -0.7195 -0.7030 -0.5090
 2432TIP3    H228712   2.074   1.867   3.946 -1.3546 -1.6691 -0.2956
 2433TIP3   OH228713   1.987   4.770  15.135  0.3561  0.0244  0.3919
 2433TIP3    H128714   2.073   4.800  15.165  1.1352 -1.7142  0.0392
 2433TIP3    H228715   1.926   4.796  15.204  1.3981  0.0297  1.3318
 2434TIP3   OH228716   5.359   2.458   6.533  0.7157  0.0457  0.6522
 2434TIP3    H128717   5.285   2.514   6.555  1.6842  1.0080  1.5753
 2434TIP3    H228718   5.427   2.481   6.597  2.0605 -0.3214 -0.5922
 2435TIP3   OH228719   0.293   0.881   1.676 -0.4668  0.1187 -0.1640
 2435TIP3    H128720   0.220   0.943   1.678  0.8807  2.0216 -2.9506
 2435TIP3    H228721   0.369   0.933   1.701  0.6107 -0.5134 -1.9634
 2436TIP3   OH228722   4.764   2.884  14.210 -0.0370 -0.2092 -0.1724
 2436TIP3    H128723   4.787   2.797  14.241 -0.5465 -0.3738 -0.2360
 2436TIP3    H228724   4.761   2.876  14.115 -1.4006 -0.4865 -0.1363
 2437TIP3   OH228725   3.592   6.593   1.214 -0.4405  0.3184 -0.5989
 2437TIP3    H128726   3.518   6.538   1.191  0.2498 -0.2257 -1.6199
 2437TIP3    H228727   3.564   6.682   1.192 -1.4041  0.3440  0.6557
 2438TIP3   OH228728   2.803   3.389   4.040  0.6164  0.1336  0.0560
 2438TIP3    H128729   2.801   3.335   3.961  1.3498  0.3651 -0.1252
 2438TIP3    H228730   2.743   3.345   4.100 -0.0255  0.0097 -0.6587
 2439TIP3   OH228731   0.214   4.855  13.617 -0.4258 -0.0141  0.2180
 2439TIP3    H128732   0.141   4.915  13.604  0.3643  0.9278 -0.0810
 2439TIP3    H228733   0.284   4.911  13.654 -0.2123 -1.1079  1.5583
 2440TIP3   OH228734   0.536   0.573   0.293  0.3978 -0.1997 -0.3868
 2440TIP3    H128735   0.497   0.647   0.246  1.1071  2.1675  2.4434
 2440TIP3    H228736   0.629   0.579   0.274  0.4516 -0.4213 -0.1986
 2441TIP3   OH228737   2.460   4.128   5.715  0.5552 -0.0932  0.6142
 2441TIP3    H128738   2.469   4.044   5.670  1.9601  0.1411  0.4146
 2441TIP3    H228739   2.545   4.141   5.758 -0.2627  0.3505  2.1905
 2442TIP3   OH228740   1.504   3.397  12.187  0.2516  0.2525 -0.0334
 2442TIP3    H128741   1.504   3.302  12.185 -2.5239  0.1908 -0.7703
 2442TIP3    H228742   1.419   3.421  12.224  0.6538  2.4359 -0.3675
 2443TIP3   OH228743   0.236   6.255  12.463 -0.2402 -0.3600  0.4686
 2443TIP3    H128744   0.282   6.176  12.436 -0.5089 -0.3907  0.0978
 2443TIP3    H228745   0.199   6.290  12.382 -0.8232 -0.3031  0.7598
 2444TIP3   OH228746   3.951   2.803   2.542  0.0073  0.2212 -0.2239
 2444TIP3    H128747   3.948   2.828   2.634  0.0856  1.4622 -0.5395
 2444TIP3    H228748   3.970   2.709   2.543  0.3840  0.2942  1.0138
 2445TIP3   OH228749   1.268   4.561  16.051 -0.1252 -0.0304  0.3717
 2445TIP3    H128750   1.278   4.637  16.108 -0.4710  0.0118  0.3797
 2445TIP3    H228751   1.262   4.598  15.963  1.1224 -0.1371  0.2253
 2446TIP3   OH228752   4.805   4.764  15.354 -0.2179 -0.1402 -0.3831
 2446TIP3    H128753   4.753   4.758  15.274  0.3268  0.6445 -0.8178
 2446TIP3    H228754   4.801   4.857  15.378  0.2514 -0.2325  0.0703
 2447TIP3   OH228755   1.569   0.996  12.420 -0.2230  0.0262 -0.6806
 2447TIP3    H128756   1.639   0.932  12.436 -0.5568 -0.2110 -0.1679
 2447TIP3    H228757   1.507   0.950  12.364 -0.6801 -0.2475  0.0495
 2448TIP3   OH228758   1.391   4.604   3.632  0.0541 -0.1666 -0.3473
 2448TIP3    H128759   1.309   4.569   3.597 -0.7592 -0.7797  1.9832
 2448TIP3    H228760   1.438   4.638   3.555 -1.4346 -1.6952 -2.0100
 2449TIP3   OH228761   5.708   5.033  12.286  0.4339  0.2556  0.2673
 2449TIP3    H128762   5.677   5.096  12.220  2.2799  0.4849 -0.4341
 2449TIP3    H228763   5.785   5.075  12.325  1.3285 -1.2961  0.2395
 2450TIP3   OH228764   5.016   1.936  12.033  0.3829  0.3004  0.0425
 2450TIP3    H128765   5.050   1.967  12.116 -1.4160 -0.7660  1.2470
 2450TIP3    H228766   5.038   2.005  11.970  3.0482  0.4613  1.0516
 2451TIP3   OH228767   0.261   2.987  14.259 -0.5866  0.1590  0.1622
 2451TIP3    H128768   0.257   3.080  14.238  0.0529  0.5095  1.4515
 2451TIP3    H228769   0.354   2.964  14.250 -0.8882 -0.6553 -1.2353
 2452TIP3   OH228770   5.082   5.706  17.101 -0.4357 -0.7694  0.5659
 2452TIP3    H128771   5.083   5.729  17.194  1.3431 -1.1757  0.6967
 2452TIP3    H228772   5.072   5.790  17.056  0.9169 -0.2704  1.1216
 2453TIP3   OH228773   4.182   3.600  17.057  0.0292 -0.2803 -0.0588
 2453TIP3    H128774   4.179   3.658  17.133 -1.2216 -0.7668  0.2939
 2453TIP3    H228775   4.220   3.653  16.987 -0.7671  0.8629  0.3412
 2454TIP3   OH228776   3.794   3.809   1.620  0.1220 -0.3830  0.2020
 2454TIP3    H128777   3.841   3.776   1.696  0.4153 -1.1220 -0.2905
 2454TIP3    H228778   3.711   3.760   1.620 -0.3567  0.4018  0.6596
 2455TIP3   OH228779   3.948   3.925  13.199 -0.8113 -0.1669  0.1283
 2455TIP3    H128780   4.028   3.901  13.153 -1.0488  1.8521 -1.4681
 2455TIP3    H228781   3.974   3.998  13.256 -1.2122 -0.5215  0.7830
 2456TIP3   OH228782   5.076   1.885   2.805  0.2859 -0.5568  0.1441
 2456TIP3    H128783   4.982   1.868   2.799 -0.1147  0.7585  1.8243
 2456TIP3    H228784   5.087   1.931   2.889  2.6417 -2.0579  0.7766
 2457TIP3   OH228785   5.543   2.185   1.467  0.3129  0.1170 -0.1752
 2457TIP3    H128786   5.542   2.190   1.371 -0.5460  1.9242 -0.1182
 2457TIP3    H228787   5.582   2.268   1.494  0.5587 -0.3846  1.0457
 2458TIP3   OH228788   4.397   5.547   4.857 -0.1189  0.1145  0.1056
 2458TIP3    H128789   4.340   5.518   4.927  1.2483  1.0406  1.6787
 2458TIP3    H228790   4.396   5.476   4.793  0.4265 -1.8651  2.1812
 2459TIP3   OH228791   6.017   5.337   2.052  0.7586 -0.1287 -0.5023
 2459TIP3    H128792   6.095   5.343   2.107 -1.1929 -0.9638  2.5987
 2459TIP3    H228793   5.947   5.312   2.112 -1.8608  0.1629 -3.1969
 2460TIP3   OH228794   3.379   5.125  15.893 -0.5012  0.3362 -0.4000
 2460TIP3    H128795   3.464   5.082  15.885  1.0262  2.3880  2.6046
 2460TIP3    H228796   3.346   5.097  15.978 -0.9254  2.4995  0.2220
 2461TIP3   OH228797   3.923   0.830  12.546 -0.0272 -0.3337  0.8640
 2461TIP3    H128798   3.885   0.743  12.547 -0.6298 -0.0880  0.4391
 2461TIP3    H228799   4.017   0.816  12.554  0.1007 -1.1724 -1.3707
 2462TIP3   OH228800   6.214   3.643   5.913  0.0956 -0.0365  0.3798
 2462TIP3    H128801   6.210   3.582   5.987  0.5923 -1.1651 -0.4891
 2462TIP3    H228802   6.184   3.592   5.838 -0.1015  0.9963 -0.2631
 2463TIP3   OH228803   2.953   3.149  14.636 -0.0134 -0.5064 -0.2235
 2463TIP3    H128804   2.883   3.084  14.638 -0.6686  0.2051  0.3433
 2463TIP3    H228805   2.987   3.151  14.725 -1.1929  1.1784  0.2412
 2464TIP3   OH228806   1.662   1.072   0.058 -0.7089  0.1536  0.0791
 2464TIP3    H128807   1.695   1.150   0.013 -2.5544  1.1383  0.3566
 2464TIP3    H228808   1.682   1.087   0.150 -0.3814 -0.0910  0.0529
 2465TIP3   OH228809   0.904   1.292   0.519  0.6677  0.5837 -0.2462
 2465TIP3    H128810   0.843   1.348   0.568 -0.6296 -0.5780 -0.4790
 2465TIP3    H228811   0.974   1.274   0.582  0.5597  1.5587  0.1851
 2466TIP3   OH228812   0.160   1.945   2.405 -0.0855  0.8231 -0.2083
 2466TIP3    H128813   0.111   1.887   2.462  0.4595  1.0318  0.4887
 2466TIP3    H228814   0.233   1.976   2.459  1.2708 -0.0753 -1.4351
 2467TIP3   OH228815   5.179   1.437   5.461 -0.5384  0.0964  0.3519
 2467TIP3    H128816   5.104   1.414   5.516  0.6022  0.4849  2.1696
 2467TIP3    H228817   5.153   1.517   5.416 -1.1483  0.3541  1.1454
 2468TIP3   OH228818   4.697   2.318  17.224  0.3024 -0.1872  0.3023
 2468TIP3    H128819   4.687   2.330  17.129  0.1282  0.9708  0.4491
 2468TIP3    H228820   4.617   2.355  17.261  0.7706  0.2029  0.9439
 2469TIP3   OH228821   2.054   1.989   5.619 -0.0916 -0.3068 -0.2120
 2469TIP3    H128822   2.001   2.010   5.542  1.0908 -0.0235 -0.9772
 2469TIP3    H228823   2.103   2.070   5.636 -0.0469 -0.5010  0.6005
 2470TIP3   OH228824   2.479   1.687  11.551 -0.1601  0.2938  0.3308
 2470TIP3    H128825   2.418   1.720  11.485  0.6873  0.4443 -0.3988
 2470TIP3    H228826   2.489   1.594  11.530  0.5034  0.4497 -0.0938
 2471TIP3   OH228827   1.467   5.469   2.202 -0.4676 -0.4687  0.9158
 2471TIP3    H128828   1.531   5.540   2.202 -0.4399 -0.4598 -0.9857
 2471TIP3    H228829   1.477   5.428   2.288  2.4577 -0.8324  0.4748
 2472TIP3   OH228830   1.026   2.922   5.046 -0.1923  0.3481  0.1277
 2472TIP3    H128831   1.040   2.827   5.043 -2.9327 -0.1480  0.7181
 2472TIP3    H228832   1.034   2.950   4.955  0.4358 -0.4600 -0.0817
 2473TIP3   OH228833   2.005   3.533   2.015 -0.2106  0.2245  0.6717
 2473TIP3    H128834   2.055   3.533   2.096  0.1597 -2.0300  0.4979
 2473TIP3    H228835   2.003   3.441   1.988 -1.8396  0.6837 -0.9427
 2474TIP3   OH228836   0.370   6.139   6.266  0.1837  0.1622 -0.6744
 2474TIP3    H128837   0.287   6.145   6.315  1.2011  2.3813  0.9507
 2474TIP3    H228838   0.430   6.096   6.326  0.2959 -1.4165 -1.8440
 2475TIP3   OH228839   6.709   0.280  11.684 -0.4318 -0.7168 -0.6152
 2475TIP3    H128840   6.789   0.305  11.639 -0.0376 -0.2296  0.3268
 2475TIP3    H228841   6.657   0.235  11.617  0.0625  0.1141 -1.5861
 2476TIP3   OH228842   1.088   5.798  17.220 -0.0333  0.0281  0.0730
 2476TIP3    H128843   1.119   5.810  17.310 -1.6576 -1.3225  0.8776
 2476TIP3    H228844   1.127   5.870  17.172  3.9827 -1.2675  0.9706
 2477TIP3   OH228845   3.996   4.293  16.781 -0.0127 -0.0199 -0.2630
 2477TIP3    H128846   3.918   4.347  16.797  1.1045  0.9123  2.5136
 2477TIP3    H228847   3.978   4.211  16.827  1.2518  0.8145  1.7996
 2478TIP3   OH228848   4.856   2.216   5.954  0.0804  0.2769 -0.7637
 2478TIP3    H128849   4.933   2.272   5.964  1.3475 -0.8746 -3.3074
 2478TIP3    H228850   4.889   2.127   5.967 -1.2213 -0.1403 -0.1473
 2479TIP3   OH228851   1.357   2.086   4.213 -0.3774  0.2257 -0.0180
 2479TIP3    H128852   1.389   2.062   4.300 -0.4317  1.5151  0.3711
 2479TIP3    H228853   1.276   2.036   4.203 -0.3407  0.0185  0.6410
 2480TIP3   OH228854   0.297   5.234   2.717 -0.0673 -0.1841 -0.0841
 2480TIP3    H128855   0.387   5.255   2.694  0.4636  0.4578  2.2732
 2480TIP3    H228856   0.299   5.221   2.812 -2.3849 -0.5611 -0.0261
 2481TIP3   OH228857   4.161   0.022  15.256  0.3481  0.6058 -0.4837
 2481TIP3    H128858   4.117   0.096  15.214 -0.0375  1.9201  2.0208
 2481TIP3    H228859   4.254   0.035  15.239  0.2644  1.5769 -0.2279
 2482TIP3   OH228860   5.561   1.184  16.435 -0.2336 -0.5165  0.5379
 2482TIP3    H128861   5.467   1.171  16.432 -0.2701 -0.1452 -0.6063
 2482TIP3    H228862   5.580   1.239  16.359  0.8330 -0.1115  1.0763
 2483TIP3   OH228863   5.726   5.891   2.877  0.2549 -0.2827 -0.1783
 2483TIP3    H128864   5.675   5.841   2.813 -0.8592  0.0679  0.4100
 2483TIP3    H228865   5.711   5.982   2.854 -1.0474 -0.1140  1.2078
 2484TIP3   OH228866   2.724   2.945  12.510  0.0448 -0.5303 -0.7807
 2484TIP3    H128867   2.819   2.955  12.516 -0.1682  1.1631  0.2857
 2484TIP3    H228868   2.709   2.915  12.420  1.5464 -0.3826 -1.1082
 2485TIP3   OH228869   0.345   0.075   4.339 -0.2061  0.9245  0.1030
 2485TIP3    H128870   0.302   0.147   4.292 -0.7410  0.9212  0.5703
 2485TIP3    H228871   0.362   0.110   4.427  0.9490  0.9913 -0.1301
 2486TIP3   OH228872   3.676   5.436   6.123 -0.1230 -0.2598 -0.1632
 2486TIP3    H128873   3.707   5.460   6.035 -0.6421 -0.0576 -0.2985
 2486TIP3    H228874   3.743   5.469   6.182  0.1700 -0.2843 -0.4770
 2487TIP3   OH228875   5.854   2.533  15.711 -0.5238  0.3634  0.2987
 2487TIP3    H128876   5.898   2.567  15.789  2.2134  1.5577 -1.6044
 2487TIP3    H228877   5.889   2.444  15.701  0.4132  0.7898 -0.4012
 2488TIP3   OH228878   5.777   4.936  14.351  0.0700 -0.3510  0.0218
 2488TIP3    H128879   5.863   4.922  14.391  0.5883 -1.6800 -1.4384
 2488TIP3    H228880   5.718   4.880  14.401 -0.1864  1.2160  1.5934
 2489TIP3   OH228881   1.083   5.456   5.157 -0.7058  0.0102  0.1252
 2489TIP3    H128882   1.156   5.402   5.189 -0.4042  0.1975 -0.2383
 2489TIP3    H228883   1.006   5.421   5.202 -0.0918  1.4072  2.4889
 2490TIP3   OH228884   5.005   2.325   1.518  0.1728  0.1267 -0.3593
 2490TIP3    H128885   4.956   2.363   1.446 -1.1857 -0.2051  0.3539
 2490TIP3    H228886   4.997   2.231   1.506 -1.4373  0.0202  1.0385
 2491TIP3   OH228887   2.097   0.552  10.995  0.1091 -0.0548 -0.2985
 2491TIP3    H128888   2.172   0.539  11.053  0.4764 -0.8816 -0.9459
 2491TIP3    H228889   2.061   0.464  10.981 -0.7560  0.2850 -0.3051
 2492TIP3   OH228890   1.521   5.952   4.538 -0.2545 -0.1829  0.1195
 2492TIP3    H128891   1.544   5.937   4.629 -1.3153 -0.4480  0.3568
 2492TIP3    H228892   1.486   6.041   4.536 -0.7571 -0.3795  0.0786
 2493TIP3   OH228893   0.871   3.455   1.968  0.3908 -0.0745 -0.3571
 2493TIP3    H128894   0.966   3.470   1.961  0.5561 -0.9248 -0.0462
 2493TIP3    H228895   0.852   3.472   2.060  0.5375 -1.4656 -0.0551
 2494TIP3   OH228896   3.969   3.206  14.698  1.0747 -0.4375  0.3895
 2494TIP3    H128897   3.954   3.235  14.788 -0.9517 -3.7291  1.3086
 2494TIP3    H228898   4.061   3.179  14.697  1.4913  0.8876  1.0382
 2495TIP3   OH228899   5.979   2.602  15.940 -0.2411  0.3740  0.2923
 2495TIP3    H128900   5.921   2.603  16.016 -1.0739  0.8458 -0.3348
 2495TIP3    H228901   6.059   2.646  15.970  0.7945 -2.3673  1.8936
 2496TIP3   OH228902   4.465   6.692  13.339  0.4360 -0.6041 -0.2172
 2496TIP3    H128903   4.500   6.746  13.268  1.7983 -1.2420 -0.0697
 2496TIP3    H228904   4.370   6.690  13.323  0.6286 -0.1598 -1.6031
 2497TIP3   OH228905   1.924   2.399   0.857 -0.3283  0.4056 -0.2427
 2497TIP3    H128906   1.964   2.343   0.791 -0.3005  1.4522 -1.1384
 2497TIP3    H228907   1.838   2.360   0.873 -0.0640 -0.2414 -0.3979
 2498TIP3   OH228908   6.587   0.528   2.451  0.0045  0.1255 -0.6888
 2498TIP3    H128909   6.524   0.593   2.420  1.1973  0.4167 -2.6526
 2498TIP3    H228910   6.634   0.571   2.522 -1.1849  0.3167  0.0105
 2499TIP3   OH228911   1.275   3.367   3.666 -0.2177  0.2738 -0.7345
 2499TIP3    H128912   1.268   3.350   3.760 -0.7509  1.2228 -0.5853
 2499TIP3    H228913   1.335   3.440   3.659 -0.2097  0.2308 -1.1315
 2500TIP3   OH228914   0.155   6.085   3.349 -0.4249  0.1924 -0.4834
 2500TIP3    H128915   0.089   6.112   3.285  0.8190  2.1429 -1.0167
 2500TIP3    H228916   0.151   6.151   3.418  1.8751  1.1972 -1.2211
 2501TIP3   OH228917   3.941   4.588   3.148 -0.2168  0.0004 -0.1712
 2501TIP3    H128918   3.924   4.674   3.188  3.0299  0.6801  0.0057
 2501TIP3    H228919   3.901   4.594   3.062 -0.2754  1.6275 -0.0734
 2502TIP3   OH228920   6.374   0.487  16.054 -0.4221 -0.1940 -0.4751
 2502TIP3    H128921   6.395   0.438  16.133  0.6835 -0.9499 -1.2143
 2502TIP3    H228922   6.345   0.422  15.991 -3.1406  0.5970 -0.1671
 2503TIP3   OH228923   2.230   0.357  14.347  0.0249  0.2849 -0.4469
 2503TIP3    H128924   2.212   0.446  14.379  0.6717 -0.6338  2.7970
 2503TIP3    H228925   2.323   0.357  14.327  0.2146  0.1169  0.4125
 2504TIP3   OH228926   0.969   3.765   2.935  0.8594  0.5448 -0.1946
 2504TIP3    H128927   0.901   3.815   2.981  1.8806  1.4855  0.3490
 2504TIP3    H228928   0.964   3.678   2.972  0.6171  0.8789  0.5771
 2505TIP3   OH228929   0.295   5.338  14.341  0.0969  0.4493 -0.2447
 2505TIP3    H128930   0.321   5.359  14.252  0.4176  1.6579  0.1070
 2505TIP3    H228931   0.335   5.253  14.359 -1.0580 -0.4348 -1.6729
 2506TIP3   OH228932   3.151   5.791  11.071 -0.4820  0.3058  0.3679
 2506TIP3    H128933   3.099   5.827  11.000 -1.7098 -1.2947  0.3921
 2506TIP3    H228934   3.219   5.739  11.027 -2.9481 -3.1110  0.1604
 2507TIP3   OH228935   1.020   5.473   3.427 -0.5410 -0.4556 -0.4037
 2507TIP3    H128936   0.988   5.393   3.469  0.4419 -0.6760 -0.0615
 2507TIP3    H228937   1.111   5.481   3.455 -0.5337  0.6222 -0.6818
 2508TIP3   OH228938   6.463   3.350   3.631 -0.2364  0.3340 -0.0470
 2508TIP3    H128939   6.462   3.402   3.551  1.0995 -0.0775 -0.3680
 2508TIP3    H228940   6.502   3.407   3.697 -0.1863  0.2579 -0.0101
 2509TIP3   OH228941   1.363   2.812  11.760 -0.4158 -0.3434 -0.9098
 2509TIP3    H128942   1.453   2.837  11.783 -1.0975  0.2888  1.3610
 2509TIP3    H228943   1.318   2.895  11.747 -1.4448 -0.4487  1.4475
 2510TIP3   OH228944   0.953   0.243   4.643  0.2373 -0.0522  0.3860
 2510TIP3    H128945   0.902   0.237   4.562 -1.4271  0.5128  1.3334
 2510TIP3    H228946   0.931   0.163   4.691 -0.4405  0.5801  1.1598
 2511TIP3   OH228947   2.102   6.083  14.180 -0.2531 -0.6287 -0.0023
 2511TIP3    H128948   2.193   6.092  14.154  0.2749 -0.8707  1.6428
 2511TIP3    H228949   2.096   5.994  14.216 -0.8355 -0.1944  1.0001
 2512TIP3   OH228950   1.311   2.609   0.926  1.0398 -0.5251  0.8188
 2512TIP3    H128951   1.381   2.671   0.909  0.4976  0.4319  1.9500
 2512TIP3    H228952   1.292   2.570   0.840  1.5457  0.7058  0.1241
 2513TIP3   OH228953   1.073   2.211  13.457 -0.6556  0.3518 -0.4062
 2513TIP3    H128954   1.061   2.273  13.529  0.1586 -0.2743  0.2892
 2513TIP3    H228955   1.021   2.247  13.385 -1.5204  0.9645  0.5102
 2514TIP3   OH228956   1.722   4.986   2.147  0.1321  0.1239 -0.7151
 2514TIP3    H128957   1.721   5.049   2.075 -0.4027 -0.7336 -1.4796
 2514TIP3    H228958   1.633   4.950   2.148  0.3588 -0.4307 -0.1243
 2515TIP3   OH228959   3.978   0.612   0.774  0.0201 -0.1143  0.2360
 2515TIP3    H128960   4.025   0.695   0.783  3.1280 -1.8579  1.6121
 2515TIP3    H228961   3.911   0.615   0.841  1.4520  0.5161  1.7063
 2516TIP3   OH228962   5.346   0.150  14.620  0.6425 -0.6051 -0.0868
 2516TIP3    H128963   5.353   0.061  14.587  0.9136 -1.1175  1.3078
 2516TIP3    H228964   5.333   0.141  14.714  0.8729  0.8333  0.1175
 2517TIP3   OH228965   4.908   2.947  11.185 -0.2466 -0.6312  0.5719
 2517TIP3    H128966   4.896   2.891  11.109 -0.6424 -0.7895  0.7449
 2517TIP3    H228967   4.819   2.967  11.214 -0.1282  0.5462  0.1820
 2518TIP3   OH228968   0.100   3.542   4.755 -0.4002  0.5022 -0.1409
 2518TIP3    H128969   0.150   3.624   4.749  1.4806 -0.4011  2.1038
 2518TIP3    H228970   0.112   3.513   4.845 -0.2296 -2.7448 -1.1074
 2519TIP3   OH228971   1.324   1.729  11.158  0.1065  0.3287 -0.1643
 2519TIP3    H128972   1.267   1.804  11.174 -1.3231 -0.5396 -0.9968
 2519TIP3    H228973   1.286   1.686  11.081  1.5878 -0.5805 -0.4160
 2520TIP3   OH228974   5.048   0.061  11.872  0.1161  0.3341  0.4135
 2520TIP3    H128975   5.008  -0.010  11.921 -1.6932  0.2696 -1.0545
 2520TIP3    H228976   5.005   0.140  11.905  0.6919  0.5535  0.6507
 2521TIP3   OH228977   0.424   4.470  12.256  0.0177  0.3109  0.0835
 2521TIP3    H128978   0.441   4.381  12.224 -0.7499 -0.4008  1.5682
 2521TIP3    H228979   0.344   4.497  12.210 -0.7440 -0.4723  0.9211
 2522TIP3   OH228980   6.067   4.961  11.927 -0.3516 -0.3924  0.1515
 2522TIP3    H128981   6.140   5.012  11.894 -1.3740  1.0094 -0.0751
 2522TIP3    H228982   6.101   4.872  11.938  1.4377  0.2861  0.3424
 2523TIP3   OH228983   2.721   2.153   5.459  0.2229  0.2013  0.8500
 2523TIP3    H128984   2.779   2.161   5.384  0.1603 -1.1118  0.6385
 2523TIP3    H228985   2.635   2.134   5.422  0.1949 -0.4825  1.2411
 2524TIP3   OH228986   3.462   1.406   2.352  0.2975 -0.3608 -0.0817
 2524TIP3    H128987   3.519   1.460   2.298  1.0842 -0.1798  0.9148
 2524TIP3    H228988   3.512   1.389   2.432 -0.9538 -0.3503  0.7409
 2525TIP3   OH228989   5.069   3.128  14.563  0.6598 -0.1066  0.0816
 2525TIP3    H128990   5.020   3.117  14.482  0.4617  0.7988  0.0634
 2525TIP3    H228991   5.009   3.176  14.620  1.2982  0.4662  0.2811
 2526TIP3   OH228992   0.606   5.027  10.482  0.0977 -0.3149  0.0158
 2526TIP3    H128993   0.645   4.943  10.504 -3.0657 -1.6075  1.2060
 2526TIP3    H228994   0.668   5.067  10.420  1.4146 -3.7339 -1.0804
 2527TIP3   OH228995   5.496   4.186  11.662 -0.4706 -0.7431  0.2038
 2527TIP3    H128996   5.588   4.205  11.678 -0.9237  3.2117 -0.8063
 2527TIP3    H228997   5.496   4.111  11.602  2.0180 -1.2131  0.7116
 2528TIP3   OH228998   4.963   2.763   5.564  0.1102  0.0551  0.3657
 2528TIP3    H128999   4.901   2.758   5.491 -0.0171  2.5339  0.2192
 2528TIP3    H229000   4.998   2.674   5.572 -0.2880 -0.4184 -2.3340
 2529TIP3   OH229001   0.951   3.993   4.434  0.4580 -0.9735  0.8827
 2529TIP3    H129002   0.916   3.923   4.379  1.2855 -1.1633  0.5818
 2529TIP3    H229003   1.038   3.963   4.458  2.2552  1.4026 -2.0642
 2530TIP3   OH229004   0.705   2.445  15.885 -0.4322 -0.5200 -0.3418
 2530TIP3    H129005   0.726   2.475  15.973  0.2556 -1.7975 -0.0487
 2530TIP3    H229006   0.779   2.390  15.860 -1.5289 -1.7844 -0.9260
 2531TIP3   OH229007   6.711   4.245   1.858  0.1332  0.0927  0.0719
 2531TIP3    H129008   6.679   4.239   1.768  0.8495 -0.4017 -0.1551
 2531TIP3    H229009   6.686   4.162   1.898  0.7176 -0.1092  0.0260
 2532TIP3   OH229010   5.264   2.028   6.359 -0.1417 -0.6254  0.0717
 2532TIP3    H129011   5.359   2.028   6.374  0.0272 -0.8428 -0.9252
 2532TIP3    H229012   5.240   2.121   6.365  0.4416 -0.3490 -1.3755
 2533TIP3   OH229013   5.701   1.477   3.727 -0.0813 -0.4860 -0.0492
 2533TIP3    H129014   5.669   1.387   3.722 -0.4881 -0.4090  0.9562
 2533TIP3    H229015   5.714   1.503   3.636  1.2121 -1.9718 -0.3208
 2534TIP3   OH229016   4.637   3.798  15.264 -0.2434  0.2576 -1.0989
 2534TIP3    H129017   4.559   3.847  15.286 -1.1287 -0.9104 -1.5123
 2534TIP3    H229018   4.607   3.732  15.201  1.1235 -0.0384 -1.4823
 2535TIP3   OH229019   4.797   2.559  15.859 -0.3467 -0.7289  0.2583
 2535TIP3    H129020   4.832   2.648  15.849  0.0215 -0.6933  1.6703
 2535TIP3    H229021   4.837   2.510  15.787 -1.8050  0.5735 -1.5484
 2536TIP3   OH229022   1.539   2.533   5.072  0.1190 -0.1805 -0.3605
 2536TIP3    H129023   1.539   2.470   5.144  0.6642  0.3001  0.0695
 2536TIP3    H229024   1.631   2.556   5.060 -0.1076  0.8413 -0.2375
 2537TIP3   OH229025   5.507   3.126   4.121  0.8836  0.2301 -0.4722
 2537TIP3    H129026   5.449   3.089   4.187  0.0248  0.4774 -1.0582
 2537TIP3    H229027   5.540   3.050   4.073  2.5782 -0.0550  1.0494
 2538TIP3   OH229028   2.226   0.886   1.068 -0.1925  0.6499 -0.3451
 2538TIP3    H129029   2.232   0.979   1.091 -0.0189  0.2446  1.4518
 2538TIP3    H229030   2.313   0.850   1.089 -0.7726 -0.2257  0.6898
 2539TIP3   OH229031   0.090   6.079  12.211 -0.3079  0.1541 -0.2016
 2539TIP3    H129032   0.073   6.027  12.133 -0.4097  0.6106 -0.4885
 2539TIP3    H229033   0.128   6.160  12.178 -0.1734  0.2745  0.2373
 2540TIP3   OH229034   4.816   1.260  13.070  0.1631  0.1325  0.3669
 2540TIP3    H129035   4.845   1.351  13.067 -0.5575  0.5003  2.5447
 2540TIP3    H229036   4.896   1.209  13.069  0.7714  0.9577  2.1430
 2541TIP3   OH229037   0.443   6.777  11.413 -0.1509  0.3765 -0.0427
 2541TIP3    H129038   0.422   6.684  11.421  0.8630  0.1947  0.6542
 2541TIP3    H229039   0.389   6.808  11.340  1.2569 -1.3043 -1.8781
 2542TIP3   OH229040   0.226   1.256   0.153  0.3045 -0.7033 -0.5135
 2542TIP3    H129041   0.132   1.246   0.145  0.1009  0.0231  0.7324
 2542TIP3    H229042   0.256   1.276   0.064 -0.8076 -0.2220 -0.7907
 2543TIP3   OH229043   3.186   1.066   2.155 -0.1010  0.4048 -0.2928
 2543TIP3    H129044   3.256   1.130   2.168  0.1467 -0.1526  1.4999
 2543TIP3    H229045   3.231   0.983   2.144 -0.3549 -0.3942  3.3738
 2544TIP3   OH229046   6.038   3.044  16.333 -0.1124 -0.5571  0.0500
 2544TIP3    H129047   6.095   3.023  16.407 -0.6873 -1.1266  0.3384
 2544TIP3    H229048   5.995   3.126  16.359  1.3258  0.4565 -0.6158
 2545TIP3   OH229049   2.795   4.107   2.220  0.6324  0.1919  0.0872
 2545TIP3    H129050   2.819   4.018   2.247 -0.0864  0.4517  1.6920
 2545TIP3    H229051   2.760   4.097   2.132  0.8805 -1.0621  0.1104
 2546TIP3   OH229052   5.730   2.649  12.361  0.2737  0.6812  0.1902
 2546TIP3    H129053   5.733   2.573  12.303 -0.3590  0.0672  0.9446
 2546TIP3    H229054   5.700   2.721  12.305  2.4805  0.8071 -0.9462
 2547TIP3   OH229055   3.439   6.471  10.781 -0.5477  0.4365 -0.0532
 2547TIP3    H129056   3.432   6.387  10.824 -0.5894  0.4048 -0.1212
 2547TIP3    H229057   3.376   6.466  10.709 -0.1073  0.2924 -0.4327
 2548TIP3   OH229058   5.749   6.320  11.381  0.6465 -0.0503 -0.4609
 2548TIP3    H129059   5.796   6.307  11.463  1.1315 -0.0731 -0.7374
 2548TIP3    H229060   5.712   6.408  11.388 -0.7485 -0.6845  0.4811
 2549TIP3   OH229061   6.342   0.219  13.453  0.1201  0.0436  0.1134
 2549TIP3    H129062   6.322   0.281  13.524  1.9565  3.3413 -2.0034
 2549TIP3    H229063   6.425   0.179  13.479 -0.1954 -0.2599  0.6823
 2550TIP3   OH229064   6.546   3.870   5.169 -0.1008 -0.1904 -0.2741
 2550TIP3    H129065   6.556   3.779   5.139 -0.8020 -0.2744 -0.2868
 2550TIP3    H229066   6.628   3.891   5.212  0.4702 -0.4799 -1.1965
 2551TIP3   OH229067   2.545   1.417   0.506  0.3407 -0.2204 -0.2155
 2551TIP3    H129068   2.611   1.351   0.488 -0.9856 -1.3294 -1.3209
 2551TIP3    H229069   2.506   1.391   0.589  0.6744 -0.0961 -0.0201
 2552TIP3   OH229070   3.289   4.406   3.861 -0.1667  0.2371 -0.0747
 2552TIP3    H129071   3.321   4.496   3.866  0.3499  0.1014 -0.7409
 2552TIP3    H229072   3.211   4.411   3.806  2.2435 -0.2571 -3.9416
 2553TIP3   OH229073   0.973   3.469  14.670 -0.0485 -0.4075  0.3716
 2553TIP3    H129074   0.955   3.522  14.592  2.1207 -0.5758 -0.3109
 2553TIP3    H229075   0.890   3.466  14.717 -0.9792  1.1218 -1.0759
 2554TIP3   OH229076   0.539   2.722   4.469 -0.3072 -0.5272 -0.0480
 2554TIP3    H129077   0.632   2.702   4.469  0.0086  0.8099  1.0807
 2554TIP3    H229078   0.525   2.771   4.387 -0.1670 -1.2805 -0.5312
 2555TIP3   OH229079   4.708   1.592  12.991 -0.1328  0.4095  0.2547
 2555TIP3    H129080   4.768   1.657  12.955 -0.3686  0.4910  0.0007
 2555TIP3    H229081   4.691   1.532  12.918  0.5362 -0.2708  0.6497
 2556TIP3   OH229082   0.839   5.573  11.569 -0.2886 -0.4065 -0.2095
 2556TIP3    H129083   0.804   5.554  11.482  0.7730 -1.1783 -0.4936
 2556TIP3    H229084   0.882   5.658  11.559  0.7821 -0.9815 -0.7660
 2557TIP3   OH229085   4.220   3.240  16.326  0.0545 -0.3563  0.0826
 2557TIP3    H129086   4.218   3.215  16.419  1.4433  0.8561  0.4769
 2557TIP3    H229087   4.137   3.287  16.313 -0.5970 -1.3642  0.4246
 2558TIP3   OH229088   6.383   1.793   2.830 -0.2742  0.1306 -0.2024
 2558TIP3    H129089   6.362   1.712   2.876 -0.4646 -0.4386 -1.2502
 2558TIP3    H229090   6.479   1.795   2.827 -0.2664  0.0326 -0.0123
 2559TIP3   OH229091   5.332   0.564  13.361 -0.2606  0.0605  0.5221
 2559TIP3    H129092   5.350   0.473  13.337 -0.7226  0.2082 -0.4363
 2559TIP3    H229093   5.380   0.616  13.297 -0.6345  0.4877  0.5826
 2560TIP3   OH229094   1.631   4.739   2.917 -0.3151  0.0523 -0.0345
 2560TIP3    H129095   1.564   4.681   2.881  0.4953 -1.7117  1.0890
 2560TIP3    H229096   1.618   4.733   3.012  1.6867 -0.7740  0.2486
 2561TIP3   OH229097   5.698   5.737  12.387 -0.1575 -0.5603 -0.2975
 2561TIP3    H129098   5.608   5.704  12.389 -0.8059  1.0049 -1.7571
 2561TIP3    H229099   5.691   5.828  12.359  1.7315  0.3145  1.6977
 2562TIP3   OH229100   0.432   3.368  14.484  0.4232 -0.8242 -0.3186
 2562TIP3    H129101   0.520   3.376  14.446  0.5001 -2.1505 -0.4711
 2562TIP3    H229102   0.381   3.324  14.416 -0.2149 -0.5548 -0.0184
 2563TIP3   OH229103   1.592   2.884   2.013 -0.4084 -0.7491  0.2456
 2563TIP3    H129104   1.631   2.801   1.985  3.2728  1.1395 -0.8841
 2563TIP3    H229105   1.558   2.923   1.933 -1.0705 -0.6466  0.5708
 2564TIP3   OH229106   3.466   1.544   5.156  0.2796 -0.2935  0.8550
 2564TIP3    H129107   3.530   1.499   5.102 -1.2801 -0.3542 -1.0341
 2564TIP3    H229108   3.517   1.610   5.203  1.7198 -0.2862 -0.6165
 2565TIP3   OH229109   5.146   0.262  10.742  0.6594 -0.1876  0.3563
 2565TIP3    H129110   5.177   0.247  10.653 -1.1342  0.4091 -0.4068
 2565TIP3    H229111   5.092   0.185  10.762 -0.1647  0.3881  0.3523
 2566TIP3   OH229112   3.539   3.156  12.847  0.1334  0.0065 -0.7028
 2566TIP3    H129113   3.474   3.115  12.904  0.1393  0.2481 -0.5206
 2566TIP3    H229114   3.514   3.129  12.758 -0.9775  1.1213 -0.7522
 2567TIP3   OH229115   5.525   5.905   5.832  0.4319  0.0260  0.2104
 2567TIP3    H129116   5.432   5.919   5.812  0.1880 -1.9511 -0.2434
 2567TIP3    H229117   5.527   5.890   5.926 -0.0098 -1.6434 -0.0028
 2568TIP3   OH229118   3.119   2.117  15.073  0.6512 -0.2185  0.4589
 2568TIP3    H129119   3.030   2.143  15.048  0.2303 -1.1979  0.9141
 2568TIP3    H229120   3.157   2.084  14.992 -0.2552 -2.1018  0.7269
 2569TIP3   OH229121   3.321   3.814   6.362 -0.0917 -0.1308 -0.2706
 2569TIP3    H129122   3.343   3.903   6.388  1.3331 -0.4364 -0.3455
 2569TIP3    H229123   3.226   3.808   6.374 -0.1730  1.3092 -0.0375
 2570TIP3   OH229124   1.213   4.817   5.385 -0.8596 -0.7189 -0.1063
 2570TIP3    H129125   1.301   4.797   5.352 -1.4800 -1.7799 -1.2004
 2570TIP3    H229126   1.225   4.827   5.479  0.5867  0.0553 -0.3439
 2571TIP3   OH229127   4.649   6.356  10.530 -0.1179  0.4373 -0.2955
 2571TIP3    H129128   4.733   6.382  10.492  0.4304  0.2193  0.7288
 2571TIP3    H229129   4.602   6.438  10.544 -0.3739  0.5220 -1.4847
 2572TIP3   OH229130   4.083   1.385  12.499  0.0974 -0.2985 -0.3771
 2572TIP3    H129131   3.998   1.370  12.458 -0.3727 -0.3652  0.5984
 2572TIP3    H229132   4.105   1.475  12.476  1.5751 -1.3685 -3.8187
 2573TIP3   OH229133   3.721   6.352   4.547  0.2994  0.3482 -0.1997
 2573TIP3    H129134   3.816   6.351   4.533  0.3201 -1.3217 -0.1048
 2573TIP3    H229135   3.711   6.388   4.635  0.8661  0.3360 -0.1243
 2574TIP3   OH229136   0.848   0.059  16.657  0.6263  0.0621  0.0222
 2574TIP3    H129137   0.844   0.074  16.752 -1.1780 -2.1394  0.4020
 2574TIP3    H229138   0.800   0.133  16.619 -2.5687 -1.1883  1.2601
 2575TIP3   OH229139   4.540   3.148   6.482 -0.4652 -0.1214  0.1213
 2575TIP3    H129140   4.520   3.197   6.403 -1.3533 -0.3263  0.2097
 2575TIP3    H229141   4.563   3.215   6.547  2.2997 -0.0332 -0.8212
 2576TIP3   OH229142   0.268   2.037  13.728  0.0808  0.1766  0.4999
 2576TIP3    H129143   0.264   2.098  13.802 -1.2564  1.6891 -0.7592
 2576TIP3    H229144   0.344   2.067  13.678 -0.2323  0.4534  0.1875
 2577TIP3   OH229145   5.200   3.918  12.429  0.4363 -0.4468  0.1663
 2577TIP3    H129146   5.166   3.829  12.419  2.5045 -1.3478  0.5161
 2577TIP3    H229147   5.263   3.926  12.357  2.1446 -0.2577  1.6223
 2578TIP3   OH229148   0.219   4.228  13.348  0.1519  0.6330 -0.1552
 2578TIP3    H129149   0.184   4.186  13.427  1.9002 -0.6615 -0.0132
 2578TIP3    H229150   0.276   4.297  13.382 -0.6303  1.3955 -0.3506
 2579TIP3   OH229151   2.450   4.419  11.941 -0.0073  0.4000 -0.5024
 2579TIP3    H129152   2.439   4.328  11.914  0.8290  0.5594 -1.4202
 2579TIP3    H229153   2.493   4.462  11.867  0.3891  1.3510  0.2489
 2580TIP3   OH229154   3.381   4.964   1.232  0.1534 -0.1993  0.5162
 2580TIP3    H129155   3.438   5.040   1.244  1.0338 -0.8691  0.6342
 2580TIP3    H229156   3.435   4.889   1.256  0.6262 -1.2828 -3.3373
 2581TIP3   OH229157   3.584   3.955  15.954  0.0507  0.0455 -0.0386
 2581TIP3    H129158   3.651   3.996  16.008 -0.9503 -1.3243  2.3807
 2581TIP3    H229159   3.633   3.890  15.901  1.0953  1.6976 -1.1991
 2582TIP3   OH229160   4.137   2.936  15.380  0.5185  0.1446  0.2469
 2582TIP3    H129161   4.153   3.012  15.435 -0.3335 -0.5446  1.5162
 2582TIP3    H229162   4.110   2.867  15.442  2.6074 -1.6169 -0.6727
 2583TIP3   OH229163   0.559   4.535  16.401 -0.2391 -0.1956  0.4006
 2583TIP3    H129164   0.644   4.575  16.386 -1.1887  1.9536  0.4349
 2583TIP3    H229165   0.576   4.468  16.467  1.7216 -1.1411 -0.9455
 2584TIP3   OH229166   0.503   0.381   3.407 -0.1018  0.1493 -0.1074
 2584TIP3    H129167   0.534   0.291   3.405  2.0907  0.8351 -0.5116
 2584TIP3    H229168   0.533   0.418   3.324  0.5253  1.6608  0.7431
 2585TIP3   OH229169   5.364   6.668  11.269 -0.1116  0.1788  0.5406
 2585TIP3    H129170   5.294   6.604  11.275  1.5687 -1.6226  2.3247
 2585TIP3    H229171   5.324   6.743  11.224 -2.5835 -1.4733 -0.2255
 2586TIP3   OH229172   2.109   1.290   4.349 -0.0077 -0.0205 -0.6705
 2586TIP3    H129173   2.142   1.255   4.432 -0.2739 -0.1000 -0.5980
 2586TIP3    H229174   2.172   1.258   4.283  1.2624  1.5717 -0.2869
 2587TIP3   OH229175   3.029   1.130   3.971 -0.3518 -0.0549  0.0126
 2587TIP3    H129176   2.986   1.139   3.886  0.5862 -0.0484 -0.4679
 2587TIP3    H229177   3.100   1.193   3.969 -0.2012 -0.1936  0.7272
 2588TIP3   OH229178   0.431   4.669   0.250 -0.4060  0.3282 -0.2674
 2588TIP3    H129179   0.446   4.704   0.162  0.2032 -0.4723 -0.4839
 2588TIP3    H229180   0.517   4.642   0.281 -0.6323  0.4719  0.5350
 2589TIP3   OH229181   2.231   5.069   1.216 -0.0337  0.0136 -0.5886
 2589TIP3    H129182   2.246   5.161   1.196 -0.9271  0.0381 -1.2409
 2589TIP3    H229183   2.240   5.024   1.132  1.7127 -0.7034 -0.0618
 2590TIP3   OH229184   4.404   4.740   3.545  0.5676 -0.6174  0.3848
 2590TIP3    H129185   4.327   4.786   3.511  1.2590  0.9354  0.8544
 2590TIP3    H229186   4.427   4.787   3.625  2.9244 -0.0469 -0.5402
 2591TIP3   OH229187   5.641   3.182  14.655  0.0355 -0.5611 -0.0048
 2591TIP3    H129188   5.667   3.090  14.660  1.6123 -0.2723 -1.7967
 2591TIP3    H229189   5.575   3.185  14.586  0.5419 -0.2730 -0.4901
 2592TIP3   OH229190   3.484   5.412   5.271  0.1271  0.0571  0.0417
 2592TIP3    H129191   3.469   5.443   5.182 -0.4932 -0.0937  0.0859
 2592TIP3    H229192   3.479   5.316   5.263 -1.3612  0.0743  0.4626
 2593TIP3   OH229193   6.390   5.515  14.921  0.2649 -0.0923 -0.4075
 2593TIP3    H129194   6.364   5.580  14.856  1.6812  0.2578 -0.6502
 2593TIP3    H229195   6.425   5.567  14.994 -0.3543 -0.5182  0.2044
 2594TIP3   OH229196   6.757   2.929  12.271 -0.1331 -0.3406 -0.2644
 2594TIP3    H129197   6.737   2.923  12.365 -0.6735 -0.8996 -0.4108
 2594TIP3    H229198   6.730   2.845  12.235  0.0803 -0.1326 -0.9285
 2595TIP3   OH229199   1.682   1.720  15.950 -0.1245  0.3246 -0.3562
 2595TIP3    H129200   1.760   1.767  15.982 -1.5277  2.4237  0.1547
 2595TIP3    H229201   1.609   1.775  15.976 -1.8422 -1.7729 -0.5283
 2596TIP3   OH229202   6.218   0.538   4.783 -0.2754 -0.4952  0.0435
 2596TIP3    H129203   6.289   0.495   4.830 -0.0421 -0.5106 -0.3163
 2596TIP3    H229204   6.140   0.489   4.807 -0.0684 -0.8838 -0.0622
 2597TIP3   OH229205   4.147   3.791  15.175 -0.5700 -0.4339 -0.0697
 2597TIP3    H129206   4.132   3.813  15.083 -0.1515  0.1814  0.0004
 2597TIP3    H229207   4.082   3.724  15.195 -1.4448  0.2768 -0.4880
 2598TIP3   OH229208   4.848   0.342   0.518 -0.6124  0.2078  0.0024
 2598TIP3    H129209   4.930   0.300   0.545 -0.1443  1.1924  0.1888
 2598TIP3    H229210   4.836   0.413   0.582 -1.9584 -0.3098  0.3605
 2599TIP3   OH229211   0.853   3.686   0.941 -0.6381 -0.7682 -0.2601
 2599TIP3    H129212   0.810   3.745   1.003 -1.4316 -0.0757 -1.4269
 2599TIP3    H229213   0.879   3.742   0.869 -1.2812 -1.8164 -1.3375
 2600TIP3   OH229214   1.444   0.759   4.224 -0.6416  0.8446  0.2199
 2600TIP3    H129215   1.436   0.677   4.273 -1.5514  1.8649  1.8665
 2600TIP3    H229216   1.356   0.776   4.192 -0.5200  1.3444  0.1457
 2601TIP3   OH229217   4.470   0.303  12.215  0.0584  0.3653 -0.0876
 2601TIP3    H129218   4.541   0.286  12.153  0.3659  0.8782  0.1126
 2601TIP3    H229219   4.431   0.385  12.185 -1.2165 -0.5029 -0.8742
 2602TIP3   OH229220   3.107   5.675   1.177 -0.4793  0.4764  0.4532
 2602TIP3    H129221   3.097   5.586   1.143  3.6964 -0.3250  0.8155
 2602TIP3    H229222   3.150   5.723   1.106 -0.3665  1.5037  1.1903
 2603TIP3   OH229223   5.391   1.511  12.415  0.1996 -0.1216 -0.2594
 2603TIP3    H129224   5.364   1.597  12.383  2.4253  1.1816  1.0206
 2603TIP3    H229225   5.315   1.455  12.403 -2.0878  2.5341  0.7391
 2604TIP3   OH229226   5.201   0.748  14.811 -0.2510  0.6209  0.1656
 2604TIP3    H129227   5.177   0.657  14.797 -1.6276  0.9256  0.3490
 2604TIP3    H229228   5.259   0.747  14.887  0.6435 -0.2010 -0.5138
 2605TIP3   OH229229   3.976   2.537   1.295 -0.0856 -0.5710  0.1525
 2605TIP3    H129230   3.980   2.479   1.220  1.4846  0.8371 -0.9262
 2605TIP3    H229231   3.976   2.626   1.258 -2.0715  0.1905  1.7377
 2606TIP3   OH229232   1.377   3.254  11.251 -0.1377  0.2350 -0.1585
 2606TIP3    H129233   1.293   3.297  11.265 -0.7736  0.0462 -2.7573
 2606TIP3    H229234   1.365   3.165  11.284 -0.3266  0.7142  1.1086
 2607TIP3   OH229235   3.640   2.891   4.899  0.4551  0.6444  0.0264
 2607TIP3    H129236   3.549   2.878   4.874  0.4493 -0.7234  0.6675
 2607TIP3    H229237   3.639   2.971   4.952 -0.7641 -0.4854  1.8213
 2608TIP3   OH229238   1.741   4.166  12.242 -0.1543 -0.1487  0.0163
 2608TIP3    H129239   1.705   4.154  12.330 -0.3231 -0.0402 -0.0383
 2608TIP3    H229240   1.675   4.216  12.196 -0.4911 -1.0022 -0.4499
 2609TIP3   OH229241   6.463   2.367   1.397 -0.2629 -0.2831  0.0298
 2609TIP3    H129242   6.458   2.293   1.335 -1.4156  0.6290 -1.0287
 2609TIP3    H229243   6.557   2.382   1.408 -0.0237 -0.6536 -1.2950
 2610TIP3   OH229244   3.595   6.177   1.885  0.2749  0.1858 -0.1629
 2610TIP3    H129245   3.637   6.102   1.929  0.8150  0.7696  0.3399
 2610TIP3    H229246   3.634   6.178   1.798 -0.5029 -0.7407 -0.5354
 2611TIP3   OH229247   0.714   2.615   1.795  0.4356 -0.2790  0.1667
 2611TIP3    H129248   0.698   2.522   1.814 -1.3392 -0.2884 -1.0636
 2611TIP3    H229249   0.669   2.662   1.865  0.5360 -0.3400  0.2724
 2612TIP3   OH229250   0.592   1.252   4.162 -0.0681 -0.0622 -0.3969
 2612TIP3    H129251   0.532   1.317   4.127 -2.7504 -1.8205  0.5963
 2612TIP3    H229252   0.618   1.286   4.248 -1.4231 -0.2002  0.0973
 2613TIP3   OH229253   6.070   5.364  15.972  0.0789 -0.0255 -0.2769
 2613TIP3    H129254   6.122   5.329  16.044 -1.7344 -1.2404  0.5252
 2613TIP3    H229255   5.983   5.377  16.010 -0.9969 -0.9150 -2.2753
 2614TIP3   OH229256   1.359   3.120   3.887 -0.1182 -0.3565  0.1994
 2614TIP3    H129257   1.454   3.123   3.880 -0.1094  1.7018  0.5314
 2614TIP3    H229258   1.333   3.045   3.833  1.7713 -1.9760  1.4052
 2615TIP3   OH229259   4.981   3.722  16.939  0.0745 -0.3974  0.2318
 2615TIP3    H129260   4.993   3.714  16.845  1.2265  1.2550  0.1970
 2615TIP3    H229261   5.011   3.638  16.975  2.2960 -0.0574 -0.6797
 2616TIP3   OH229262   6.193   4.562  12.707  0.4487 -0.1461 -0.1990
 2616TIP3    H129263   6.221   4.563  12.616  0.8033 -1.1073 -0.1118
 2616TIP3    H229264   6.248   4.496  12.749 -0.0910 -0.1192  0.5851
 2617TIP3   OH229265   5.587   4.902  10.553  0.2167 -0.3559  0.1070
 2617TIP3    H129266   5.627   4.968  10.610  0.3658  0.2485 -0.6641
 2617TIP3    H229267   5.515   4.949  10.510 -0.2608 -0.9643  0.2334
 2618TIP3   OH229268   6.058   5.273   2.739 -0.5216 -0.2983 -0.3393
 2618TIP3    H129269   5.989   5.287   2.804 -0.5583  0.6558 -0.5779
 2618TIP3    H229270   6.012   5.274   2.655 -0.5624 -2.0875 -0.3913
 2619TIP3   OH229271   6.122   1.387  14.400 -0.6076 -0.1337  0.0961
 2619TIP3    H129272   6.193   1.417  14.457 -0.1305 -0.2954 -0.4104
 2619TIP3    H229273   6.108   1.458  14.338  0.7233 -1.0181 -1.2919
 2620TIP3   OH229274   2.464   0.688  11.869 -0.6505 -0.4247  0.0003
 2620TIP3    H129275   2.515   0.752  11.819 -0.4152 -1.7493 -1.5743
 2620TIP3    H229276   2.399   0.739  11.916 -2.1872  0.8383 -3.2220
 2621TIP3   OH229277   1.425   0.743   2.913  1.1791  0.4671 -0.2923
 2621TIP3    H129278   1.365   0.680   2.953 -0.3964  1.5422 -0.8516
 2621TIP3    H229279   1.368   0.805   2.868  2.7889  0.4233 -2.5937
 2622TIP3   OH229280   2.983   2.732   5.200 -0.1909  0.5115 -0.1550
 2622TIP3    H129281   3.064   2.708   5.155 -0.4563  1.3910 -1.1423
 2622TIP3    H229282   2.960   2.818   5.165 -2.2327 -0.2625 -0.8872
 2623TIP3   OH229283   6.235   3.434  13.195 -0.1347 -0.2679  0.0289
 2623TIP3    H129284   6.206   3.511  13.146  0.8117 -0.7816 -1.4106
 2623TIP3    H229285   6.273   3.469  13.275 -1.2309  0.6334  0.1767
 2624TIP3   OH229286   2.024   2.827   1.446  0.1026 -0.0900 -0.7208
 2624TIP3    H129287   1.993   2.763   1.382  0.0336  0.3770 -1.1597
 2624TIP3    H229288   1.945   2.852   1.494  0.2182 -0.7338 -0.1761
 2625TIP3   OH229289   5.066   1.849   1.662  0.4206 -0.0451  0.7416
 2625TIP3    H129290   5.009   1.837   1.587  0.0471 -0.6129  1.1067
 2625TIP3    H229291   5.078   1.944   1.669 -3.5940  0.5255  2.9057
 2626TIP3   OH229292   3.799   1.567   4.653  0.1826  0.4764  0.0854
 2626TIP3    H129293   3.798   1.614   4.570  2.0497  0.3365 -0.0647
 2626TIP3    H229294   3.883   1.590   4.692  0.5072 -1.5635  0.7004
 2627TIP3   OH229295   3.360   3.518  10.804 -0.1140 -0.3295  0.1732
 2627TIP3    H129296   3.313   3.569  10.738 -0.2715 -1.4244 -0.5788
 2627TIP3    H229297   3.328   3.553  10.888 -1.3125 -0.1745 -0.3235
 2628TIP3   OH229298   3.009   3.239   3.328 -0.0587  0.1925  0.0077
 2628TIP3    H129299   2.997   3.331   3.306  1.1266  0.0353 -1.4858
 2628TIP3    H229300   3.010   3.236   3.424 -0.2338  1.7004  0.0686
 2629TIP3   OH229301   3.434   5.666  11.036  0.2293 -0.5531 -0.6856
 2629TIP3    H129302   3.463   5.637  10.950  1.1633  0.0164 -0.5765
 2629TIP3    H229303   3.515   5.678  11.086 -0.2427  0.1285 -0.0603
 2630TIP3   OH229304   1.295   6.095   2.112 -0.6152 -0.1348  0.0748
 2630TIP3    H129305   1.275   6.004   2.135 -1.2767  0.4492  2.0753
 2630TIP3    H229306   1.372   6.116   2.164 -1.6451  0.9950  1.2265
 2631TIP3   OH229307   5.780   6.207   5.266  0.1123  0.5363  0.0555
 2631TIP3    H129308   5.869   6.237   5.249  0.6458 -0.9548  0.0901
 2631TIP3    H229309   5.784   6.112   5.257 -1.1892  0.3216  1.3204
 2632TIP3   OH229310   3.736   3.392   1.307  0.4162 -0.4241 -0.1063
 2632TIP3    H129311   3.792   3.322   1.342  0.6311  0.9992  2.7348
 2632TIP3    H229312   3.669   3.405   1.375  1.1950  2.9680  0.1969
 2633TIP3   OH229313   6.447   5.898  13.385 -0.7718  0.1250 -0.1879
 2633TIP3    H129314   6.477   5.880  13.474  1.0619  1.1866 -0.5282
 2633TIP3    H229315   6.357   5.866  13.382 -1.0197  0.4661  2.1745
 2634TIP3   OH229316   0.633   5.062   2.494 -0.1879 -0.4332  0.0453
 2634TIP3    H129317   0.621   5.039   2.586  0.5542 -2.2714 -0.2913
 2634TIP3    H229318   0.696   4.998   2.461 -0.4415  0.1972 -1.7505
 2635TIP3   OH229319   6.604   0.764   4.571 -0.4331  0.3000 -0.0254
 2635TIP3    H129320   6.528   0.750   4.627  0.2837 -0.1936  0.8391
 2635TIP3    H229321   6.634   0.675   4.549 -0.0849  0.4903 -0.3321
 2636TIP3   OH229322   6.074   6.387  14.494 -0.4873  0.7858  0.1219
 2636TIP3    H129323   6.123   6.334  14.556 -2.0575  0.3770  1.0686
 2636TIP3    H229324   6.115   6.371  14.410  0.0660 -0.6732  0.6529
 2637TIP3   OH229325   5.640   1.099  12.556 -0.1079 -0.0137  0.1895
 2637TIP3    H129326   5.661   1.089  12.649  3.2327 -0.0132 -0.4317
 2637TIP3    H229327   5.696   1.171  12.527 -2.1209  0.9482 -1.6000
 2638TIP3   OH229328   5.734   4.073  15.366 -0.1715  0.2262  0.1316
 2638TIP3    H129329   5.706   3.981  15.366  0.8309 -0.1360 -1.8878
 2638TIP3    H229330   5.652   4.122  15.362 -0.6962 -0.6941 -1.6285
 2639TIP3   OH229331   3.889   2.306  13.592 -0.4716  0.0058  0.3240
 2639TIP3    H129332   3.845   2.222  13.603 -0.5053  0.0399  0.4545
 2639TIP3    H229333   3.981   2.286  13.607 -0.6296  0.2524  1.8244
 2640TIP3   OH229334   1.698   2.483   3.156 -0.0272 -0.3268  0.6107
 2640TIP3    H129335   1.790   2.463   3.138  0.1804  1.0960 -0.0217
 2640TIP3    H229336   1.686   2.573   3.126 -2.3054 -1.3272 -1.8801
 2641TIP3   OH229337   1.536   3.524  16.947  0.2810  0.6099  0.2219
 2641TIP3    H129338   1.608   3.470  16.914 -0.6648 -1.9153  1.9395
 2641TIP3    H229339   1.474   3.461  16.982 -1.7236  2.8201  0.8825
 2642TIP3   OH229340   2.729   0.025  13.091  0.7018  0.3685 -0.1191
 2642TIP3    H129341   2.732  -0.034  13.166  2.5900 -0.7152 -0.9965
 2642TIP3    H229342   2.636   0.048  13.083  0.3466 -0.0052  2.0975
 2643TIP3   OH229343   6.239   4.637  12.422  0.4957  0.2548 -0.0077
 2643TIP3    H129344   6.215   4.718  12.466  1.1800  0.3505  0.2036
 2643TIP3    H229345   6.229   4.655  12.329 -1.8262 -0.2186  0.0914
 2644TIP3   OH229346   3.394   5.697   2.043 -0.1517 -0.2830  0.2140
 2644TIP3    H129347   3.347   5.683   1.960  2.7612 -0.8770 -1.4823
 2644TIP3    H229348   3.424   5.610   2.068  0.8011  0.1827  0.7294
 2645TIP3   OH229349   6.580   1.009  15.300 -0.3336 -0.5735  0.0654
 2645TIP3    H129350   6.586   1.010  15.205 -0.2267 -0.5352  0.0720
 2645TIP3    H229351   6.643   0.942  15.327 -0.8349 -1.0395  0.0747
 2646TIP3   OH229352   0.122   0.680   4.628 -0.4298 -0.0400 -0.3850
 2646TIP3    H129353   0.043   0.660   4.677 -0.0917 -2.6151 -0.7441
 2646TIP3    H229354   0.193   0.672   4.692 -0.1281 -1.8967 -0.9060
 2647TIP3   OH229355   2.484   1.961   1.592 -0.1305 -0.2013 -0.5685
 2647TIP3    H129356   2.404   1.933   1.547  0.3951 -0.2946 -1.4667
 2647TIP3    H229357   2.517   1.881   1.632 -0.5450 -0.1399 -0.0972
 2648TIP3   OH229358   6.221   3.965  12.603  0.2215 -0.2902  0.4389
 2648TIP3    H129359   6.218   3.932  12.693 -0.1032 -0.9950  0.1783
 2648TIP3    H229360   6.217   3.886  12.549 -3.0663  0.1845 -0.2554
 2649TIP3   OH229361   1.811   3.716   4.909 -0.2573 -0.2763 -0.1602
 2649TIP3    H129362   1.801   3.709   4.814 -0.2358 -0.7021 -0.1355
 2649TIP3    H229363   1.905   3.727   4.922 -0.2926  0.0817 -0.2029
 2650TIP3   OH229364   5.766   6.276   1.027 -0.1875  0.0006 -0.0805
 2650TIP3    H129365   5.776   6.189   0.989  0.6146 -0.2146  0.6056
 2650TIP3    H229366   5.675   6.278   1.058 -0.5703 -0.1519 -1.1481
 2651TIP3   OH229367   3.874   6.553  13.587 -0.2610 -0.2661 -0.0319
 2651TIP3    H129368   3.795   6.507  13.614 -0.7591  0.0128 -0.9517
 2651TIP3    H229369   3.939   6.485  13.574 -0.0975 -0.4321  1.5125
 2652TIP3   OH229370   4.837   5.527  16.580  0.9021 -0.8399 -0.2795
 2652TIP3    H129371   4.764   5.561  16.528  0.3857  1.2520  1.6644
 2652TIP3    H229372   4.830   5.431  16.571 -1.1224 -0.6481 -1.3563
 2653TIP3   OH229373   5.021   2.153   1.748  0.2289  0.2834 -0.0683
 2653TIP3    H129374   5.019   2.114   1.660  2.2724 -0.3804  0.1152
 2653TIP3    H229375   4.931   2.149   1.779 -0.1847 -1.3422 -1.3478
 2654TIP3   OH229376   5.232   3.710   4.575 -0.4018  0.5899 -0.5330
 2654TIP3    H129377   5.219   3.753   4.490 -1.4386  0.3359 -0.5142
 2654TIP3    H229378   5.207   3.619   4.560 -1.7543  0.7929  0.3258
 2655TIP3   OH229379   6.581   1.035  15.640  0.0737 -0.2870 -0.0529
 2655TIP3    H129380   6.509   0.972  15.645  1.0187 -1.3427  1.2954
 2655TIP3    H229381   6.644   0.994  15.580  0.7693 -0.7632  0.9654
 2656TIP3   OH229382   5.858   0.567  15.641  0.5430 -0.4390 -0.6626
 2656TIP3    H129383   5.876   0.646  15.589 -0.4995 -0.5175 -1.1623
 2656TIP3    H229384   5.881   0.592  15.730  1.5938 -0.0425 -1.0230
 2657TIP3   OH229385   4.357   4.726  16.139 -0.1256 -0.2770  0.2281
 2657TIP3    H129386   4.281   4.773  16.104 -1.5442 -2.3860  0.2475
 2657TIP3    H229387   4.319   4.659  16.196  1.9342  0.7874  3.0952
 2658TIP3   OH229388   2.637   4.118  11.007 -0.3416 -0.4381 -0.5146
 2658TIP3    H129389   2.664   4.185  11.070  1.4588 -1.4964 -0.0830
 2658TIP3    H229390   2.546   4.098  11.032 -0.8847  1.6633 -0.5575
 2659TIP3   OH229391   1.326   3.556   5.785 -0.2307 -0.0085  0.4033
 2659TIP3    H129392   1.419   3.580   5.780 -0.0475  0.0057  2.7579
 2659TIP3    H229393   1.323   3.466   5.751  0.8844 -0.4390  1.3387
 2660TIP3   OH229394   3.692   1.997   4.178  0.4069  0.3230 -0.1808
 2660TIP3    H129395   3.742   1.974   4.256  1.1575  0.8315 -0.4957
 2660TIP3    H229396   3.604   1.963   4.194  0.4955  0.5976  0.9751
 2661TIP3   OH229397   1.164   3.781   1.097 -0.3952  0.7308 -0.1105
 2661TIP3    H129398   1.077   3.794   1.134 -0.6104  1.0300 -0.7078
 2661TIP3    H229399   1.148   3.748   1.009  0.1112 -0.9639  0.3828
 2662TIP3   OH229400   3.722   2.372   1.345  0.3069  0.0196  0.4601
 2662TIP3    H129401   3.805   2.420   1.344  0.1414  0.3741  1.7725
 2662TIP3    H229402   3.677   2.401   1.266  1.7227 -0.7475 -0.6856
 2663TIP3   OH229403   6.391   2.465  16.932 -0.3834  0.1133  0.5238
 2663TIP3    H129404   6.429   2.504  16.853 -0.6280 -0.3484  0.1658
 2663TIP3    H229405   6.374   2.374  16.907 -1.5663  0.2631  0.7151
 2664TIP3   OH229406   4.695   0.926  16.635  0.0275 -0.0285  0.3594
 2664TIP3    H129407   4.787   0.918  16.611  0.1723 -1.4508  1.3276
 2664TIP3    H229408   4.696   0.951  16.728 -0.5298 -1.9355  0.9257
 2665TIP3   OH229409   5.869   4.310   3.836  0.1730  0.2319  0.1365
 2665TIP3    H129410   5.845   4.218   3.850 -0.7183  0.6725  1.8773
 2665TIP3    H229411   5.933   4.329   3.905  1.1735  0.6610 -0.8698
 2666TIP3   OH229412   6.251   0.496   2.076 -0.2650 -0.3108  0.5432
 2666TIP3    H129413   6.263   0.579   2.029 -3.4110  0.1172  0.2528
 2666TIP3    H229414   6.198   0.443   2.016 -0.3713 -1.5923  1.7298
 2667TIP3   OH229415   6.336   0.824   2.038  0.9149  0.4545  0.0147
 2667TIP3    H129416   6.289   0.814   1.955 -0.2202  0.2145  0.6576
 2667TIP3    H229417   6.356   0.917   2.043  3.6770  0.0860 -1.8913
 2668TIP3   OH229418   2.753   2.734  14.305  0.1142  0.0935  0.2334
 2668TIP3    H129419   2.766   2.642  14.326 -0.6567 -0.0245  0.2434
 2668TIP3    H229420   2.814   2.752  14.233  1.3748 -0.0087  1.2501
 2669TIP3   OH229421   1.761   0.124  12.801 -0.1551  0.0117 -0.2046
 2669TIP3    H129422   1.780   0.036  12.770 -1.1541  0.0519 -0.9507
 2669TIP3    H229423   1.838   0.175  12.775  0.0797 -0.4711 -0.4689
 2670TIP3   OH229424   2.211   0.976   1.716 -0.3702 -0.0779 -0.0758
 2670TIP3    H129425   2.275   1.023   1.662 -0.1852 -1.6225 -1.2711
 2670TIP3    H229426   2.129   0.983   1.668 -0.6475  0.1580  0.4238
 2671TIP3   OH229427   6.076   2.489  11.828  0.1321 -0.1062  0.2054
 2671TIP3    H129428   6.090   2.394  11.834 -0.8276 -0.2172  0.8587
 2671TIP3    H229429   6.155   2.526  11.866  0.0817 -0.6708  0.8994
 2672TIP3   OH229430   2.441   3.614  16.275 -0.3190  0.0058  0.3440
 2672TIP3    H129431   2.495   3.547  16.316 -1.9919 -0.8033  1.2696
 2672TIP3    H229432   2.392   3.568  16.207 -0.7553  0.4798  0.3285
 2673TIP3   OH229433   2.098   2.912  13.244  0.3035  0.0054  0.5569
 2673TIP3    H129434   2.160   2.952  13.306  0.5188  1.5172 -0.5649
 2673TIP3    H229435   2.153   2.864  13.183  0.1389 -0.9499  1.1456
 2674TIP3   OH229436   3.192   4.905   1.599  0.1975  0.2250  0.2291
 2674TIP3    H129437   3.252   4.940   1.533  0.6803 -0.8447  0.0808
 2674TIP3    H229438   3.241   4.911   1.681  0.5246 -0.6524  0.1073
 2675TIP3   OH229439   2.683   0.335  16.871  0.6206  0.2408  0.0564
 2675TIP3    H129440   2.708   0.253  16.913  0.0304 -1.0435 -1.9592
 2675TIP3    H229441   2.713   0.326  16.780  0.9819  2.4795 -0.1036
 2676TIP3   OH229442   0.655   2.995   0.646 -0.7047  0.1112 -0.3658
 2676TIP3    H129443   0.641   3.045   0.565  0.0057  2.9921  1.1683
 2676TIP3    H229444   0.639   3.058   0.716  2.0039 -1.3184  1.7109
 2677TIP3   OH229445   2.805   4.705  10.854  0.1043 -0.4904 -0.1827
 2677TIP3    H129446   2.855   4.717  10.773 -2.2711 -0.4330 -1.7772
 2677TIP3    H229447   2.822   4.784  10.905 -0.1486  0.6272 -1.7382
 2678TIP3   OH229448   5.475   5.979  12.972  0.6064 -0.0659 -0.2765
 2678TIP3    H129449   5.394   6.027  12.989  0.6465  0.2734 -1.0161
 2678TIP3    H229450   5.477   5.967  12.878  0.0910 -2.4328 -0.0344
 2679TIP3   OH229451   5.820   2.940   3.236 -0.0746 -0.4708 -0.6634
 2679TIP3    H129452   5.913   2.915   3.242 -0.1268 -0.4623  0.1974
 2679TIP3    H229453   5.789   2.938   3.326 -1.0335 -0.9069 -0.9951
 2680TIP3   OH229454   3.663   3.026   2.868  0.5589  0.2899 -0.5730
 2680TIP3    H129455   3.587   3.011   2.812  1.1032 -1.5625 -0.8936
 2680TIP3    H229456   3.626   3.045   2.954 -0.2783  3.0524 -1.4593
 2681TIP3   OH229457   5.459   1.360   2.482  0.1914 -0.4947 -0.0283
 2681TIP3    H129458   5.420   1.447   2.473  1.8260  0.1229 -1.5052
 2681TIP3    H229459   5.423   1.310   2.408  0.1118 -0.7533  0.1833
 2682TIP3   OH229460   4.087   5.292   0.971  0.0575  0.2679  0.4530
 2682TIP3    H129461   4.028   5.359   0.935 -0.1815  0.7713  1.7267
 2682TIP3    H229462   4.106   5.322   1.060  1.9879 -0.0475  0.2024
 2683TIP3   OH229463   1.402   6.395  14.501 -0.2002  0.4158  0.2420
 2683TIP3    H129464   1.484   6.350  14.519 -2.0427 -3.9939 -1.0789
 2683TIP3    H229465   1.345   6.373  14.576 -1.1322  0.6266 -0.3827
 2684TIP3   OH229466   6.241   6.159  16.038 -0.2628  0.1387  0.5288
 2684TIP3    H129467   6.146   6.159  16.027 -0.4224 -3.3083  0.7868
 2684TIP3    H229468   6.254   6.135  16.130  0.9468  2.8179  1.1513
 2685TIP3   OH229469   0.525   2.362  13.425  0.5971 -0.5139 -0.1277
 2685TIP3    H129470   0.479   2.278  13.430 -1.1216  0.4604  0.9405
 2685TIP3    H229471   0.554   2.380  13.514  1.6812 -0.3207 -0.4947
 2686TIP3   OH229472   3.558   3.894  13.770  0.0110 -0.2068  0.3246
 2686TIP3    H129473   3.529   3.806  13.744 -0.4737 -0.0786  0.4241
 2686TIP3    H229474   3.637   3.909  13.719 -0.4833 -0.2840 -0.4675
 2687TIP3   OH229475   6.659   0.177   1.268  0.2615  0.3094 -0.1099
 2687TIP3    H129476   6.727   0.201   1.330  1.7611 -0.6318 -1.3265
 2687TIP3    H229477   6.611   0.258   1.251  0.8537  0.9068  1.0183
 2688TIP3   OH229478   1.651   0.857  13.103  0.3408 -0.0489  0.3256
 2688TIP3    H129479   1.571   0.806  13.110  1.2677 -2.1112 -2.4453
 2688TIP3    H229480   1.622   0.948  13.098 -1.9576 -0.8029 -1.7960
 2689TIP3   OH229481   0.841   1.538   3.746 -0.3487 -0.1453  0.3550
 2689TIP3    H129482   0.829   1.622   3.790  1.3179  1.0798 -1.3658
 2689TIP3    H229483   0.878   1.561   3.661  0.6718 -2.6572  0.0400
 2690TIP3   OH229484   6.235   2.452  12.480 -0.2320 -0.3888 -0.5922
 2690TIP3    H129485   6.302   2.518  12.461 -0.1709  0.1657  1.2850
 2690TIP3    H229486   6.272   2.370  12.448  1.3464 -0.0811  0.3104
 2691TIP3   OH229487   4.177   1.923   3.603  0.0419  0.0645  0.3004
 2691TIP3    H129488   4.189   1.946   3.511  2.3148  1.3887  0.8411
 2691TIP3    H229489   4.089   1.955   3.624 -0.6898 -0.6435 -1.4715
 2692TIP3   OH229490   1.949   0.810   3.265 -0.0690  0.3539 -0.3449
 2692TIP3    H129491   1.959   0.794   3.358  0.6691  1.0783 -0.2824
 2692TIP3    H229492   2.034   0.787   3.227 -0.3234  0.1818 -0.8219
 2693TIP3   OH229493   3.566   3.487   4.689  0.1462 -0.2550 -0.0366
 2693TIP3    H129494   3.512   3.543   4.633  0.6935  1.5782  1.1928
 2693TIP3    H229495   3.636   3.544   4.721  0.2511 -1.3996  1.9551
 2694TIP3   OH229496   2.019   2.740   2.073 -0.2926 -0.2780 -0.0947
 2694TIP3    H129497   2.102   2.700   2.100 -1.6450 -1.6088  2.4499
 2694TIP3    H229498   1.989   2.787   2.150 -2.7356 -1.3024 -0.3479
 2695TIP3   OH229499   4.386   0.393  14.600 -0.0061 -0.0507 -0.4532
 2695TIP3    H129500   4.361   0.469  14.548 -0.3710  0.1096 -0.0557
 2695TIP3    H229501   4.304   0.346  14.615 -0.3363  1.0885  1.8442
 2696TIP3   OH229502   4.912   0.857   4.595 -0.0273  0.0561  0.6492
 2696TIP3    H129503   5.003   0.854   4.568 -0.4108 -1.3195 -0.6836
 2696TIP3    H229504   4.867   0.903   4.524 -0.5923 -0.7689  0.4522
 2697TIP3   OH229505   1.503   2.746   1.535  0.6417 -0.3214  0.5396
 2697TIP3    H129506   1.528   2.754   1.628 -0.5004  3.2965  0.6983
 2697TIP3    H229507   1.583   2.769   1.487  0.9129 -1.0449  0.6300
 2698TIP3   OH229508   0.647   1.074   1.491 -0.1737 -0.1899 -0.4340
 2698TIP3    H129509   0.577   1.139   1.486  0.0479 -0.0071 -1.6368
 2698TIP3    H229510   0.688   1.089   1.576 -2.3237 -1.1018  0.8292
 2699TIP3   OH229511   4.905   4.414  16.612 -0.1619  0.5334  0.3524
 2699TIP3    H129512   4.811   4.428  16.626 -0.2369  0.4545 -0.0679
 2699TIP3    H229513   4.937   4.500  16.586  0.0938  0.8336  1.5888
 2700TIP3   OH229514   1.217   6.585   0.615 -0.0937 -1.0829  0.1527
 2700TIP3    H129515   1.288   6.648   0.620 -0.6308 -0.4906  0.5287
 2700TIP3    H229516   1.147   6.631   0.569 -0.6686 -1.2204  0.8655
 2701TIP3   OH229517   5.996   1.473  10.246 -0.3180 -0.1561  0.0461
 2701TIP3    H129518   6.037   1.387  10.241 -2.3271 -1.1155 -1.6094
 2701TIP3    H229519   6.054   1.531  10.196  0.5874 -0.7522  0.4014
 2702TIP3   OH229520   3.974   1.263  14.103  0.5155 -0.4608 -0.0610
 2702TIP3    H129521   4.022   1.182  14.082 -0.1926 -0.8786 -0.1061
 2702TIP3    H229522   3.882   1.237  14.100  0.2999  0.2254  0.4792
 2703TIP3   OH229523   6.662   1.267   2.170 -0.6100 -0.7727 -0.1225
 2703TIP3    H129524   6.585   1.303   2.214 -0.3180 -0.0569 -0.1740
 2703TIP3    H229525   6.720   1.342   2.159  0.0857 -1.2942 -0.1076
 2704TIP3   OH229526   0.617   1.717  16.456  0.0157 -0.0501  0.5850
 2704TIP3    H129527   0.672   1.784  16.415  0.0003  0.5401  1.4840
 2704TIP3    H229528   0.610   1.647  16.391  0.2955  0.6882 -0.2538
 2705TIP3   OH229529   1.640   2.455   0.396  0.2588  0.2362  0.1805
 2705TIP3    H129530   1.549   2.485   0.387 -0.0915 -0.4486  1.1865
 2705TIP3    H229531   1.654   2.400   0.320 -0.5935 -0.6212  0.6162
 2706TIP3   OH229532   6.332   5.168   2.101  0.1539 -0.1697 -0.3083
 2706TIP3    H129533   6.368   5.222   2.031  1.0347 -1.6124 -1.0275
 2706TIP3    H229534   6.336   5.223   2.179  1.9980  0.4471 -0.7953
 2707TIP3   OH229535   0.684   2.999   3.915  0.4294 -0.4391  0.3280
 2707TIP3    H129536   0.644   2.933   3.858  1.7685 -0.5848 -0.5037
 2707TIP3    H229537   0.632   3.078   3.903  0.3049 -0.6599 -0.6010
 2708TIP3   OH229538   4.327   4.849   4.766  0.5950  0.4169 -0.0013
 2708TIP3    H129539   4.250   4.839   4.822 -1.3603  2.7562 -2.0079
 2708TIP3    H229540   4.319   4.779   4.701 -0.6996  1.4438 -1.0112
 2709TIP3   OH229541   3.874   0.784   4.188 -0.4611 -0.1535 -0.3102
 2709TIP3    H129542   3.912   0.769   4.102  0.4149  0.5506 -0.0685
 2709TIP3    H229543   3.871   0.697   4.229 -1.5468 -0.6003 -1.2923
 2710TIP3   OH229544   2.064   0.025  15.910  0.0250 -0.4574 -0.1212
 2710TIP3    H129545   2.079   0.050  15.818  1.5881 -1.1427 -0.0858
 2710TIP3    H229546   2.120  -0.052  15.923 -0.9238 -0.9636  1.1472
 2711TIP3   OH229547   0.825   4.613   3.788  0.1352  0.2245 -0.0812
 2711TIP3    H129548   0.852   4.555   3.717  1.8379  2.1643 -1.1503
 2711TIP3    H229549   0.903   4.666   3.806 -1.1418  1.7506  1.2548
 2712TIP3   OH229550   4.246   2.668  11.056 -0.0539  0.2042  0.3134
 2712TIP3    H129551   4.154   2.642  11.064 -0.5647  2.0874  1.0991
 2712TIP3    H229552   4.247   2.730  10.983  0.5626  0.3183  0.4152
 2713TIP3   OH229553   3.065   6.339  17.022  0.1212  0.1853 -0.2353
 2713TIP3    H129554   3.037   6.268  16.965 -0.6477  0.3502 -0.0755
 2713TIP3    H229555   3.150   6.311  17.056  1.2176  0.6570 -2.4575
 2714TIP3   OH229556   0.502   0.948  16.404 -0.4243  0.0150  0.2831
 2714TIP3    H129557   0.496   1.040  16.378  0.3305  0.1763  0.6355
 2714TIP3    H229558   0.413   0.914  16.396 -0.2018 -0.0818 -2.9132
 2715TIP3   OH229559   2.282   6.401  11.686 -0.2184 -0.6294 -0.6292
 2715TIP3    H129560   2.337   6.453  11.627  1.3626 -0.8903  0.5488
 2715TIP3    H229561   2.227   6.349  11.628 -0.3700  0.8143 -1.8485
 2716TIP3   OH229562   3.676   4.006  15.265 -0.2693 -0.2159 -0.3167
 2716TIP3    H129563   3.637   4.075  15.318  0.5853 -0.1342  0.2363
 2716TIP3    H229564   3.603   3.952  15.236 -0.9091  0.7066 -0.4413
 2717TIP3   OH229565   2.547   3.658  11.695 -0.1937  0.3759  0.4007
 2717TIP3    H129566   2.524   3.749  11.676  0.1458  0.0104 -2.1742
 2717TIP3    H229567   2.493   3.634  11.770 -1.9060  2.0535 -0.2306
 2718TIP3   OH229568   4.404   6.127  12.406 -0.0466  0.2415  0.0541
 2718TIP3    H129569   4.485   6.086  12.436 -1.2513 -1.6798  0.8435
 2718TIP3    H229570   4.348   6.054  12.380 -1.7048  1.4959 -0.0573
 2719TIP3   OH229571   0.281   3.514   1.901 -0.0275  0.0933 -0.7948
 2719TIP3    H129572   0.310   3.476   1.818 -3.2968 -0.5920 -1.7545
 2719TIP3    H229573   0.250   3.439   1.952 -0.6715  0.7928 -0.1349
 2720TIP3   OH229574   0.919   1.190  13.167 -0.3104  0.0793 -0.4199
 2720TIP3    H129575   0.841   1.222  13.122 -1.5431 -1.0200  0.8263
 2720TIP3    H229576   0.933   1.253  13.239  0.8388  1.0633 -1.4521
 2721TIP3   OH229577   3.048   4.182  12.016  0.1750  0.3382  0.2001
 2721TIP3    H129578   2.968   4.185  11.963 -0.2146 -0.1517  0.7583
 2721TIP3    H229579   3.020   4.144  12.099 -0.0384  4.3055  2.1685
 2722TIP3   OH229580   5.107   6.002   2.751 -0.1037 -0.3024 -0.2206
 2722TIP3    H129581   5.019   6.026   2.723 -0.3918 -1.3889 -0.3206
 2722TIP3    H229582   5.143   6.081   2.791 -0.6627  0.5113 -1.2796
 2723TIP3   OH229583   5.565   1.916   4.818 -0.1544  0.2807  0.5412
 2723TIP3    H129584   5.532   2.002   4.844 -0.1558 -0.4112  3.0338
 2723TIP3    H229585   5.488   1.868   4.789 -0.6153  0.2655  1.7252
 2724TIP3   OH229586   3.083   3.361  12.580  0.6205  0.3792 -0.3824
 2724TIP3    H129587   3.090   3.425  12.508 -1.2366  0.3637 -0.6116
 2724TIP3    H229588   3.009   3.391  12.632  0.5875 -0.8337  0.3025
 2725TIP3   OH229589   2.941   1.071   1.816 -1.1714 -0.1372  0.2936
 2725TIP3    H129590   2.908   0.982   1.805 -1.6725  0.2064 -1.2831
 2725TIP3    H229591   3.036   1.061   1.826 -0.7729 -0.7130 -3.1013
 2726TIP3   OH229592   2.213   2.764   5.327  0.1665 -0.0393  0.3887
 2726TIP3    H129593   2.199   2.673   5.353  0.4167 -0.0028  0.6658
 2726TIP3    H229594   2.199   2.814   5.407  1.3051  0.0425  0.5625
 2727TIP3   OH229595   3.825   3.072  17.194 -0.2486  0.2639  0.0082
 2727TIP3    H129596   3.793   2.984  17.214 -0.6590  0.4333  0.1043
 2727TIP3    H229597   3.918   3.070  17.217 -0.3132 -0.0687  0.2410
 2728TIP3   OH229598   4.914   6.303   4.571 -0.0330 -0.3190 -0.0613
 2728TIP3    H129599   4.869   6.343   4.645 -0.4592  0.3278 -0.6585
 2728TIP3    H229600   4.984   6.364   4.549 -0.2353 -0.2463 -0.5181
 2729TIP3   OH229601   2.401   6.095  16.684  0.3985  0.5188 -0.1720
 2729TIP3    H129602   2.432   6.148  16.610  0.4445  1.0690  0.2371
 2729TIP3    H229603   2.336   6.036  16.645  1.1102  0.1403 -0.8279
 2730TIP3   OH229604   0.485   0.907  12.344 -0.2721 -0.3070 -0.6358
 2730TIP3    H129605   0.537   0.948  12.275  0.4110  1.7182  0.9654
 2730TIP3    H229606   0.521   0.819  12.354  0.8809  0.0461 -1.5539
 2731TIP3   OH229607   2.099   0.862  13.928  0.5202  0.0648 -0.1769
 2731TIP3    H129608   2.142   0.909  13.999 -0.3196 -0.0671  0.4314
 2731TIP3    H229609   2.006   0.867  13.949  0.4107 -2.2461  0.1294
 2732TIP3   OH229610   6.272   3.823  12.836 -0.0401  0.2277 -0.4713
 2732TIP3    H129611   6.210   3.756  12.865 -1.6367  1.5477 -0.6629
 2732TIP3    H229612   6.346   3.774  12.802 -0.3187 -1.4129  1.1109
 2733TIP3   OH229613   2.415   6.349  12.765  0.0813 -0.6577 -0.1494
 2733TIP3    H129614   2.401   6.296  12.843  1.5399  0.5173  0.9798
 2733TIP3    H229615   2.509   6.341  12.747  0.0553  0.3428 -0.8269
 2734TIP3   OH229616   1.483   0.387  15.209 -0.1007  0.1154  0.4276
 2734TIP3    H129617   1.444   0.331  15.142 -0.5386 -1.0237  1.6028
 2734TIP3    H229618   1.531   0.454  15.159 -0.0160 -0.9653 -1.0013
 2735TIP3   OH229619   3.263   3.709  12.035 -0.3890 -0.5586  0.0689
 2735TIP3    H129620   3.305   3.659  11.965  0.3253 -0.8611  0.6989
 2735TIP3    H229621   3.178   3.733  12.000 -0.5406 -1.7829 -0.4379
 2736TIP3   OH229622   1.596   6.128  16.159  0.5270  0.5505 -0.4585
 2736TIP3    H129623   1.555   6.052  16.118 -0.0775 -0.3565  1.7320
 2736TIP3    H229624   1.596   6.195  16.090 -1.8795 -0.3859 -1.4787
 2737TIP3   OH229625   4.269   5.413  12.641 -0.3827  0.1160  0.4439
 2737TIP3    H129626   4.276   5.382  12.732 -2.0782 -0.9656  0.2502
 2737TIP3    H229627   4.347   5.377  12.598  0.2108  0.2725  1.3523
 2738TIP3   OH229628   0.380   6.738   3.277 -0.4998 -0.0523  0.1744
 2738TIP3    H129629   0.322   6.683   3.330 -0.4188  0.6458  1.0127
 2738TIP3    H229630   0.321   6.798   3.232 -0.4424  0.7493  1.1346
 2739TIP3   OH229631   1.475   4.409   6.276 -0.1970  0.2737  0.0768
 2739TIP3    H129632   1.392   4.383   6.315  0.2842 -2.9710 -0.7969
 2739TIP3    H229633   1.523   4.452   6.348 -1.6501 -0.0392  1.2776
 2740TIP3   OH229634   1.393   0.712   5.942  0.5312 -0.0763  0.3027
 2740TIP3    H129635   1.431   0.703   5.855 -1.3980  0.9088 -0.7223
 2740TIP3    H229636   1.433   0.642   5.994  1.4419 -0.9327 -1.4678
 2741TIP3   OH229637   4.404   1.048   0.443  0.2665  0.2568 -0.4055
 2741TIP3    H129638   4.330   1.106   0.423  0.6885  0.9950  0.1542
 2741TIP3    H229639   4.367   0.960   0.439 -0.8286  0.6500  0.6182
 2742TIP3   OH229640   5.078   5.831  13.179 -0.4455 -0.2866  0.4670
 2742TIP3    H129641   5.049   5.921  13.163 -0.2322 -0.4307 -0.8358
 2742TIP3    H229642   5.093   5.827  13.273 -0.1775  1.1248  0.5058
 2743TIP3   OH229643   6.497   4.743   2.413 -0.2691 -0.0636  0.1702
 2743TIP3    H129644   6.579   4.764   2.368  1.7545 -0.4359  3.3788
 2743TIP3    H229645   6.509   4.654   2.445 -1.5163  0.2431  1.5951
 2744TIP3   OH229646   0.568   4.781  15.224  0.0919  0.2977  0.5593
 2744TIP3    H129647   0.514   4.859  15.210 -0.7843 -0.0040  2.0929
 2744TIP3    H229648   0.515   4.709  15.188 -0.0965  0.1300  1.1666
 2745TIP3   OH229649   5.795   5.404  15.178 -0.4542 -0.9221 -0.1096
 2745TIP3    H129650   5.801   5.308  15.174  0.7405 -0.8280 -0.9103
 2745TIP3    H229651   5.815   5.426  15.269 -0.0331 -1.3927 -0.0865
 2746TIP3   OH229652   1.880   0.951  10.873  0.9053  0.2435 -0.3416
 2746TIP3    H129653   1.952   0.953  10.937  0.2316  1.8903  0.4214
 2746TIP3    H229654   1.806   0.916  10.922  1.3132 -2.3703 -1.3804
 2747TIP3   OH229655   5.916   6.302  15.096  0.1649  0.3695 -0.2111
 2747TIP3    H129656   5.856   6.291  15.170  1.1150 -0.2755  0.4980
 2747TIP3    H229657   5.865   6.277  15.019 -0.4122 -0.4160  0.4038
 2748TIP3   OH229658   1.183   6.314   1.301 -0.2252 -0.2776 -0.1212
 2748TIP3    H129659   1.255   6.279   1.250 -0.9293 -0.8620 -0.7472
 2748TIP3    H229660   1.107   6.263   1.273 -0.8355  0.1517  0.7013
 2749TIP3   OH229661   3.865   0.861  13.150  0.0307 -0.0285  0.2825
 2749TIP3    H129662   3.953   0.876  13.187  0.0029 -1.2736  0.9056
 2749TIP3    H229663   3.877   0.868  13.056  1.0155 -1.0785  0.2999
 2750TIP3   OH229664   2.269   0.896   2.411 -0.5446  0.2197 -0.3097
 2750TIP3    H129665   2.239   0.818   2.457  1.1103  0.8108  1.9446
 2750TIP3    H229666   2.317   0.946   2.477  0.3645  2.0671 -2.2438
 2751TIP3   OH229667   0.981   4.343   4.752  0.0574  0.6346 -0.5136
 2751TIP3    H129668   1.061   4.294   4.731  0.9580  0.9771  1.8543
 2751TIP3    H229669   0.910   4.290   4.715  1.1452 -1.3702  0.1440
 2752TIP3   OH229670   4.402   3.926  17.112 -0.1341 -0.2804 -0.4359
 2752TIP3    H129671   4.475   3.918  17.173 -0.3022 -2.2776 -0.4331
 2752TIP3    H229672   4.338   3.862  17.143 -1.5162  0.8061 -0.9554
 2753TIP3   OH229673   1.028   2.115  15.645  0.0926 -0.1762 -0.1296
 2753TIP3    H129674   1.121   2.114  15.667  0.1161 -1.6366 -0.1744
 2753TIP3    H229675   0.984   2.137  15.728  0.4774  1.1421 -0.2483
 2754TIP3   OH229676   6.574   2.422  10.789  0.3805  0.3843 -0.4280
 2754TIP3    H129677   6.620   2.440  10.871 -1.6104  3.5294  0.1507
 2754TIP3    H229678   6.639   2.436  10.721  1.5657 -0.4136  0.4993
 2755TIP3   OH229679   2.482   0.518  15.586 -0.1015  0.1527  0.0326
 2755TIP3    H129680   2.438   0.598  15.558 -0.3452  0.2924  0.7930
 2755TIP3    H229681   2.433   0.447  15.545 -1.0454  0.3045  0.8567
 2756TIP3   OH229682   6.583   6.703  16.065 -0.1038 -0.0741 -0.2786
 2756TIP3    H129683   6.533   6.633  16.024  2.6488 -0.8038 -2.7341
 2756TIP3    H229684   6.574   6.777  16.006  0.2900  0.3520  0.1853
 2757TIP3   OH229685   2.993   3.272  13.233 -0.1516  0.5819 -0.0243
 2757TIP3    H129686   2.940   3.264  13.154 -0.2177  0.1254  0.0638
 2757TIP3    H229687   3.082   3.284  13.201 -0.0925 -0.2331 -0.1665
 2758TIP3   OH229688   6.022   2.198   2.840  0.2112  0.4316  0.1211
 2758TIP3    H129689   6.084   2.198   2.767  0.7560  1.4689  0.5632
 2758TIP3    H229690   6.075   2.179   2.917 -0.8879 -5.1338 -0.0362
 2759TIP3   OH229691   1.051   0.929   3.760 -0.1387  0.0355  0.0708
 2759TIP3    H129692   1.018   1.019   3.763  1.6926  0.7388  0.1287
 2759TIP3    H229693   1.066   0.913   3.667  1.9928  0.7817  0.2284
 2760TIP3   OH229694   1.563   4.608   4.756 -0.0193  0.1123  0.1164
 2760TIP3    H129695   1.483   4.579   4.712 -0.0341  0.9954 -0.4529
 2760TIP3    H229696   1.600   4.527   4.792 -0.3342 -0.5390 -0.9690
 2761TIP3   OH229697   6.517   3.059   4.632  0.1018  0.1190  0.2681
 2761TIP3    H129698   6.521   3.151   4.658  0.3421  0.1697  0.0517
 2761TIP3    H229699   6.472   3.016   4.705 -1.4095  0.6543 -0.3175
 2762TIP3   OH229700   4.974   3.630   1.772 -0.0837 -0.1258  0.4074
 2762TIP3    H129701   5.025   3.698   1.816  1.0031 -1.3665  1.1634
 2762TIP3    H229702   4.934   3.580   1.844  0.1110 -0.9945 -0.0800
 2763TIP3   OH229703   3.936   5.778  13.023  0.3617  0.4359 -0.5296
 2763TIP3    H129704   3.897   5.693  13.006  2.3073 -0.6834  0.3177
 2763TIP3    H229705   4.004   5.787  12.957  0.6501  1.0081 -0.1638
 2764TIP3   OH229706   3.932   3.149   6.198  0.2724  0.2195 -0.1239
 2764TIP3    H129707   3.851   3.198   6.212 -0.1436 -0.7639  1.1544
 2764TIP3    H229708   3.915   3.063   6.236  1.7461 -0.1779 -0.2828
 2765TIP3   OH229709   1.760   0.597   2.738 -0.2850  0.2745  0.1167
 2765TIP3    H129710   1.769   0.515   2.689  2.5210  0.5893 -0.0602
 2765TIP3    H229711   1.698   0.648   2.687 -0.6806 -1.0333 -0.7734
 2766TIP3   OH229712   0.860   6.700   5.056 -0.4190 -0.5202  0.4024
 2766TIP3    H129713   0.841   6.664   5.143 -1.6629 -1.5132 -0.2506
 2766TIP3    H229714   0.774   6.724   5.021  0.1460  0.5629 -0.2723
 2767TIP3   OH229715   5.687   6.160  11.612  0.3807  0.1389 -0.1592
 2767TIP3    H129716   5.762   6.219  11.621  0.3069 -0.0024  2.0237
 2767TIP3    H229717   5.622   6.210  11.564  0.7585  1.4140  0.6063
 2768TIP3   OH229718   2.404   3.124   5.479 -0.2400 -0.1477 -0.0346
 2768TIP3    H129719   2.377   3.049   5.532  2.0307 -0.2601  1.0558
 2768TIP3    H229720   2.468   3.088   5.417  0.2699  0.7402 -0.0419
 2769TIP3   OH229721   0.916   5.136  14.794  0.0406 -0.0703 -0.0142
 2769TIP3    H129722   0.978   5.078  14.837 -0.8496 -1.6483 -0.7963
 2769TIP3    H229723   0.837   5.130  14.847 -0.0788  0.3938 -0.1370
 2770TIP3   OH229724   0.650   5.223   4.505 -0.1744  0.0088 -0.2363
 2770TIP3    H129725   0.735   5.254   4.538 -0.2722  1.8212 -1.5246
 2770TIP3    H229726   0.586   5.262   4.564 -0.1885  0.1529 -0.3467
 2771TIP3   OH229727   6.749   2.788   1.821 -0.3773  0.3487 -0.4518
 2771TIP3    H129728   6.800   2.747   1.751 -0.3920  0.3300 -0.4516
 2771TIP3    H229729   6.726   2.874   1.788  1.8482  1.4191  0.5094
 2772TIP3   OH229730   0.372   4.097   4.631 -0.1682 -0.1608 -0.5670
 2772TIP3    H129731   0.351   4.138   4.547  2.0572  0.1819 -1.0225
 2772TIP3    H229732   0.298   4.119   4.687 -2.0332 -0.9629 -2.5864
 2773TIP3   OH229733   3.308   3.922   4.601 -0.0117 -0.1611  0.1963
 2773TIP3    H129734   3.358   3.992   4.560 -0.3947 -0.1587 -0.2771
 2773TIP3    H229735   3.221   3.959   4.615 -0.6058 -0.9206 -1.2296
 2774TIP3   OH229736   0.520   0.100  15.757  0.1756  0.4330 -0.3509
 2774TIP3    H129737   0.602   0.147  15.742  1.8211 -2.3294 -0.6956
 2774TIP3    H229738   0.489   0.078  15.670  0.0116 -0.0367 -0.1764
 2775TIP3   OH229739   5.865   3.953  13.538 -0.8261 -0.2597 -0.3149
 2775TIP3    H129740   5.875   3.878  13.479  0.2536 -0.2175 -0.2153
 2775TIP3    H229741   5.795   4.005  13.499 -0.1735 -0.2592 -1.5507
 2776TIP3   OH229742   4.673   4.684   0.734 -0.6586  0.0833  0.7122
 2776TIP3    H129743   4.748   4.716   0.784 -0.7081  0.6746  0.4155
 2776TIP3    H229744   4.678   4.731   0.651 -0.2155 -1.3272 -0.1060
 2777TIP3   OH229745   1.114   6.342  17.273 -0.4744 -0.5510  0.2280
 2777TIP3    H129746   1.115   6.272  17.338 -0.8076  0.3107  1.1904
 2777TIP3    H229747   1.021   6.358  17.257 -0.5165  1.3684  1.9539
 2778TIP3   OH229748   3.439   6.752  13.186 -0.3421  0.1134  0.3170
 2778TIP3    H129749   3.487   6.684  13.139 -2.2741 -0.5583 -0.8318
 2778TIP3    H229750   3.491   6.769  13.264  1.5837 -0.7148 -0.7162
 2779TIP3   OH229751   4.582   2.597   3.070  0.2666  0.1638  0.8529
 2779TIP3    H129752   4.628   2.525   3.026 -0.2664  0.4434 -0.2080
 2779TIP3    H229753   4.651   2.643   3.118  1.4278  1.3798 -1.7900
 2780TIP3   OH229754   2.140   5.334   1.050  0.3410 -0.6028  0.4392
 2780TIP3    H129755   2.161   5.412   0.998 -1.8284  0.7053  1.3485
 2780TIP3    H229756   2.137   5.263   0.986  0.7037  0.3862 -0.7272
 2781TIP3   OH229757   0.889   6.080  17.088 -0.7966 -0.3632  0.2667
 2781TIP3    H129758   0.852   6.144  17.149 -0.8590  0.2515 -0.4020
 2781TIP3    H229759   0.856   5.996  17.119 -2.9408  0.1706 -0.3894
 2782TIP3   OH229760   0.112   5.489   2.302 -0.4297 -0.3201 -0.3723
 2782TIP3    H129761   0.198   5.522   2.327 -0.2261 -1.3062  0.2906
 2782TIP3    H229762   0.114   5.396   2.326 -0.4710 -1.2258 -3.3797
 2783TIP3   OH229763   1.805   0.020  14.725 -0.2861 -0.5441  0.3370
 2783TIP3    H129764   1.788   0.114  14.727 -0.2398 -0.5452  0.8407
 2783TIP3    H229765   1.723  -0.018  14.692 -0.3793 -0.3468  0.3364
 2784TIP3   OH229766   0.574   5.829   2.587 -0.5456 -0.0155 -0.5355
 2784TIP3    H129767   0.651   5.827   2.530  0.2593 -1.5747  0.5410
 2784TIP3    H229768   0.586   5.906   2.642 -1.3738  1.5651 -2.4521
 2785TIP3   OH229769   6.586   3.114   5.319  0.1105 -0.0321 -0.1974
 2785TIP3    H129770   6.559   3.102   5.228  0.8732 -1.0887 -0.2960
 2785TIP3    H229771   6.512   3.160   5.360 -1.8674 -2.7419 -0.4840
 2786TIP3   OH229772   4.063   5.167  15.691 -0.2474  0.2263 -0.3374
 2786TIP3    H129773   4.060   5.262  15.685 -1.2407  0.3476  1.4892
 2786TIP3    H229774   3.989   5.137  15.638  0.4989  0.4171 -1.5058
 2787TIP3   OH229775   6.757   5.184   5.866  0.4098  0.0244  0.7683
 2787TIP3    H129776   6.766   5.216   5.776 -2.4658 -3.9341 -1.2554
 2787TIP3    H229777   6.692   5.243   5.905  0.5981  0.9535 -0.2577
 2788TIP3   OH229778   2.934   6.102  15.696  0.2059  0.0848 -0.5052
 2788TIP3    H129779   2.882   6.118  15.775 -0.7646 -2.9144 -0.3715
 2788TIP3    H229780   3.020   6.075  15.729 -0.2108 -1.2042 -0.4163
 2789TIP3   OH229781   5.665   1.637   4.837  0.2966  0.6870  0.4928
 2789TIP3    H129782   5.624   1.724   4.838  0.7018  0.8777  0.6573
 2789TIP3    H229783   5.644   1.599   4.922 -1.4798 -0.1399 -0.2631
 2790TIP3   OH229784   0.041   5.127   0.043 -0.1897 -0.2464  0.4655
 2790TIP3    H129785   0.065   5.071  -0.031  0.8801  2.4127 -1.4095
 2790TIP3    H229786   0.125   5.153   0.081 -0.6797 -0.4392  1.7165
 2791TIP3   OH229787   1.979   4.872   4.810  0.2750  0.4186 -0.1932
 2791TIP3    H129788   1.932   4.940   4.763  2.3220  2.7759  0.9029
 2791TIP3    H229789   2.059   4.859   4.760  2.1041  2.3808  1.9360
 2792TIP3   OH229790   3.358   5.587   4.118  0.0064 -0.4685 -0.2125
 2792TIP3    H129791   3.343   5.523   4.187  1.3725 -0.2772  0.2788
 2792TIP3    H229792   3.453   5.595   4.112 -0.0691 -0.3636 -2.0135
 2793TIP3   OH229793   2.702   3.496   0.176  0.1582 -0.3198  0.0281
 2793TIP3    H129794   2.737   3.559   0.112 -1.5281 -0.7961 -1.4634
 2793TIP3    H229795   2.733   3.411   0.145  1.5339 -0.3647  1.4238
 2794TIP3   OH229796   5.159   3.061  16.302  0.5316 -0.2937  0.4699
 2794TIP3    H129797   5.194   3.150  16.303 -1.5330  0.6448 -1.5894
 2794TIP3    H229798   5.218   3.012  16.245 -0.3864  0.8273 -1.5696
 2795TIP3   OH229799   2.969   6.064   4.435  0.2036 -0.0958  0.1060
 2795TIP3    H129800   2.987   6.108   4.352 -1.2092  0.2854 -0.0348
 2795TIP3    H229801   3.055   6.045   4.472  0.8566 -0.4187 -1.5117
 2796TIP3   OH229802   2.631   5.516  10.925 -0.0745  0.3850  0.4032
 2796TIP3    H129803   2.711   5.522  10.977  0.2159  0.2284 -0.0203
 2796TIP3    H229804   2.617   5.422  10.913  0.4931  0.4188 -0.7443
 2797TIP3   OH229805   4.707   2.424   6.808 -0.6536 -0.5939  0.1755
 2797TIP3    H129806   4.711   2.334   6.776  1.0293 -0.1677 -0.9276
 2797TIP3    H229807   4.730   2.418   6.900 -0.8561 -1.3216  0.1821
 2798TIP3   OH229808   4.990   3.416   1.591 -0.3320 -0.5130  0.3186
 2798TIP3    H129809   4.918   3.475   1.569  0.6139  0.3877 -0.4355
 2798TIP3    H229810   4.974   3.393   1.683 -1.7637 -0.6181  0.0679
 2799TIP3   OH229811   4.145   4.329  12.495  0.1957  0.2168 -0.0387
 2799TIP3    H129812   4.170   4.418  12.473 -0.7173  0.1302 -1.5822
 2799TIP3    H229813   4.162   4.279  12.415 -3.3969 -0.1118 -0.7582
 2800TIP3   OH229814   3.750   0.668   1.591 -0.4045  0.1321  0.3731
 2800TIP3    H129815   3.668   0.689   1.544 -0.7230  0.2199  0.9617
 2800TIP3    H229816   3.733   0.695   1.681 -0.5039 -1.8452  0.9790
 2801TIP3   OH229817   3.366   5.500   1.106 -0.3565 -0.8093  0.3931
 2801TIP3    H129818   3.425   5.543   1.168  1.0948 -1.3550 -0.5379
 2801TIP3    H229819   3.425   5.454   1.046 -1.7486 -1.2326 -0.6983
 2802TIP3   OH229820   0.058   4.823   5.281  0.3921 -0.3751  0.5037
 2802TIP3    H129821  -0.006   4.764   5.243  1.1638 -2.7396  2.6125
 2802TIP3    H229822   0.141   4.774   5.279  1.3397  1.0952  1.2606
 2803TIP3   OH229823   1.093   0.533   5.159  0.0309 -0.5696  0.3150
 2803TIP3    H129824   1.040   0.453   5.158 -1.4878  0.3922  0.1323
 2803TIP3    H229825   1.125   0.541   5.069  1.8830 -1.9840  0.7722
 2804TIP3   OH229826   3.446   2.446   0.626  0.2392 -0.0115 -0.2477
 2804TIP3    H129827   3.486   2.383   0.567 -0.7536 -0.0566 -0.8905
 2804TIP3    H229828   3.399   2.506   0.569 -0.6094  0.0317  0.4744
 2805TIP3   OH229829   4.265   2.733   1.090  0.1803 -0.3329 -0.1177
 2805TIP3    H129830   4.324   2.679   1.036 -0.2306  1.2171 -2.2388
 2805TIP3    H229831   4.297   2.822   1.079 -0.3877  0.1320  1.6730
 2806TIP3   OH229832   6.664   2.628   2.476 -0.2373 -0.4003  0.0962
 2806TIP3    H129833   6.732   2.675   2.427  0.2088 -0.0416  1.0305
 2806TIP3    H229834   6.618   2.576   2.411  0.6930 -0.3472 -0.6074
 2807TIP3   OH229835   0.158   2.231  15.012  0.5133 -0.7981  0.8491
 2807TIP3    H129836   0.184   2.140  15.005  0.8166 -0.5917 -1.1062
 2807TIP3    H229837   0.214   2.267  15.081 -0.3876 -2.3113  2.4353
 2808TIP3   OH229838   4.092   3.750   5.433  0.4385 -0.3466 -0.5468
 2808TIP3    H129839   4.151   3.681   5.404 -0.5539 -1.7471  0.6002
 2808TIP3    H229840   4.128   3.779   5.517 -0.8482 -1.7807  0.5693
 2809TIP3   OH229841   3.343   2.014  16.012  0.2784 -0.3983  0.1925
 2809TIP3    H129842   3.282   1.998  15.940 -0.0668  1.0268  0.1370
 2809TIP3    H229843   3.430   2.009  15.971  0.1148 -0.3329 -0.1676
 2810TIP3   OH229844   5.798   1.935  15.335 -0.0910 -0.1673  0.4466
 2810TIP3    H129845   5.841   1.859  15.297 -1.4220 -1.8223  2.0407
 2810TIP3    H229846   5.767   1.986  15.260  0.8470 -1.1784 -0.6644
 2811TIP3   OH229847   3.739   0.812   1.837 -0.6591  0.2613 -0.3312
 2811TIP3    H129848   3.668   0.855   1.885  0.1687 -0.5496  1.7509
 2811TIP3    H229849   3.773   0.746   1.898  0.9374 -0.3596 -1.8005
 2812TIP3   OH229850   0.704   2.432  14.029  0.2199  0.1446  0.2638
 2812TIP3    H129851   0.659   2.347  14.032  0.5722 -0.1450 -1.4125
 2812TIP3    H229852   0.634   2.496  14.019 -0.1294  0.1973  2.5573
 2813TIP3   OH229853   2.815   6.505  12.750  0.3808 -0.1237 -0.2668
 2813TIP3    H129854   2.800   6.583  12.802 -2.4011  0.3925 -1.6944
 2813TIP3    H229855   2.764   6.518  12.670  0.3952 -3.0702 -0.8807
 2814TIP3   OH229856   6.578   6.625  13.876  0.0703 -0.3027 -0.2833
 2814TIP3    H129857   6.484   6.643  13.875 -0.3250 -2.1579 -0.8321
 2814TIP3    H229858   6.601   6.623  13.969 -1.0712 -2.4988  0.0424
 2815TIP3   OH229859   0.061   6.336  13.164  0.0935  0.2639 -0.2590
 2815TIP3    H129860   0.126   6.323  13.233 -0.0131 -0.7539 -0.3368
 2815TIP3    H229861  -0.023   6.342  13.210  0.1243  0.4842 -0.2336
 2816TIP3   OH229862   4.118   1.672  11.288  0.0458  0.1208 -0.3112
 2816TIP3    H129863   4.104   1.579  11.306 -2.2632  0.3360 -0.7056
 2816TIP3    H229864   4.034   1.713  11.307  1.1283  2.2227  0.2731
 2817TIP3   OH229865   4.201   0.746  12.591 -0.1587 -0.0963  0.0683
 2817TIP3    H129866   4.169   0.676  12.648 -1.6052  0.2478 -0.2844
 2817TIP3    H229867   4.191   0.826  12.644 -0.8903  0.1422 -0.4098
 2818TIP3   OH229868   4.973   2.569   4.266  0.2153 -0.5918 -0.0328
 2818TIP3    H129869   5.059   2.528   4.269  1.4919  1.8977 -0.1731
 2818TIP3    H229870   4.972   2.629   4.340 -2.0188 -1.6247  0.8571
 2819TIP3   OH229871   2.560   5.237   0.423  0.0021 -0.0400 -0.6206
 2819TIP3    H129872   2.543   5.330   0.416 -0.5941 -0.1961 -1.4187
 2819TIP3    H229873   2.655   5.228   0.413  0.2696  0.5944  1.0002
 2820TIP3   OH229874   4.988   5.255  14.602 -0.0981 -0.3638 -0.0712
 2820TIP3    H129875   5.053   5.321  14.622 -1.2351  1.7112 -2.6103
 2820TIP3    H229876   5.039   5.175  14.585  1.6416  0.7748 -0.4555
 2821TIP3   OH229877   3.250   4.022   0.144 -0.1297 -0.1294  0.3440
 2821TIP3    H129878   3.252   4.113   0.113 -1.7020 -0.0197  0.5075
 2821TIP3    H229879   3.285   3.971   0.070 -0.8358  0.4498 -0.4124
 2822TIP3   OH229880   1.870   2.949  13.541  0.1485  0.3166 -0.1445
 2822TIP3    H129881   1.882   2.886  13.470 -1.2255  1.3251 -1.3495
 2822TIP3    H229882   1.926   3.023  13.517 -0.0713  0.5272 -0.0185
 2823TIP3   OH229883   4.422   4.329  15.793  0.0847  0.0709  0.4238
 2823TIP3    H129884   4.472   4.408  15.815 -1.3294  0.7576  1.3379
 2823TIP3    H229885   4.459   4.300  15.710  1.2764  1.1526  0.5367
 2824TIP3   OH229886   5.566   4.120   5.951  0.3302  0.0503 -0.0594
 2824TIP3    H129887   5.626   4.076   6.011 -0.0818  2.1829  2.1074
 2824TIP3    H229888   5.524   4.187   6.005 -0.5246  1.7301 -2.6272
 2825TIP3   OH229889   3.708   3.139   6.023  0.5447 -0.5165  0.1559
 2825TIP3    H129890   3.639   3.111   5.962  0.0177 -0.6728  0.8038
 2825TIP3    H229891   3.695   3.233   6.033 -0.0114 -0.6535  0.7935
 2826TIP3   OH229892   6.031   6.475  16.978 -0.0402 -0.3806  0.2456
 2826TIP3    H129893   5.952   6.485  17.031 -0.4425 -0.2984 -0.3581
 2826TIP3    H229894   6.052   6.382  16.982  0.3735 -0.2615  1.1597
 2827TIP3   OH229895   1.949   3.393   3.126  0.5554 -0.0288  0.4779
 2827TIP3    H129896   2.017   3.434   3.072  0.0204 -0.4022 -0.5199
 2827TIP3    H229897   1.888   3.463   3.146  1.0583  0.2401  1.1125
 2828TIP3   OH229898   5.214   5.923  15.741 -0.2734 -0.0843  0.3744
 2828TIP3    H129899   5.151   5.928  15.669  0.3518 -1.0497 -0.2661
 2828TIP3    H229900   5.294   5.961  15.705  0.9129 -3.1044 -0.4838
 2829TIP3   OH229901   5.196   0.593   0.684 -0.2489 -0.1782 -0.0203
 2829TIP3    H129902   5.108   0.560   0.704 -0.6465 -0.8438 -2.4830
 2829TIP3    H229903   5.249   0.514   0.673  1.4047  0.1969  3.8451
 2830TIP3   OH229904   0.603   3.051   1.901 -0.6986  0.1279 -0.2962
 2830TIP3    H129905   0.674   2.997   1.866 -1.1707 -0.2908 -0.6189
 2830TIP3    H229906   0.524   2.998   1.888 -0.7941 -0.5094  2.3081
 2831TIP3   OH229907   6.157   4.550   4.274 -0.1686 -0.0652 -0.7446
 2831TIP3    H129908   6.239   4.515   4.238 -0.3935  0.4333 -1.7873
 2831TIP3    H229909   6.170   4.547   4.369  0.2926 -1.7925 -0.8275
 2832TIP3   OH229910   0.723   2.999  15.578  0.2782  0.2687  0.2362
 2832TIP3    H129911   0.771   2.963  15.653  0.6815 -0.0223 -0.1558
 2832TIP3    H229912   0.723   3.093  15.593  2.2315  0.4291 -0.4627
 2833TIP3   OH229913   1.783   2.594  12.461 -0.4008  0.6615  0.3023
 2833TIP3    H129914   1.795   2.585  12.367 -0.9499  0.1418  0.2791
 2833TIP3    H229915   1.871   2.608  12.495 -0.1880  0.7623 -0.2743
 2834TIP3   OH229916   3.824   3.066   5.712  0.0206 -0.6143  0.4302
 2834TIP3    H129917   3.749   3.042   5.658  0.1302 -0.1135  0.0423
 2834TIP3    H229918   3.843   2.988   5.765 -0.4483 -0.9124  0.1593
 2835TIP3   OH229919   4.518   5.357   6.157  0.1667  0.1967  0.0980
 2835TIP3    H129920   4.497   5.420   6.089  2.2292  0.4210 -0.3925
 2835TIP3    H229921   4.481   5.395   6.237 -1.9991  0.0853 -0.7752
 2836TIP3   OH229922   5.613   5.213   3.824  0.5510  1.0936  0.3173
 2836TIP3    H129923   5.629   5.307   3.821  3.7048  0.6630  0.4996
 2836TIP3    H229924   5.635   5.182   3.736 -0.1352  0.4853  0.3516
 2837TIP3   OH229925   2.738   1.463  15.653  0.0230  0.2967 -0.3861
 2837TIP3    H129926   2.780   1.497  15.732 -2.2639  0.6240  0.7703
 2837TIP3    H229927   2.777   1.514  15.581  2.3415 -0.1974  0.4447
 2838TIP3   OH229928   4.685   6.126   4.084 -0.1044 -0.1777  0.9938
 2838TIP3    H129929   4.737   6.194   4.041  1.1986 -1.4864  0.3902
 2838TIP3    H229930   4.747   6.084   4.144 -0.7053 -1.2083  0.9029
 2839TIP3   OH229931   6.780   1.124   4.099 -0.2875 -0.2066 -0.2757
 2839TIP3    H129932   6.823   1.196   4.052 -1.1160 -0.5491 -1.6028
 2839TIP3    H229933   6.771   1.054   4.034  0.4081 -1.5055  0.9490
 2840TIP3   OH229934   3.813   0.163  16.135 -0.1104  0.0288  0.1710
 2840TIP3    H129935   3.884   0.105  16.109  0.7419  0.2954  1.7524
 2840TIP3    H229936   3.835   0.247  16.095 -0.4452 -0.2934 -0.7169
 2841TIP3   OH229937   6.512   2.287   5.891  0.3753  0.2726 -0.2039
 2841TIP3    H129938   6.489   2.213   5.835  0.6019  0.8983 -1.1396
 2841TIP3    H229939   6.461   2.273   5.971  0.3525 -0.8456 -0.4034
 2842TIP3   OH229940   4.503   1.213   5.395 -0.6433 -0.1393 -0.1986
 2842TIP3    H129941   4.531   1.236   5.483  0.4722 -1.1146 -0.2628
 2842TIP3    H229942   4.552   1.134   5.374  0.0036  0.6828 -2.1148
 2843TIP3   OH229943   6.100   5.503   5.772 -0.4907  0.5414 -0.4379
 2843TIP3    H129944   6.148   5.581   5.744 -1.8411  1.8197  0.6237
 2843TIP3    H229945   6.137   5.483   5.858 -1.0478  0.8380 -0.1239
 2844TIP3   OH229946   5.490   2.555  14.993  0.3437  0.0971  0.4482
 2844TIP3    H129947   5.454   2.638  14.962  1.0239 -0.4081 -1.9258
 2844TIP3    H229948   5.478   2.495  14.919 -0.9480 -2.2188  2.3972
 2845TIP3   OH229949   6.703   5.829   0.725 -0.2620  0.3164  1.0051
 2845TIP3    H129950   6.621   5.828   0.676 -0.8409  0.6045  1.9536
 2845TIP3    H229951   6.761   5.883   0.672 -0.0495 -1.3904 -0.6237
 2846TIP3   OH229952   5.726   0.649  11.616  0.0467 -0.1623  0.0804
 2846TIP3    H129953   5.749   0.697  11.696  0.5874 -1.5488  0.7920
 2846TIP3    H229954   5.796   0.585  11.605  0.3375  0.4560 -1.9210
 2847TIP3   OH229955   1.511   4.458   5.184  0.2169  0.2184 -0.1151
 2847TIP3    H129956   1.519   4.522   5.113  1.9324  0.0854 -0.0992
 2847TIP3    H229957   1.532   4.374   5.143  0.3417  0.0167  0.3554
 2848TIP3   OH229958   3.869   4.523   5.976 -0.1317 -0.1512 -0.0173
 2848TIP3    H129959   3.825   4.573   6.044 -2.2151  0.9112 -2.0038
 2848TIP3    H229960   3.811   4.447   5.962  0.7057 -0.7938 -0.0597
 2849TIP3   OH229961   5.237   3.920   2.721  0.4937  0.0893 -0.3046
 2849TIP3    H129962   5.181   3.861   2.671  0.0447 -0.9914  1.3980
 2849TIP3    H229963   5.186   3.943   2.798  1.7136  0.4926  0.4133
 2850TIP3   OH229964   6.384   1.306  11.542 -0.1324 -0.0511  0.7311
 2850TIP3    H129965   6.419   1.228  11.584 -0.2621  0.0834  1.1007
 2850TIP3    H229966   6.290   1.288  11.532 -0.2211  0.1720  1.1013
 2851TIP3   OH229967   1.150   0.803  13.290  0.0876 -0.2859  0.9113
 2851TIP3    H129968   1.188   0.858  13.222 -1.4008  0.0737  0.3325
 2851TIP3    H229969   1.076   0.760  13.248 -0.6052 -0.3857  2.1767
 2852TIP3   OH229970   2.787   1.743   6.300 -0.4081  0.6153  0.5379
 2852TIP3    H129971   2.726   1.811   6.329  0.1706  0.5275  2.0516
 2852TIP3    H229972   2.760   1.665   6.348 -1.8750 -0.6436 -2.1189
 2853TIP3   OH229973   3.407   3.438   0.544  0.0531 -0.2585  0.1133
 2853TIP3    H129974   3.390   3.487   0.625 -0.7085 -1.0400  0.4364
 2853TIP3    H229975   3.491   3.473   0.513  0.3238  0.1097  1.1967
 2854TIP3   OH229976   3.302   1.730   6.010  0.0369 -0.2811 -0.3391
 2854TIP3    H129977   3.365   1.786   6.055 -0.3616  0.4953 -0.7114
 2854TIP3    H229978   3.246   1.696   6.079 -0.3413  0.6071 -0.1927
 2855TIP3   OH229979   0.108   3.948  12.463 -0.2858 -0.1168  0.1556
 2855TIP3    H129980   0.023   3.953  12.506 -0.5256 -1.6602 -0.0959
 2855TIP3    H229981   0.114   3.858  12.430  0.4085  0.6326 -1.9631
 2856TIP3   OH229982   4.525   4.734  14.259  0.1773  0.0710  0.0462
 2856TIP3    H129983   4.572   4.674  14.201 -0.3504  0.0268 -0.3456
 2856TIP3    H229984   4.586   4.807  14.272 -0.1695  0.7263 -1.6527
 2857TIP3   OH229985   4.609   0.555   4.906  0.0847 -0.2947 -0.1138
 2857TIP3    H129986   4.579   0.607   4.980 -0.3715  1.0337 -1.2007
 2857TIP3    H229987   4.678   0.607   4.866 -0.0148 -0.7660 -0.9184
 2858TIP3   OH229988   4.915   2.311   4.339  0.1589  0.2779  0.4006
 2858TIP3    H129989   4.948   2.268   4.260 -2.0298  0.9535 -0.9857
 2858TIP3    H229990   4.909   2.403   4.315 -0.1304  0.5538  1.4940
 2859TIP3   OH229991   5.443   4.980  15.866  0.1662 -0.0386 -0.1251
 2859TIP3    H129992   5.447   4.898  15.816  1.1036  0.1807 -0.4188
 2859TIP3    H229993   5.531   5.016  15.861 -0.4733  1.5110 -0.8583
 2860TIP3   OH229994   3.269   4.575  13.790 -0.0150  0.4594  0.1276
 2860TIP3    H129995   3.333   4.529  13.735  0.8658 -0.4721  1.8579
 2860TIP3    H229996   3.310   4.661  13.806 -1.0263  1.4051 -1.9456
 2861TIP3   OH229997   3.260   3.248   3.206 -0.3625  0.1531 -0.7174
 2861TIP3    H129998   3.226   3.192   3.136  0.4999  1.7224 -2.4942
 2861TIP3    H229999   3.182   3.272   3.256 -0.9077 -1.5835 -0.6571
 2862TIP3   OH230000   6.023   3.748  15.154  0.4769 -0.1994  0.1893
 2862TIP3    H130001   6.015   3.666  15.203  0.4510  0.2222  0.8967
 2862TIP3    H230002   6.012   3.722  15.062 -0.4466 -0.8591  0.4737
 2863TIP3   OH230003   4.964   5.265  15.811  0.6365  0.0159  0.8319
 2863TIP3    H130004   4.925   5.262  15.899  0.5362  0.2283  0.7954
 2863TIP3    H230005   5.049   5.223  15.821  0.4591 -0.3233  0.9437
 2864TIP3   OH230006   6.708   3.652  11.702  0.2394 -0.0024 -0.6377
 2864TIP3    H130007   6.662   3.569  11.688 -0.7906  0.3084  0.6758
 2864TIP3    H230008   6.696   3.700  11.619  0.2001 -0.8543 -1.1386
 2865TIP3   OH230009   5.052   2.908  15.878  0.1037 -0.9110 -0.2421
 2865TIP3    H130010   5.102   2.875  15.954  0.7449  2.2939  0.8601
 2865TIP3    H230011   4.987   2.967  15.916 -1.7081 -1.6318 -2.0388
 2866TIP3   OH230012   3.375   1.419  14.075 -0.1377 -0.2511 -0.2296
 2866TIP3    H130013   3.440   1.349  14.068  1.4929  1.1695 -0.1517
 2866TIP3    H230014   3.321   1.395  14.150  0.7195 -1.1568  0.1252
 2867TIP3   OH230015   3.078   4.066   5.284 -0.5314 -0.0243  0.4144
 2867TIP3    H130016   2.993   4.095   5.250 -0.9008 -0.5114  0.8987
 2867TIP3    H230017   3.056   3.995   5.344  0.3611 -1.2467 -0.6703
 2868TIP3   OH230018   5.534   2.042  14.434  0.1409 -0.5996  0.1568
 2868TIP3    H130019   5.605   1.985  14.404  0.5789  0.1064 -0.1678
 2868TIP3    H230020   5.454   1.994  14.412  0.4904 -0.8515 -0.5914
 2869TIP3   OH230021   4.071   0.367   2.845  0.6714  0.4083 -1.0657
 2869TIP3    H130022   4.054   0.450   2.801  0.0274  0.3591 -0.9257
 2869TIP3    H230023   4.126   0.318   2.784  0.0103  0.4431 -1.7020
 2870TIP3   OH230024   1.582   1.705  10.197 -0.1399 -0.1297 -0.5426
 2870TIP3    H130025   1.612   1.737  10.282  0.4934  0.6589 -1.0478
 2870TIP3    H230026   1.657   1.720  10.138 -0.8906  0.1868 -1.4365
 2871TIP3   OH230027   1.519   1.116   3.921  0.1736 -0.3636  0.0311
 2871TIP3    H130028   1.575   1.044   3.893  1.5955  1.3077 -1.7050
 2871TIP3    H230029   1.570   1.195   3.903 -1.7425  1.1427  0.8130
 2872TIP3   OH230030   0.431   6.107   0.223  0.0537  0.0000 -0.1603
 2872TIP3    H130031   0.451   6.027   0.272  0.1495  0.5624  0.7552
 2872TIP3    H230032   0.336   6.115   0.227  0.0025 -0.3420 -0.6991
 2873TIP3   OH230033   2.799   2.202  14.006  0.3030 -0.0517 -0.4013
 2873TIP3    H130034   2.782   2.296  14.015  2.1132  0.3041 -0.3831
 2873TIP3    H230035   2.823   2.190  13.914  1.1627 -0.2952 -0.1539
 2874TIP3   OH230036   3.382   1.794  15.691 -0.2057 -0.1015 -0.1716
 2874TIP3    H130037   3.446   1.778  15.760  0.5966  0.3971 -0.7763
 2874TIP3    H230038   3.405   1.731  15.622 -0.0906  0.3746 -0.5730
 2875TIP3   OH230039   1.796   6.673  14.952 -0.5814 -0.2949 -0.7344
 2875TIP3    H130040   1.786   6.713  14.866 -2.4866  2.0991  0.4856
 2875TIP3    H230041   1.814   6.746  15.011  1.6599 -1.9725  0.8327
 2876TIP3   OH230042   2.873   3.614   1.269 -0.3685  0.0362  0.4575
 2876TIP3    H130043   2.961   3.646   1.289 -0.5549  1.5278 -0.8668
 2876TIP3    H230044   2.876   3.521   1.288  1.3572  0.1488  0.8834
 2877TIP3   OH230045   2.984   0.332   5.360 -0.7059 -0.5113 -0.0363
 2877TIP3    H130046   2.924   0.274   5.408 -0.5906 -0.5228  0.0967
 2877TIP3    H230047   2.929   0.402   5.327 -0.6428  0.0076  0.9205
 2878TIP3   OH230048   1.755   0.590  15.653  0.0888 -0.1502  0.3685
 2878TIP3    H130049   1.750   0.613  15.746 -0.6247 -0.6799  0.4791
 2878TIP3    H230050   1.849   0.586  15.634  0.2369  0.4313  0.9415
 2879TIP3   OH230051   0.683   5.244  11.877 -0.3545  0.6206 -0.2152
 2879TIP3    H130052   0.654   5.164  11.919  0.2666  1.1234  1.2756
 2879TIP3    H230053   0.778   5.245  11.891 -0.0830  0.7267 -1.8507
 2880TIP3   OH230054   3.601   2.497  14.612  0.0602 -0.0751  0.0031
 2880TIP3    H130055   3.547   2.439  14.667  0.8510  0.2085  1.1285
 2880TIP3    H230056   3.685   2.501  14.659  0.6312  0.4959 -1.0484
 2881TIP3   OH230057   2.465   1.493  13.174 -0.0946 -0.4746 -0.1472
 2881TIP3    H130058   2.561   1.487  13.170  0.0885  0.4696  1.7030
 2881TIP3    H230059   2.443   1.561  13.112  0.6349  0.5299  0.6525
 2882TIP3   OH230060   1.596   4.309   0.761 -0.1019 -0.1051  0.1700
 2882TIP3    H130061   1.595   4.391   0.811  2.0197  0.4285 -0.5281
 2882TIP3    H230062   1.597   4.240   0.827  0.7350  0.5346  0.8547
 2883TIP3   OH230063   2.546   3.133  15.974  0.0498 -0.6857  0.2804
 2883TIP3    H130064   2.500   3.052  15.997 -0.7143 -0.5576 -0.7025
 2883TIP3    H230065   2.529   3.144  15.880 -0.3366  0.9051  0.5010
 2884TIP3   OH230066   4.498   3.416  15.423 -0.9381 -0.1442 -0.3493
 2884TIP3    H130067   4.414   3.435  15.465 -1.1263 -1.8173  0.1186
 2884TIP3    H230068   4.556   3.487  15.451 -1.6159 -0.1369  1.1277
 2885TIP3   OH230069   5.442   0.136   1.729 -0.1362  0.0826  0.1743
 2885TIP3    H130070   5.490   0.055   1.743  1.5059  1.1200  0.8799
 2885TIP3    H230071   5.495   0.185   1.667 -0.3388  1.1993  0.8470
 2886TIP3   OH230072   1.141   4.778   0.310 -0.1488  0.2850  0.0035
 2886TIP3    H130073   1.111   4.841   0.244  0.3688 -1.2588 -1.8220
 2886TIP3    H230074   1.061   4.735   0.340 -0.3773  0.9057  0.3073
 2887TIP3   OH230075   3.748   3.682   0.610  0.5587 -0.1356  0.6175
 2887TIP3    H130076   3.705   3.600   0.635 -1.2850  0.5772 -0.0370
 2887TIP3    H230077   3.724   3.744   0.678  0.3924  0.3270  0.1486
 2888TIP3   OH230078   0.880   5.335  13.062  0.4612  0.2248  0.6998
 2888TIP3    H130079   0.896   5.321  13.155  0.1161  0.3966  0.7846
 2888TIP3    H230080   0.824   5.261  13.036  1.5537 -0.5024  0.3523
 2889TIP3   OH230081   5.373   5.199  14.363  0.0435  0.0502  0.0739
 2889TIP3    H130082   5.301   5.261  14.353  0.2686  0.2291 -0.5134
 2889TIP3    H230083   5.331   5.114  14.370 -0.2794  0.2810  1.0968
 2890TIP3   OH230084   1.392   2.587   2.259 -0.0485  0.7357 -0.5378
 2890TIP3    H130085   1.477   2.624   2.283  0.0557  0.4517 -0.4618
 2890TIP3    H230086   1.329   2.643   2.303  0.0890  1.0924 -0.7881
 2891TIP3   OH230087   1.076   4.113  11.468 -0.1837 -0.4157 -0.3819
 2891TIP3    H130088   1.037   4.092  11.383  1.7382 -1.3127 -1.0910
 2891TIP3    H230089   1.011   4.170  11.510 -0.4304  1.6243 -3.1891
 2892TIP3   OH230090   4.537   4.637   4.504 -0.1658 -0.1749  0.0286
 2892TIP3    H130091   4.523   4.668   4.414 -0.7911 -0.2844  0.0887
 2892TIP3    H230092   4.573   4.714   4.550 -2.0684  0.6167  0.2728
 2893TIP3   OH230093   5.824   3.081   0.284 -0.4866 -0.3526  0.2324
 2893TIP3    H130094   5.888   3.150   0.301 -0.9002 -0.1152  0.8802
 2893TIP3    H230095   5.871   2.999   0.303 -0.0684 -0.2376 -0.3050
 2894TIP3   OH230096   6.462   4.454  14.439 -0.2379  0.1877 -0.5394
 2894TIP3    H130097   6.493   4.470  14.528 -1.0778 -0.4978 -0.1100
 2894TIP3    H230098   6.448   4.359  14.435 -2.1626  0.4494 -0.7353
 2895TIP3   OH230099   1.717   1.002   3.775 -0.4316 -0.0137  0.0271
 2895TIP3    H130100   1.678   0.916   3.789 -1.7502  0.5874  0.2062
 2895TIP3    H230101   1.798   1.000   3.826 -0.7635 -0.9265  0.5476
 2896TIP3   OH230102   1.022   1.451  11.220 -0.2917 -0.5742  0.4065
 2896TIP3    H130103   1.109   1.463  11.181 -0.6785  0.4147 -0.1819
 2896TIP3    H230104   0.972   1.405  11.153 -0.0195 -1.8169  1.0378
 2897TIP3   OH230105   2.734   5.582   1.133 -0.1186 -0.1935  0.2030
 2897TIP3    H130106   2.807   5.530   1.165 -0.2159  0.8897  2.3596
 2897TIP3    H230107   2.773   5.641   1.068  0.3884 -1.4126 -0.6322
 2898TIP3   OH230108   3.962   6.149   4.138 -0.3460  0.4967  0.7527
 2898TIP3    H130109   3.940   6.187   4.053  2.0327 -0.5448 -0.4131
 2898TIP3    H230110   3.988   6.225   4.191  1.6332  0.8889 -0.6489
 2899TIP3   OH230111   0.834   5.892   5.382  0.3937 -0.4745  0.2109
 2899TIP3    H130112   0.834   5.881   5.287 -1.2800 -2.9492  0.3775
 2899TIP3    H230113   0.759   5.949   5.399  0.2520 -0.6108  0.0568
 2900TIP3   OH230114   6.186   0.525  11.574  0.4174 -0.1224  0.2773
 2900TIP3    H130115   6.200   0.613  11.609 -0.2366 -0.4797  1.5145
 2900TIP3    H230116   6.093   0.509  11.589  0.6208 -1.1756  0.4485
 2901TIP3   OH230117   3.891   6.703   2.222  0.0538  0.0438 -0.6117
 2901TIP3    H130118   3.930   6.759   2.289 -1.4629  1.3800 -0.7820
 2901TIP3    H230119   3.816   6.663   2.266  0.3427 -0.8368 -0.8924
 2902TIP3   OH230120   0.260   3.139  12.533  0.2243  0.1086  0.4126
 2902TIP3    H130121   0.267   3.129  12.438  1.0660  2.5456  0.1572
 2902TIP3    H230122   0.165   3.141  12.550  0.0392 -1.8385 -0.1219
 2903TIP3   OH230123   6.059   2.143   4.925 -0.5286 -0.1099 -0.4426
 2903TIP3    H130124   5.987   2.196   4.891 -1.2038 -1.4168 -1.1191
 2903TIP3    H230125   6.023   2.055   4.933  0.9198 -0.7549 -0.5786
 2904TIP3   OH230126   3.198   5.334  11.464 -0.4288 -0.1575 -0.1539
 2904TIP3    H130127   3.264   5.402  11.476  0.5285 -1.3261  1.7355
 2904TIP3    H230128   3.247   5.260  11.428 -1.1185 -0.4039 -0.5929
 2905TIP3   OH230129   3.526   2.671  13.671 -0.2807  0.7653 -0.3112
 2905TIP3    H130130   3.444   2.638  13.634  0.5442 -0.3481 -1.2196
 2905TIP3    H230131   3.519   2.767  13.664 -1.3748  0.6747 -0.6219
 2906TIP3   OH230132   1.869   1.596   1.855 -0.2247 -0.2370 -0.1015
 2906TIP3    H130133   1.815   1.600   1.776  0.0130  0.0818 -0.2515
 2906TIP3    H230134   1.951   1.639   1.830  0.3754 -1.3569 -0.0918
 2907TIP3   OH230135   2.361   5.739   1.171 -0.0994 -0.4409 -0.4680
 2907TIP3    H130136   2.344   5.714   1.081 -2.2005 -0.1434 -0.2020
 2907TIP3    H230137   2.385   5.832   1.166 -1.4721 -0.0695 -0.6486
 2908TIP3   OH230138   5.120   5.231  11.301 -0.0566  0.1955 -0.4782
 2908TIP3    H130139   5.081   5.254  11.217  1.9871  0.9922 -1.2744
 2908TIP3    H230140   5.179   5.159  11.281  0.7743  0.6811  0.1884
 2909TIP3   OH230141   0.960   0.041  13.344  0.0743  0.2931  0.4295
 2909TIP3    H130142   0.943   0.129  13.377 -0.2647  0.2022  0.5063
 2909TIP3    H230143   0.971   0.052  13.250  0.2728  0.4507  0.4721
 2910TIP3   OH230144   4.562   3.333  13.397  0.2180 -0.2056 -0.5987
 2910TIP3    H130145   4.585   3.333  13.490 -0.1843 -0.2850 -0.4973
 2910TIP3    H230146   4.552   3.425  13.375 -1.0256 -0.2341 -0.2191
 2911TIP3   OH230147   2.045   3.449  13.256  0.0383  0.7265  0.6207
 2911TIP3    H130148   2.094   3.462  13.174 -2.2460 -0.5295 -1.0594
 2911TIP3    H230149   1.983   3.522  13.258 -2.2630 -1.0589 -0.7003
 2912TIP3   OH230150   3.203   2.722   4.984  0.5356  0.0017  0.1301
 2912TIP3    H130151   3.174   2.661   4.916 -0.7527 -0.5075  1.0938
 2912TIP3    H230152   3.276   2.770   4.944  0.3926 -0.9040 -1.2805
 2913TIP3   OH230153   5.496   5.198   1.738  0.9867 -0.2149  0.0379
 2913TIP3    H130154   5.480   5.118   1.688  2.1236 -0.6610  0.3404
 2913TIP3    H230155   5.503   5.266   1.671  0.9451 -0.5336 -0.2998
 2914TIP3   OH230156   3.073   3.787   4.322 -0.3024  0.4184  0.2045
 2914TIP3    H130157   3.107   3.798   4.411  3.3143  2.3170 -1.2034
 2914TIP3    H230158   3.116   3.707   4.290 -0.1093  0.7784 -0.4359
 2915TIP3   OH230159   0.318   6.007  13.383 -0.1876 -0.7785  0.5866
 2915TIP3    H130160   0.243   5.990  13.326 -0.7629 -2.8017  1.8673
 2915TIP3    H230161   0.392   5.965  13.340 -0.0678 -0.0848  0.0883
 2916TIP3   OH230162   0.345   0.869   3.008  0.1855 -0.4281  0.2062
 2916TIP3    H130163   0.375   0.956   3.034  0.0041 -1.0395  2.7218
 2916TIP3    H230164   0.362   0.814   3.084 -2.4747 -1.9505 -0.1625
 2917TIP3   OH230165   2.550   3.311   5.686 -0.1390  0.0021 -0.0643
 2917TIP3    H130166   2.532   3.272   5.600  1.0682  1.4244 -1.0151
 2917TIP3    H230167   2.616   3.254   5.725 -0.9871 -0.8783  0.1104
 2918TIP3   OH230168   0.795   6.719  12.782 -0.1590  0.1088  0.3944
 2918TIP3    H130169   0.872   6.768  12.812  0.9702  0.2734 -2.4326
 2918TIP3    H230170   0.792   6.642  12.838  2.0749  0.1187  0.6286
 2919TIP3   OH230171   4.115   5.630   2.959  0.6653  0.3635  0.6135
 2919TIP3    H130172   4.060   5.571   2.906  0.0383  0.6967  0.8774
 2919TIP3    H230173   4.052   5.682   3.009  1.1212  2.5242 -0.9113
 2920TIP3   OH230174   1.141   5.285   4.383 -0.2255  0.7631  0.0486
 2920TIP3    H130175   1.156   5.280   4.477 -0.3059 -1.7276 -0.0084
 2920TIP3    H230176   1.058   5.239   4.369  0.5955 -0.3885 -1.3742
 2921TIP3   OH230177   1.451   3.115  15.631  0.2470 -0.1628  0.1982
 2921TIP3    H130178   1.527   3.156  15.589  1.2500 -1.5939  0.5484
 2921TIP3    H230179   1.376   3.167  15.601  1.1018 -0.0783 -2.0193
 2922TIP3   OH230180   4.548   0.820  12.950  0.4671  0.2938 -0.1419
 2922TIP3    H130181   4.516   0.770  12.875  0.1530  0.6342 -0.2365
 2922TIP3    H230182   4.609   0.760  12.994  0.1435 -0.1505 -0.2885
 2923TIP3   OH230183   2.320   4.427  14.197  0.1333 -0.5616  0.5017
 2923TIP3    H130184   2.280   4.415  14.111  0.4779 -2.4818  0.5543
 2923TIP3    H230185   2.312   4.521  14.215 -0.2958 -0.1851 -1.4358
 2924TIP3   OH230186   5.861   3.441   0.159 -0.2939 -0.4099  0.2473
 2924TIP3    H130187   5.882   3.400   0.243 -0.2541 -2.2442 -0.6174
 2924TIP3    H230188   5.895   3.380   0.093  2.2646  2.2893 -1.1570
 2925TIP3   OH230189   1.671   1.617   1.665  0.4856 -0.2102  0.2840
 2925TIP3    H130190   1.637   1.663   1.588 -1.4542 -0.6317  0.8481
 2925TIP3    H230191   1.656   1.677   1.738 -2.0690 -1.6035  1.0299
 2926TIP3   OH230192   3.889   1.965  15.947  0.2940 -0.0955 -0.4002
 2926TIP3    H130193   3.950   1.912  15.895  0.2435 -0.2683 -0.2836
 2926TIP3    H230194   3.928   2.052  15.948  0.4548 -0.1664 -0.4647
 2927TIP3   OH230195   1.282   2.462   4.569 -0.1927  0.2287  0.2221
 2927TIP3    H130196   1.377   2.453   4.559 -0.3413 -1.1548 -0.1020
 2927TIP3    H230197   1.262   2.417   4.651 -0.3044  2.6310  1.6176
 2928TIP3   OH230198   4.690   6.582   5.126  0.0813  0.6836 -0.3937
 2928TIP3    H130199   4.708   6.606   5.217  0.0694  0.9402 -0.4589
 2928TIP3    H230200   4.622   6.515   5.132  0.4238  0.3472 -0.1905
 2929TIP3   OH230201   6.195   5.906   4.651 -0.2178  0.1235  0.0171
 2929TIP3    H130202   6.198   5.824   4.701  0.1839 -0.1097 -0.3735
 2929TIP3    H230203   6.112   5.901   4.604 -1.1566  0.8894  1.5365
 2930TIP3   OH230204   1.724   5.546   2.813 -0.4723  0.2370 -0.5443
 2930TIP3    H130205   1.692   5.611   2.750  0.9927  0.6111 -0.9433
 2930TIP3    H230206   1.711   5.462   2.769 -1.0174  0.3651 -0.6389
 2931TIP3   OH230207   5.254   5.270  12.202  0.1672 -0.2605  0.2553
 2931TIP3    H130208   5.291   5.353  12.172  0.1239 -0.0266  0.8450
 2931TIP3    H230209   5.268   5.210  12.129 -0.3519  0.4187 -0.4139
 2932TIP3   OH230210   3.205   6.408  16.210 -0.1331  0.1836 -0.2636
 2932TIP3    H130211   3.126   6.363  16.240  0.0264 -0.3226 -0.5833
 2932TIP3    H230212   3.177   6.456  16.132 -0.4463  1.1467  0.4332
 2933TIP3   OH230213   3.465   5.192   4.830 -0.1826 -0.4392  0.1544
 2933TIP3    H130214   3.369   5.183   4.833 -0.2350 -0.1326 -0.4499
 2933TIP3    H230215   3.497   5.127   4.892 -0.7480 -1.0573 -0.1945
 2934TIP3   OH230216   6.230   3.270  14.457 -0.5122 -0.4763  0.0100
 2934TIP3    H130217   6.224   3.242  14.549  2.1888 -1.7195 -0.0961
 2934TIP3    H230218   6.301   3.218  14.421 -0.9256  0.6148 -2.6000
 2935TIP3   OH230219   0.978   1.360  11.833 -0.2157 -0.3990 -0.2080
 2935TIP3    H130220   1.045   1.300  11.865  1.0604  1.3636  0.5755
 2935TIP3    H230221   0.994   1.368  11.740  1.1372  0.5447  0.0876
 2936TIP3   OH230222   0.301   0.392  14.325 -0.2277  0.3051 -0.0788
 2936TIP3    H130223   0.316   0.474  14.278  0.2374  0.6231  0.6112
 2936TIP3    H230224   0.245   0.341  14.266 -2.8500  2.1853  0.5997
 2937TIP3   OH230225   6.416   1.409   1.020  0.1116 -0.6103  0.0285
 2937TIP3    H130226   6.401   1.315   1.018 -1.3622 -0.3907 -0.5448
 2937TIP3    H230227   6.395   1.439   0.932 -0.0279  0.3387  0.3727
 2938TIP3   OH230228   0.838   4.545  13.265  0.3986 -0.6488 -0.1591
 2938TIP3    H130229   0.800   4.548  13.177  0.4941 -0.3389 -0.1909
 2938TIP3    H230230   0.823   4.455  13.294 -2.5224  0.0380  0.7932
 2939TIP3   OH230231   0.594   2.630  15.717  0.0282  0.8309 -0.1985
 2939TIP3    H130232   0.629   2.606  15.632 -0.4925 -1.2285  0.1065
 2939TIP3    H230233   0.650   2.584  15.780 -1.1353  0.2143  0.4283
 2940TIP3   OH230234   4.121   5.345   0.631  0.0794  0.0329  0.1845
 2940TIP3    H130235   4.164   5.371   0.549  0.8677 -2.2653 -0.2076
 2940TIP3    H230236   4.164   5.398   0.698  0.2298  1.1218 -0.7278
 2941TIP3   OH230237   6.383   6.072  14.798 -0.3338  0.1765 -0.6427
 2941TIP3    H130238   6.302   6.078  14.848 -0.2590 -1.9846 -0.1656
 2941TIP3    H230239   6.451   6.101  14.859 -0.4706 -0.5247 -0.1495
 2942TIP3   OH230240   4.580   6.476   2.113  0.0245  0.0907  0.0018
 2942TIP3    H130241   4.671   6.447   2.114 -0.5996 -2.4579 -2.7696
 2942TIP3    H230242   4.574   6.535   2.037 -0.7544 -0.3806 -0.3172
 2943TIP3   OH230243   3.162   3.723   1.269  0.2233 -0.1943 -0.4939
 2943TIP3    H130244   3.184   3.721   1.176  0.0552 -0.0008 -0.5396
 2943TIP3    H230245   3.233   3.773   1.309  1.3080 -1.8734 -0.2269
 2944TIP3   OH230246   5.880   2.969   3.756 -0.0624 -0.4064 -0.0107
 2944TIP3    H130247   5.866   2.883   3.795 -2.1226  0.4161  1.2051
 2944TIP3    H230248   5.821   3.028   3.803  0.8215  1.5845 -1.2122
 2945TIP3   OH230249   5.701   1.030   3.961 -0.3435  0.2558  0.7283
 2945TIP3    H130250   5.725   1.086   4.036 -0.7675  1.2688  0.1308
 2945TIP3    H230251   5.605   1.032   3.960 -0.3366  1.0567 -0.4142
 2946TIP3   OH230252   3.416   5.148   5.231  0.2432 -0.0270 -0.1897
 2946TIP3    H130253   3.388   5.091   5.302 -1.7167  0.4230 -0.5567
 2946TIP3    H230254   3.461   5.089   5.169  1.0419 -0.5928  0.9036
 2947TIP3   OH230255   1.143   4.615   5.669  0.8349 -1.2313 -0.4349
 2947TIP3    H130256   1.089   4.672   5.614  0.7646 -0.0533  0.8170
 2947TIP3    H230257   1.159   4.538   5.614 -1.8939 -1.5350 -0.9700
 2948TIP3   OH230258   6.769   0.149  14.811  0.1561  0.6990 -0.1180
 2948TIP3    H130259   6.765   0.212  14.883 -0.1459 -0.5414  1.0003
 2948TIP3    H230260   6.856   0.160  14.774 -0.2085  2.4078 -0.5775
 2949TIP3   OH230261   1.825   0.528   5.268 -0.0983 -0.3921 -0.1723
 2949TIP3    H130262   1.786   0.445   5.240 -0.4047 -0.4115  0.3068
 2949TIP3    H230263   1.795   0.591   5.202 -0.8452 -0.4309  0.1230
 2950TIP3   OH230264   3.262   3.296   0.323  0.6240  0.4085  0.2724
 2950TIP3    H130265   3.275   3.344   0.405  0.7268  1.3151 -0.2629
 2950TIP3    H230266   3.338   3.320   0.270 -0.8734  2.1519 -1.1873
 2951TIP3   OH230267   2.516   0.257   1.849  0.1716 -0.2029 -0.1159
 2951TIP3    H130268   2.551   0.296   1.929 -0.9478  0.2177  0.1901
 2951TIP3    H230269   2.590   0.210   1.810  0.4457 -1.4872  1.8070
 2952TIP3   OH230270   1.736   3.205  16.005 -0.2578  0.4344 -0.2976
 2952TIP3    H130271   1.657   3.258  15.993  0.3520  1.3076 -0.4717
 2952TIP3    H230272   1.729   3.138  15.937 -1.0355  0.2666 -0.0702
 2953TIP3   OH230273   2.317   4.164   2.056 -0.3262 -0.3289 -0.2194
 2953TIP3    H130274   2.257   4.137   1.986 -1.7615 -1.6673  1.4319
 2953TIP3    H230275   2.274   4.240   2.096 -0.2640 -0.4867  0.1477
 2954TIP3   OH230276   4.915   0.671  13.711 -0.1228 -0.3077 -0.7718
 2954TIP3    H130277   4.836   0.653  13.763 -0.5635  0.8270 -1.0116
 2954TIP3    H230278   4.980   0.701  13.775  0.1376 -1.2818 -0.5678
 2955TIP3   OH230279   5.153   0.322  16.070 -0.5678  0.2431 -0.0103
 2955TIP3    H130280   5.242   0.331  16.037 -0.3046 -0.1509  0.5812
 2955TIP3    H230281   5.161   0.330  16.165 -0.8966 -1.7081  0.2185
 2956TIP3   OH230282   0.877   5.033   5.950 -0.1040 -0.0413 -0.0900
 2956TIP3    H130283   0.881   5.046   6.045  1.9304  0.0454 -0.1446
 2956TIP3    H230284   0.912   4.945   5.937  1.4481  0.6442 -0.8513
 2957TIP3   OH230285   2.125   3.382   4.913  1.1530 -0.3130  0.1291
 2957TIP3    H130286   2.086   3.422   4.835 -0.2527  0.9526  1.4049
 2957TIP3    H230287   2.055   3.328   4.950  1.4773 -0.1215  1.0473
 2958TIP3   OH230288   6.509   0.364   4.697 -0.0335 -0.2996 -0.5187
 2958TIP3    H130289   6.442   0.297   4.684  0.5130 -0.9973  0.1809
 2958TIP3    H230290   6.486   0.406   4.780  1.1150 -1.4359  0.4059
 2959TIP3   OH230291   1.146   1.528  13.675 -0.0179 -0.2486 -0.2308
 2959TIP3    H130292   1.224   1.473  13.678  0.4996  0.4927  0.1107
 2959TIP3    H230293   1.168   1.604  13.728 -1.5692 -0.7918  1.2887
 2960TIP3   OH230294   1.467   1.429   1.505 -0.1149  0.2460 -0.2043
 2960TIP3    H130295   1.409   1.355   1.519  0.2991 -0.0262  0.0896
 2960TIP3    H230296   1.416   1.505   1.534 -0.0785 -0.0696  0.7079
 2961TIP3   OH230297   0.280   0.887  12.538  0.4050 -0.3484  0.9217
 2961TIP3    H130298   0.363   0.907  12.494 -0.2625 -0.0390 -0.2277
 2961TIP3    H230299   0.213   0.917  12.478 -0.5806 -1.9075  1.1744
 2962TIP3   OH230300   4.113   2.978   3.013 -0.2028 -0.3009  0.2851
 2962TIP3    H130301   4.066   2.948   3.090 -0.5628 -1.9666 -0.5372
 2962TIP3    H230302   4.205   2.959   3.033  0.2116  2.7731  1.8083
 2963TIP3   OH230303   1.621   6.442  12.609  0.1168  0.3825 -0.0037
 2963TIP3    H130304   1.530   6.431  12.583  0.0586  0.6614  0.0838
 2963TIP3    H230305   1.646   6.356  12.644 -0.6625  0.7789  1.6563
 2964TIP3   OH230306   2.619   1.703  16.033 -0.2060 -0.0290  0.2346
 2964TIP3    H130307   2.532   1.673  16.006  0.3058 -1.9223  0.5410
 2964TIP3    H230308   2.661   1.624  16.069  2.2240  0.4373 -1.3929
 2965TIP3   OH230309   3.734   1.636   2.906 -0.1894 -0.0298 -0.3372
 2965TIP3    H130310   3.803   1.574   2.931 -1.4117 -0.7512  1.4403
 2965TIP3    H230311   3.654   1.599   2.943 -1.2898  1.6300 -0.9345
 2966TIP3   OH230312   3.143   6.630  14.695  0.1470 -0.0308 -0.1962
 2966TIP3    H130313   3.151   6.534  14.692  0.2979 -0.1927  2.6202
 2966TIP3    H230314   3.234   6.661  14.696  0.0983  0.1397 -0.7584
 2967TIP3   OH230315   5.661   2.071   3.738 -0.0818  0.1084  0.0783
 2967TIP3    H130316   5.585   2.021   3.708  0.6521 -0.7668 -0.3690
 2967TIP3    H230317   5.699   2.018   3.807  2.6297 -1.6997 -2.6019
 2968TIP3   OH230318   3.669   4.626   5.440 -0.7867  0.3699  0.3774
 2968TIP3    H130319   3.711   4.572   5.507 -1.0141  0.1502  0.3441
 2968TIP3    H230320   3.595   4.574   5.410 -1.1950  0.8302  0.5685
 2969TIP3   OH230321   2.454   3.755  12.319  0.2496  0.1607 -0.5894
 2969TIP3    H130322   2.443   3.729  12.411 -3.4547 -2.2568 -1.5136
 2969TIP3    H230323   2.461   3.672  12.272 -0.5660  1.2456 -2.7240
 2970TIP3   OH230324   0.844   4.722  12.950  0.0341 -0.5620  0.5413
 2970TIP3    H130325   0.840   4.730  12.855  4.4340 -0.6458  0.1343
 2970TIP3    H230326   0.836   4.628  12.967  0.7030 -0.6993  0.1037
 2971TIP3   OH230327   3.858   2.234   2.633 -0.1979 -0.9135  0.1799
 2971TIP3    H130328   3.865   2.317   2.680  1.4139 -0.3347 -1.0079
 2971TIP3    H230329   3.923   2.240   2.564 -0.5865 -2.8742 -0.4120
 2972TIP3   OH230330   5.612   1.997  11.061  0.6086 -0.4093 -0.2695
 2972TIP3    H130331   5.629   2.062  11.129 -0.0384 -0.3910 -0.1218
 2972TIP3    H230332   5.683   2.010  10.998  0.3593  0.5983 -0.3632
 2973TIP3   OH230333   3.581   1.387   3.714  0.4037  0.2776 -0.0166
 2973TIP3    H130334   3.640   1.412   3.786  0.0127  2.3706 -0.3503
 2973TIP3    H230335   3.495   1.379   3.755  0.6407 -1.3348  0.2134
 2974TIP3   OH230336   6.183   1.935   2.713 -0.3447  0.1901 -0.1064
 2974TIP3    H130337   6.260   1.899   2.757 -0.4415 -0.3304 -0.3613
 2974TIP3    H230338   6.213   2.018   2.676  0.7737 -1.0859 -2.2576
 2975TIP3   OH230339   0.877   4.865  16.401 -0.0358 -0.1805  0.3130
 2975TIP3    H130340   0.935   4.880  16.475 -0.9707 -1.0299  1.2557
 2975TIP3    H230341   0.925   4.803  16.345 -0.0269 -0.8938  1.0964
 2976TIP3   OH230342   2.551   4.605  16.833  0.2846 -0.0370  0.0626
 2976TIP3    H130343   2.496   4.683  16.830  0.0734 -0.1928 -0.1326
 2976TIP3    H230344   2.504   4.540  16.780 -0.6032 -0.9651  1.8767
 2977TIP3   OH230345   5.451   4.070   1.643  0.0920  0.1713  0.0959
 2977TIP3    H130346   5.403   4.118   1.710 -1.8284 -2.4057  0.7452
 2977TIP3    H230347   5.418   3.980   1.650  0.6982 -0.4872 -3.4891
 2978TIP3   OH230348   6.497   1.070  11.626 -0.2201 -0.4139 -0.3917
 2978TIP3    H130349   6.427   1.012  11.595  0.4203 -0.2345 -2.3488
 2978TIP3    H230350   6.557   1.013  11.673 -0.7861 -0.8908 -0.2324
 2979TIP3   OH230351   2.465   6.041   1.169 -0.3026  0.7673  0.1437
 2979TIP3    H130352   2.409   6.047   1.246  1.2398  1.7444  1.2471
 2979TIP3    H230353   2.534   6.106   1.184  1.3946 -0.6744 -0.9241
 2980TIP3   OH230354   6.257   3.063  11.621  0.1416  0.6789  0.3184
 2980TIP3    H130355   6.242   3.157  11.632  0.4575  1.1338 -2.3270
 2980TIP3    H230356   6.343   3.057  11.580 -0.2943 -0.6817 -0.4808
 2981TIP3   OH230357   2.817   0.003   4.479 -0.5069 -0.4659 -0.7274
 2981TIP3    H130358   2.761  -0.073   4.489  0.2203 -0.9559 -0.2821
 2981TIP3    H230359   2.892  -0.014   4.536 -0.5423  0.7828 -0.2649
 2982TIP3   OH230360   5.136   3.322  13.620  0.6498  0.6101 -0.0334
 2982TIP3    H130361   5.062   3.356  13.569  0.6179  0.1172 -0.3227
 2982TIP3    H230362   5.095   3.274  13.692  0.6718 -0.2098 -0.5540
 2983TIP3   OH230363   5.355   2.859   0.949 -0.1160  0.3486 -0.4634
 2983TIP3    H130364   5.417   2.848   1.021 -1.5589 -0.6475  0.6874
 2983TIP3    H230365   5.297   2.929   0.977 -1.4725 -0.8960 -0.0181
 2984TIP3   OH230366   3.918   6.347   4.959 -0.5947  0.0426 -0.3183
 2984TIP3    H130367   3.977   6.370   5.031  0.9732 -0.8264 -1.2728
 2984TIP3    H230368   3.942   6.257   4.936 -1.3411  0.1540 -1.6459
 2985TIP3   OH230369   0.452   6.734   6.072  0.1851 -0.0273 -0.5935
 2985TIP3    H130370   0.437   6.641   6.058  0.2160 -0.0029 -0.7888
 2985TIP3    H230371   0.543   6.740   6.099  0.7978  0.1371 -2.5466
 2986TIP3   OH230372   2.973   5.837   5.790 -0.2100  0.2865  0.5599
 2986TIP3    H130373   2.925   5.836   5.873 -0.2719 -1.4073  0.5516
 2986TIP3    H230374   2.917   5.788   5.730  1.6345 -2.1213  0.6597
 2987TIP3   OH230375   2.207   6.352  15.923  0.0493 -0.2053 -0.0947
 2987TIP3    H130376   2.138   6.358  15.858  0.2037  1.0708 -0.1727
 2987TIP3    H230377   2.281   6.313  15.877 -0.2789 -0.5990 -0.2930
 2988TIP3   OH230378   0.872   0.903  11.802  0.4746  0.2043 -0.8017
 2988TIP3    H130379   0.820   0.949  11.736 -0.1001  0.7127 -0.0160
 2988TIP3    H230380   0.827   0.920  11.884  0.4752 -1.4539 -0.4196
 2989TIP3   OH230381   1.311   5.668   1.105 -0.8882 -1.0978 -0.1716
 2989TIP3    H130382   1.382   5.661   1.169 -0.7936 -1.1700 -0.2826
 2989TIP3    H230383   1.301   5.762   1.090  0.3788 -1.1261 -1.4579
 2990TIP3   OH230384   5.840   4.026   5.878  0.0602 -0.1376 -0.0795
 2990TIP3    H130385   5.888   3.970   5.939 -0.2590 -0.0137  0.2850
 2990TIP3    H230386   5.774   4.069   5.931  0.4995  0.8232 -0.2983
 2991TIP3   OH230387   4.855   1.581   0.047  0.3845 -0.2670 -0.2599
 2991TIP3    H130388   4.841   1.628   0.129 -1.2638  0.8386 -1.1152
 2991TIP3    H230389   4.782   1.519   0.042 -0.0867  0.3512 -1.3350
 2992TIP3   OH230390   1.925   5.355   4.718  0.2490  0.5559 -0.4091
 2992TIP3    H130391   1.927   5.446   4.690 -1.3270  0.9425  0.6116
 2992TIP3    H230392   1.845   5.347   4.770  0.0923 -1.5280 -0.8570
 2993TIP3   OH230393   4.962   1.823  11.471  0.4355  0.4902  0.2693
 2993TIP3    H130394   5.043   1.873  11.456  0.6700  0.0861  0.1638
 2993TIP3    H230395   4.906   1.882  11.521  0.1859  1.3619 -0.9927
 2994TIP3   OH230396   2.071   5.772   0.350  0.7492  0.0931 -0.1668
 2994TIP3    H130397   2.041   5.842   0.408 -0.5768 -0.4165 -0.2011
 2994TIP3    H230398   2.067   5.810   0.262 -0.3792 -0.1407 -0.2282
 2995TIP3   OH230399   4.826   5.989   4.914  0.6978  0.2479 -0.4499
 2995TIP3    H130400   4.801   6.035   4.833 -2.6384  0.0690  0.3598
 2995TIP3    H230401   4.851   6.059   4.974  0.9220  0.5481 -0.8784
 2996TIP3   OH230402   4.545   5.671  12.287 -0.7930  0.1298 -0.4007
 2996TIP3    H130403   4.553   5.611  12.213 -2.0999 -1.3038  0.5754
 2996TIP3    H230404   4.470   5.727  12.266 -1.5548 -0.6886  0.0979
 2997TIP3   OH230405   0.702   1.820   5.872 -0.5274  0.1930  0.5075
 2997TIP3    H130406   0.630   1.775   5.828  0.1685 -1.7309  1.2086
 2997TIP3    H230407   0.662   1.859   5.950 -1.4483  2.2239 -0.9161
 2998TIP3   OH230408   1.311   1.610   1.622 -0.1549  0.4373  0.4863
 2998TIP3    H130409   1.313   1.696   1.579  0.5574  0.1796 -0.0147
 2998TIP3    H230410   1.323   1.630   1.715 -0.5497  0.9176  0.4401
 2999TIP3   OH230411   3.420   4.131   4.488  0.1721 -0.1711 -0.0604
 2999TIP3    H130412   3.372   4.214   4.480 -1.6642 -1.2397 -0.7390
 2999TIP3    H230413   3.471   4.126   4.407 -2.0692 -1.0704 -1.5003
 3000TIP3   OH230414   3.934   1.088  14.999  0.5017  0.0562 -0.8320
 3000TIP3    H130415   3.953   1.048  15.084 -0.6086  2.0685  0.4466
 3000TIP3    H230416   4.012   1.139  14.979 -0.6900  2.9517  1.1499
 3001TIP3   OH230417   2.944   6.609  16.300 -0.3437 -0.5917  0.1374
 3001TIP3    H130418   2.932   6.523  16.342 -1.1410 -0.6734 -0.2594
 3001TIP3    H230419   3.039   6.616  16.290 -0.2878 -1.5967 -0.1708
 3002TIP3   OH230420   0.482   4.362   0.272  0.2516 -0.3567  0.0351
 3002TIP3    H130421   0.492   4.396   0.361  1.7324 -1.6858  0.4177
 3002TIP3    H230422   0.564   4.384   0.228 -0.6857  0.7775 -1.2064
 3003TIP3   OH230423   4.704   5.204  11.759  0.1100 -0.8664  0.6693
 3003TIP3    H130424   4.796   5.229  11.756  0.0243 -0.4901  1.0000
 3003TIP3    H230425   4.693   5.160  11.844 -0.2919  0.2836  1.2432
 3004TIP3   OH230426   3.277   4.577  15.528  0.3045  0.3117  0.2198
 3004TIP3    H130427   3.274   4.524  15.448 -0.5119 -1.9449  1.6429
 3004TIP3    H230428   3.186   4.596  15.547  0.5621  1.8297  0.0433
 3005TIP3   OH230429   1.616   4.330  11.549  0.1541  0.4416  0.4452
 3005TIP3    H130430   1.533   4.310  11.506 -0.6894  1.3178  1.6186
 3005TIP3    H230431   1.665   4.381  11.484 -1.2722  2.1230  0.6228
 3006TIP3   OH230432   0.645   5.283   3.037  0.3990 -0.0404  0.0138
 3006TIP3    H130433   0.655   5.310   3.128 -0.8102 -0.6959  0.3629
 3006TIP3    H230434   0.634   5.365   2.989  0.1028  0.2695  0.5933
 3007TIP3   OH230435   2.177   5.542  12.153  0.3990  0.3521 -0.3658
 3007TIP3    H130436   2.194   5.448  12.142 -2.1182 -0.3210  0.7431
 3007TIP3    H230437   2.254   5.575  12.200  1.5390 -1.0287 -1.1607
 3008TIP3   OH230438   5.667   4.445   3.986  0.5942  0.1587  0.0554
 3008TIP3    H130439   5.676   4.467   4.078 -2.0242 -1.7298  0.8696
 3008TIP3    H230440   5.707   4.358   3.978  1.3398  0.5614 -0.7450
 3009TIP3   OH230441   1.408   2.998   1.777  0.4794 -0.5549 -0.0732
 3009TIP3    H130442   1.343   2.951   1.828  1.3084 -0.9610  0.6284
 3009TIP3    H230443   1.357   3.049   1.713 -0.4576 -1.9329 -0.4555
 3010TIP3   OH230444   6.007   5.720  15.022 -0.0997  0.2637  0.3494
 3010TIP3    H130445   6.016   5.651  15.088 -0.4933 -0.2986 -0.1627
 3010TIP3    H230446   6.033   5.678  14.940 -0.6217  0.6400 -0.0152
 3011TIP3   OH230447   6.493   5.983   5.210  0.1118 -0.1191  0.2149
 3011TIP3    H130448   6.494   5.907   5.153 -1.4725  0.6732 -0.9505
 3011TIP3    H230449   6.403   5.989   5.242  0.3212  0.9747  0.6786
 3012TIP3   OH230450   6.633   2.675  11.614 -0.4504 -0.1400 -0.1892
 3012TIP3    H130451   6.674   2.653  11.698 -3.2666 -1.4903  0.9795
 3012TIP3    H230452   6.556   2.727  11.639 -1.3231 -0.5404 -1.9165
 3013TIP3   OH230453   2.972   3.054  15.663  0.5057 -0.5017 -0.5542
 3013TIP3    H130454   3.049   3.029  15.715 -0.3398  0.8956  1.5067
 3013TIP3    H230455   2.930   3.123  15.715 -1.3571 -0.2207 -2.3275
 3014TIP3   OH230456   2.485   1.501   0.232  0.4521  0.0531  0.5833
 3014TIP3    H130457   2.514   1.497   0.323 -0.2801 -1.5547  0.7902
 3014TIP3    H230458   2.519   1.584   0.199  1.8548  0.0592  1.9378
 3015TIP3   OH230459   6.254   2.945  13.163 -0.0502 -0.1511  0.1290
 3015TIP3    H130460   6.262   2.927  13.257 -0.8804  1.5260  0.5757
 3015TIP3    H230461   6.210   3.030  13.159  1.2641  0.5081 -1.7753
 3016TIP3   OH230462   0.048   1.939   5.728  0.4867 -0.2282  0.0594
 3016TIP3    H130463   0.125   1.994   5.711  1.6772 -1.7352  0.2684
 3016TIP3    H230464  -0.010   1.955   5.654  0.2360  2.1680  0.7026
 3017TIP3   OH230465   5.976   2.006   1.351 -0.2549 -0.6159  0.6130
 3017TIP3    H130466   5.920   1.960   1.289  1.3983 -0.1761 -1.2872
 3017TIP3    H230467   6.013   1.936   1.405 -0.9783 -1.0919  0.5126
 3018TIP3   OH230468   6.068   6.627   2.229  0.3474  0.5131  0.2728
 3018TIP3    H130469   6.035   6.565   2.295  0.9639  1.1009  1.1561
 3018TIP3    H230470   6.137   6.675   2.274  0.1509  1.5713 -0.5252
 3019TIP3   OH230471   4.828   6.584   1.776 -0.2143 -0.0586  0.2093
 3019TIP3    H130472   4.739   6.601   1.808  0.4128  0.7985  1.6313
 3019TIP3    H230473   4.882   6.650   1.821  1.1995 -0.8552 -0.2628
 3020TIP3   OH230474   5.968   6.345   0.745  0.1583 -0.0180 -0.3283
 3020TIP3    H130475   6.000   6.328   0.657  2.4072 -0.0305  0.4241
 3020TIP3    H230476   5.976   6.260   0.790 -0.8973  0.0061 -0.0647
 3021TIP3   OH230477   1.026   4.357   0.768 -0.2435 -0.3804  0.1918
 3021TIP3    H130478   1.104   4.328   0.815 -0.3047  0.4062  0.7949
 3021TIP3    H230479   1.060   4.415   0.700 -0.3814  1.2971  1.4842
 3022TIP3   OH230480   1.689   3.592  12.261 -0.5454 -0.1486  0.6602
 3022TIP3    H130481   1.613   3.548  12.224 -1.4509  1.3148  0.7157
 3022TIP3    H230482   1.661   3.682  12.274  1.4971  0.6847 -0.2436
 3023TIP3   OH230483   4.177   1.745  14.783  0.5327 -0.4374 -0.4203
 3023TIP3    H130484   4.106   1.694  14.821  0.4156 -0.3866 -0.5713
 3023TIP3    H230485   4.227   1.777  14.858  0.6621 -0.8536 -0.3295
 3024TIP3   OH230486   2.930   0.687   3.376  0.2727 -0.4346 -0.4938
 3024TIP3    H130487   3.005   0.638   3.340  0.2173  0.2928 -1.6612
 3024TIP3    H230488   2.970   0.754   3.432  0.4351 -0.7408 -0.2400
 3025TIP3   OH230489   6.581   3.422   1.065  0.3916  0.0356  0.5517
 3025TIP3    H130490   6.537   3.445   0.984  1.0754 -2.9695 -0.8133
 3025TIP3    H230491   6.521   3.451   1.134 -1.1078  0.9473 -1.0715
 3026TIP3   OH230492   2.351   4.119  14.886  1.3242  0.7508 -0.0854
 3026TIP3    H130493   2.426   4.166  14.850  1.2930  0.9928  0.1580
 3026TIP3    H230494   2.328   4.169  14.965  1.8683 -0.1837  0.6921
 3027TIP3   OH230495   3.368   3.838  17.264  0.3148  0.0734 -0.3572
 3027TIP3    H130496   3.442   3.835  17.325 -1.8187  0.1825  2.3970
 3027TIP3    H230497   3.335   3.749  17.261 -1.0851  0.5286  0.6446
 3028TIP3   OH230498   6.617   0.926   1.877  0.0283 -0.3536 -0.0571
 3028TIP3    H130499   6.707   0.948   1.855 -0.1572 -0.6097 -1.0911
 3028TIP3    H230500   6.625   0.848   1.933  0.3744 -1.6850 -1.8952
 3029TIP3   OH230501   0.855   6.373  14.041 -0.0336  0.0703  0.1508
 3029TIP3    H130502   0.912   6.414  13.976  0.7350  1.4274  1.6099
 3029TIP3    H230503   0.915   6.326  14.098 -0.7387 -1.4606 -0.3167
 3030TIP3   OH230504   3.310   2.231  13.686  0.0499 -0.0809  0.0060
 3030TIP3    H130505   3.273   2.179  13.757  0.0969 -1.3867 -0.8824
 3030TIP3    H230506   3.239   2.237  13.621 -0.0488  1.2311  0.1949
 3031TIP3   OH230507   4.126   4.425  15.333 -0.4070 -0.1465  0.1854
 3031TIP3    H130508   4.138   4.519  15.340  1.5158 -0.3027 -0.3909
 3031TIP3    H230509   4.137   4.392  15.423 -3.7618  0.3415  0.9085
 3032TIP3   OH230510   2.535   0.261   1.520 -0.3548  0.2136 -0.4511
 3032TIP3    H130511   2.561   0.282   1.431  0.9544 -0.7202 -0.3063
 3032TIP3    H230512   2.563   0.338   1.571  2.3337 -0.7610 -0.2907
 3033TIP3   OH230513   5.504   6.051  15.246  0.3825 -0.4136 -0.2351
 3033TIP3    H130514   5.444   6.081  15.177 -0.4856  1.3104  1.1706
 3033TIP3    H230515   5.456   5.980  15.289 -0.6975  0.8898  0.8184
 3034TIP3   OH230516   2.949   4.419  16.327  0.4425 -0.2185  0.1232
 3034TIP3    H130517   3.014   4.429  16.257 -0.5675 -0.1305 -0.8347
 3034TIP3    H230518   2.990   4.361  16.391  0.9142 -1.3561 -1.1618
 3035TIP3   OH230519   2.702   5.574  12.495 -0.1355  0.2382  0.1847
 3035TIP3    H130520   2.796   5.563  12.508 -0.3116 -0.0394  1.3825
 3035TIP3    H230521   2.689   5.559  12.401  1.1396  1.3420 -0.2055
 3036TIP3   OH230522   6.277   5.793  15.375 -0.2702  0.1436 -0.0695
 3036TIP3    H130523   6.287   5.809  15.469 -1.3395 -0.5368  0.1829
 3036TIP3    H230524   6.186   5.816  15.356 -0.4028 -0.8223 -0.6906
 3037TIP3   OH230525   1.558   2.827  14.230  0.1915  0.5600 -0.3331
 3037TIP3    H130526   1.519   2.889  14.168 -2.7438  1.5501  2.2281
 3037TIP3    H230527   1.608   2.882  14.290 -1.3095  0.3643  1.1602
 3038TIP3   OH230528   1.732   5.973  14.307 -0.1142  0.5627 -0.0454
 3038TIP3    H130529   1.696   5.907  14.367 -0.4475  1.3127  0.6052
 3038TIP3    H230530   1.655   6.019  14.273  0.0206 -0.3473 -1.6646
 3039TIP3   OH230531   1.819   4.612   4.638  0.4216 -0.1581 -0.0325
 3039TIP3    H130532   1.856   4.700   4.635 -0.7831  0.4085  0.6207
 3039TIP3    H230533   1.736   4.623   4.686  0.6423 -1.7937  0.8003
 3040TIP3   OH230534   2.822   0.333   5.684 -0.3631 -0.0313 -0.0167
 3040TIP3    H130535   2.803   0.352   5.776  1.6752  0.6720  0.3000
 3040TIP3    H230536   2.802   0.414   5.637  2.0846  0.8563  0.3794
 3041TIP3   OH230537   2.008   2.512   2.590 -0.2396  0.1564 -0.2417
 3041TIP3    H130538   2.065   2.488   2.663 -2.7204 -0.3092  1.6928
 3041TIP3    H230539   2.006   2.607   2.590  2.6963  0.3228 -2.2253
 3042TIP3   OH230540   0.447   6.299   4.494  0.3272  0.0616  0.0472
 3042TIP3    H130541   0.377   6.236   4.510 -0.9963  0.6257 -2.9057
 3042TIP3    H230542   0.423   6.375   4.547  0.0826 -0.6251  0.9579
 3043TIP3   OH230543   4.535   6.587  13.878  0.2300  0.6595  0.4556
 3043TIP3    H130544   4.456   6.540  13.852  1.1852 -1.1747  0.7017
 3043TIP3    H230545   4.595   6.577  13.803  1.2867 -0.5883  1.4217
 3044TIP3   OH230546   6.050   6.320   5.277  0.0354 -0.5180 -0.3040
 3044TIP3    H130547   6.019   6.371   5.201  0.3471 -0.8951 -0.6899
 3044TIP3    H230548   6.040   6.379   5.351  1.3213  0.4882 -0.8833
 3045TIP3   OH230549   3.915   0.458   0.212 -0.2983 -0.0332 -0.0540
 3045TIP3    H130550   3.845   0.479   0.274 -1.0308 -2.1792 -0.0557
 3045TIP3    H230551   3.987   0.516   0.236 -0.3410 -1.1658  3.2287
 3046TIP3   OH230552   3.146   4.816   3.859  0.1229  0.2073  0.4156
 3046TIP3    H130553   3.190   4.878   3.802 -1.4723  1.4952  0.5178
 3046TIP3    H230554   3.072   4.783   3.807 -0.5480  0.3623  1.2517
 3047TIP3   OH230555   1.913   0.111  13.707  0.4369 -0.7640  0.2759
 3047TIP3    H130556   1.871   0.035  13.668 -0.3312 -0.5190  0.6132
 3047TIP3    H230557   1.842   0.172  13.727  0.5827 -1.4117  3.2834
 3048TIP3   OH230558   2.591   4.120   1.967 -0.2063  0.0485 -0.4741
 3048TIP3    H130559   2.504   4.133   2.006 -0.5644  0.7888 -1.4679
 3048TIP3    H230560   2.616   4.032   1.994 -0.2544  0.6461  1.7311
 3049TIP3   OH230561   5.780   3.913  11.656  0.0654 -0.2085 -0.2259
 3049TIP3    H130562   5.816   3.862  11.583  0.3171  0.5295 -0.6410
 3049TIP3    H230563   5.692   3.878  11.670  0.0588 -0.4370 -0.8206
 3050TIP3   OH230564   5.287   2.882  15.048 -0.4075 -0.0829 -0.2368
 3050TIP3    H130565   5.240   2.951  15.001  0.8571  2.0199  1.4001
 3050TIP3    H230566   5.289   2.911  15.139  0.4884 -2.1361  0.4675
 3051TIP3   OH230567   4.531   5.819   1.309 -0.5959  0.1319  0.3170
 3051TIP3    H130568   4.610   5.866   1.335 -1.4576  2.1866 -0.5903
 3051TIP3    H230569   4.541   5.806   1.215 -1.0879 -0.1042  0.2943
 3052TIP3   OH230570   2.152   0.513  16.155 -0.0139  0.0753  1.1176
 3052TIP3    H130571   2.166   0.425  16.121  1.9887  0.3375  1.1284
 3052TIP3    H230572   2.057   0.525  16.152 -0.3674 -2.1782  1.4281
 3053TIP3   OH230573   0.797   1.774   3.864 -0.0999  0.4073  0.0872
 3053TIP3    H130574   0.720   1.830   3.850  0.3983  0.2930 -5.1093
 3053TIP3    H230575   0.869   1.836   3.877 -0.0122  1.0726 -2.7810
 3054TIP3   OH230576   3.676   6.261   6.283  0.0575 -0.4396 -0.5952
 3054TIP3    H130577   3.611   6.228   6.221 -0.2397  0.1756 -0.6159
 3054TIP3    H230578   3.630   6.327   6.334  0.3040 -0.9413  0.2883
 3055TIP3   OH230579   4.919   0.342  15.521 -0.1142 -0.6377  0.1613
 3055TIP3    H130580   4.846   0.306  15.471  0.1898  1.3174 -1.8221
 3055TIP3    H230581   4.929   0.282  15.595 -2.1698 -2.2820 -0.7947
 3056TIP3   OH230582   5.212   2.652  16.433  0.3957 -0.5010 -0.1061
 3056TIP3    H130583   5.260   2.728  16.467  2.1462 -0.6859 -1.9997
 3056TIP3    H230584   5.242   2.579  16.487  0.1137 -0.1739  0.5097
 3057TIP3   OH230585   5.911   4.480  13.328 -0.1616  0.0912 -0.0010
 3057TIP3    H130586   5.992   4.430  13.319  0.3456  0.6467  1.2760
 3057TIP3    H230587   5.913   4.541  13.254 -0.1429 -0.8690 -0.8110
 3058TIP3   OH230588   1.755   5.974  17.127  0.2573  0.5379  0.7022
 3058TIP3    H130589   1.797   6.023  17.198 -1.0833 -0.3194  2.1570
 3058TIP3    H230590   1.683   5.927  17.170 -1.0654  0.5500 -1.3602
 3059TIP3   OH230591   2.882   6.409  12.456 -0.5356 -0.1678 -0.1467
 3059TIP3    H130592   2.893   6.352  12.380  0.2280  1.3109 -1.1826
 3059TIP3    H230593   2.901   6.352  12.531 -0.5075 -1.4444 -1.0955
 3060TIP3   OH230594   5.069   3.940   3.438  0.1754  0.2630 -0.3238
 3060TIP3    H130595   5.099   3.989   3.514  1.2084 -0.8878  0.0580
 3060TIP3    H230596   5.013   3.871   3.473  0.0566  0.1783 -0.6708
 3061TIP3   OH230597   4.742   3.940   5.820 -0.2423  0.1554 -0.9679
 3061TIP3    H130598   4.670   3.944   5.882 -0.2220 -0.1565 -0.9217
 3061TIP3    H230599   4.759   4.031   5.796 -0.0405  0.3056 -0.2681
 3062TIP3   OH230600   3.473   2.085  12.664  0.4359 -0.7753  0.4932
 3062TIP3    H130601   3.482   2.180  12.663  1.6906 -0.8935 -0.3917
 3062TIP3    H230602   3.562   2.052  12.675  0.4913 -1.8950 -2.5066
 3063TIP3   OH230603   2.317   3.059  11.533  0.0705 -0.2025  0.2439
 3063TIP3    H130604   2.241   3.070  11.476 -1.4203  0.3607  2.2290
 3063TIP3    H230605   2.344   3.149  11.553  1.5443 -0.3936 -0.7466
 3064TIP3   OH230606   3.331   4.048  13.934  0.0548  0.1316  0.3176
 3064TIP3    H130607   3.247   4.054  13.887  0.3778  0.4383 -0.2203
 3064TIP3    H230608   3.386   3.995  13.876  0.3203  0.1593  0.5497
 3065TIP3   OH230609   0.654   1.562  15.929  0.1239  0.1340  0.2768
 3065TIP3    H130610   0.633   1.640  15.980  0.7004  1.1922 -1.0565
 3065TIP3    H230611   0.705   1.594  15.855  1.4400 -1.6642  0.3417
 3066TIP3   OH230612   3.033   0.348  16.906  0.3462 -0.7617 -0.0593
 3066TIP3    H130613   2.987   0.287  16.849 -0.4930 -0.6353  0.4659
 3066TIP3    H230614   3.118   0.307  16.921  1.1261 -0.1637 -2.4576
 3067TIP3   OH230615   1.941   3.081  16.951  0.1315  0.0358  0.3098
 3067TIP3    H130616   2.029   3.045  16.961  0.4562  0.5782 -0.4640
 3067TIP3    H230617   1.924   3.126  17.034  0.9612  0.6994  0.1423
 3068TIP3   OH230618   5.386   4.658   4.809 -0.2032 -0.0828  0.2081
 3068TIP3    H130619   5.308   4.605   4.793 -0.1372 -0.2510  0.4258
 3068TIP3    H230620   5.416   4.686   4.723 -0.4439 -0.1067  0.1181
 3069TIP3   OH230621   0.989   6.407  17.005  0.2719 -0.1679 -0.4901
 3069TIP3    H130622   1.081   6.419  17.024  0.9033 -1.1308 -2.5646
 3069TIP3    H230623   0.966   6.324  17.047 -0.0329  0.6685  1.0716
 3070TIP3   OH230624   3.860   3.782   0.338  0.4734 -0.0142  0.0082
 3070TIP3    H130625   3.837   3.736   0.420  0.4769  0.4772  0.2860
 3070TIP3    H230626   3.940   3.830   0.359  0.1198  0.6276 -0.0931
 3071TIP3   OH230627   1.322   3.706   2.314 -0.2603  0.4682 -0.3817
 3071TIP3    H130628   1.353   3.796   2.328  1.1160  0.1538 -1.1711
 3071TIP3    H230629   1.277   3.683   2.395  3.0355  0.4397  1.6361
 3072TIP3   OH230630   6.051   2.851   3.368 -0.6923 -0.2380  0.1490
 3072TIP3    H130631   6.138   2.884   3.346 -0.3153 -2.5402 -2.2684
 3072TIP3    H230632   6.067   2.772   3.419 -1.3721 -0.6583 -0.2747
 3073TIP3   OH230633   0.876   2.178  14.217 -0.2006 -0.4180 -0.0255
 3073TIP3    H130634   0.955   2.231  14.224  0.4293 -1.3931  0.3588
 3073TIP3    H230635   0.846   2.192  14.127  0.4082 -0.0406 -0.1743
 3074TIP3   OH230636   1.847   4.132   4.388 -0.4017 -0.2096 -0.0632
 3074TIP3    H130637   1.801   4.138   4.304 -0.8426 -0.7583  0.1346
 3074TIP3    H230638   1.875   4.221   4.406 -0.9069  0.0371 -0.4609
 3075TIP3   OH230639   2.954   0.894  17.057  0.2764 -0.3720  0.4840
 3075TIP3    H130640   2.966   0.858  17.145  1.0707  2.7126  1.7915
 3075TIP3    H230641   2.916   0.981  17.073  0.9544  0.4885 -2.1957
 3076TIP3   OH230642   4.387   3.769   2.826 -0.3200 -0.1563  0.3896
 3076TIP3    H130643   4.360   3.681   2.801  0.5406 -0.5655  0.8623
 3076TIP3    H230644   4.440   3.799   2.752 -0.6575 -0.0100  0.2049
 3077TIP3   OH230645   5.919   2.561   5.435  0.0971 -0.8180  0.6772
 3077TIP3    H130646   5.994   2.500   5.434 -0.2063 -1.2277  1.3906
 3077TIP3    H230647   5.906   2.580   5.528  0.6224  0.9067  0.4257
 3078TIP3   OH230648   2.402   3.071  13.696  0.5299  0.3563 -0.8973
 3078TIP3    H130649   2.435   3.052  13.784  0.0257 -1.3413 -1.0375
 3078TIP3    H230650   2.350   2.994  13.673 -0.5383  1.3926 -2.1216
 3079TIP3   OH230651   3.284   4.655   1.143  0.2969  0.3445  0.7400
 3079TIP3    H130652   3.216   4.665   1.210  0.1256  0.6102  0.5313
 3079TIP3    H230653   3.362   4.696   1.181  0.4414 -0.2720  1.1206
 3080TIP3   OH230654   6.406   6.763  12.495 -0.7643 -0.3059 -0.2066
 3080TIP3    H130655   6.476   6.758  12.430  1.3356  1.7027  1.7325
 3080TIP3    H230656   6.432   6.701  12.563 -1.3053 -0.1475  0.1501
 3081TIP3   OH230657   4.634   3.481  16.407  0.3235 -0.2257  0.2009
 3081TIP3    H130658   4.602   3.391  16.420 -0.0721 -0.1298 -0.0946
 3081TIP3    H230659   4.721   3.481  16.447  0.1360 -0.6153  0.6257
 3082TIP3   OH230660   0.145   6.282  15.776 -0.2737  0.2733  0.4430
 3082TIP3    H130661   0.103   6.245  15.698  0.2794  0.2856  0.1370
 3082TIP3    H230662   0.083   6.349  15.806 -0.4436  0.3377 -0.0426
 3083TIP3   OH230663   6.370   0.699   3.431  0.1837  0.2543 -0.4779
 3083TIP3    H130664   6.340   0.627   3.487  2.1762 -0.4865 -0.2823
 3083TIP3    H230665   6.463   0.680   3.415  0.3472  1.9175 -1.7874
 3084TIP3   OH230666   5.258   1.010   6.580  0.0889  0.2628  0.3535
 3084TIP3    H130667   5.174   1.021   6.537  0.6319  1.3357 -0.4960
 3084TIP3    H230668   5.263   0.917   6.602  0.0192 -0.4765 -2.4197
 3085TIP3   OH230669   0.763   1.517  13.766  0.2659 -0.2380  0.3103
 3085TIP3    H130670   0.824   1.533  13.694  0.7869  0.0596  0.8069
 3085TIP3    H230671   0.818   1.510  13.844 -0.3775  0.9276  0.9130
 3086TIP3   OH230672   5.050   3.716  15.354 -0.0224  0.4094  0.3437
 3086TIP3    H130673   5.017   3.660  15.284 -0.9403  0.7782  0.4599
 3086TIP3    H230674   4.999   3.797  15.346 -0.6433  0.2041  1.8411
 3087TIP3   OH230675   4.974   1.126   3.081 -0.0332 -0.1613 -0.1937
 3087TIP3    H130676   4.985   1.209   3.127 -3.6584 -0.2058  1.0695
 3087TIP3    H230677   4.983   1.060   3.150 -0.5057 -0.5720 -0.5211
 3088TIP3   OH230678   4.618   0.048  13.992  0.2724  0.6588 -0.2714
 3088TIP3    H130679   4.571  -0.028  13.959  1.2799  0.7409 -1.9929
 3088TIP3    H230680   4.552   0.118  13.993 -0.4209  0.0229  0.4437
 3089TIP3   OH230681   0.421   4.704   4.043  0.0718  0.4498 -0.0160
 3089TIP3    H130682   0.404   4.725   4.135 -0.4674  1.5908 -0.3622
 3089TIP3    H230683   0.364   4.763   3.994  2.8752  2.4212 -1.1803
 3090TIP3   OH230684   0.617   0.610  12.766 -0.3057 -0.4868 -0.0083
 3090TIP3    H130685   0.541   0.639  12.715  0.0292 -0.2472 -0.3735
 3090TIP3    H230686   0.692   0.631  12.711  0.1624  1.0533  1.1584
 3091TIP3   OH230687   5.191   1.996   5.848 -0.2099  0.2265 -0.0143
 3091TIP3    H130688   5.167   2.057   5.917 -0.1979  0.4504 -0.2054
 3091TIP3    H230689   5.272   2.031   5.812 -1.0338  0.9955 -1.1921
 3092TIP3   OH230690   4.572   0.790   5.741 -0.3707 -0.3758 -0.0359
 3092TIP3    H130691   4.666   0.773   5.747 -0.3756 -0.2251  0.5646
 3092TIP3    H230692   4.541   0.785   5.832 -0.3147  3.1083  0.3210
 3093TIP3   OH230693   0.049   4.520  15.292 -0.4084  0.1479 -0.1257
 3093TIP3    H130694   0.045   4.578  15.369 -1.1314  0.2479 -0.2297
 3093TIP3    H230695   0.080   4.577  15.222 -0.0338  0.1302  0.0224
 3094TIP3   OH230696   5.860   5.533   3.201 -0.5134  0.2364  0.3989
 3094TIP3    H130697   5.892   5.472   3.135 -2.0177  0.0762 -0.2146
 3094TIP3    H230698   5.917   5.610   3.192  0.1407 -0.2990 -0.1605
 3095TIP3   OH230699   0.775   5.997  13.233 -0.0895 -0.2747 -0.0162
 3095TIP3    H130700   0.821   6.076  13.263  0.4908 -0.6444  0.0648
 3095TIP3    H230701   0.843   5.931  13.222 -0.4849 -0.5833 -0.7216
 3096TIP3   OH230702   1.361   1.375  16.662 -0.1280  0.4905  0.0820
 3096TIP3    H130703   1.441   1.344  16.704 -0.3420  1.2388  1.0682
 3096TIP3    H230704   1.341   1.308  16.596  0.0162 -0.9039  1.3930
 3097TIP3   OH230705   4.084   1.382   0.109 -0.4347  0.1678 -0.5268
 3097TIP3    H130706   4.071   1.352   0.199  0.6239  0.5507 -0.2296
 3097TIP3    H230707   4.073   1.477   0.113 -2.1510  0.0363 -1.1571
 3098TIP3   OH230708   4.766   6.776  11.282  0.0243 -0.3700  0.3268
 3098TIP3    H130709   4.784   6.763  11.189 -1.9390 -0.1812 -0.1151
 3098TIP3    H230710   4.792   6.867  11.299  0.6521 -0.4930  0.0337
 3099TIP3   OH230711   1.291   5.566   3.370  0.2115 -0.3378 -0.2481
 3099TIP3    H130712   1.317   5.628   3.439  0.3721 -0.2346 -0.3992
 3099TIP3    H230713   1.374   5.541   3.329  0.0725 -0.0532 -0.6971
 3100TIP3   OH230714   1.989   0.384   6.470  0.2123  0.2591  0.2956
 3100TIP3    H130715   2.058   0.346   6.415  0.5312 -1.1557  1.5767
 3100TIP3    H230716   1.969   0.468   6.430 -0.1212 -0.9955 -2.4053
 3101TIP3   OH230717   6.721   5.521   3.885 -0.1008 -0.2051 -0.3012
 3101TIP3    H130718   6.655   5.453   3.894 -1.3634  0.5943 -2.6878
 3101TIP3    H230719   6.746   5.518   3.793  2.4502  0.2421  0.3008
 3102TIP3   OH230720   2.743   5.807   2.247  0.5058  0.2916 -0.1017
 3102TIP3    H130721   2.770   5.887   2.202  0.3592 -0.3573 -1.3708
 3102TIP3    H230722   2.786   5.812   2.332  1.1384  1.3335 -0.4631
 3103TIP3   OH230723   5.480   2.843   4.376 -0.2172  0.0815 -0.9564
 3103TIP3    H130724   5.555   2.855   4.435 -0.8593 -1.2388  0.1971
 3103TIP3    H230725   5.518   2.846   4.289  0.9997  0.6335 -0.4341
 3104TIP3   OH230726   1.717   5.220   6.144  0.2273  0.1557 -0.3881
 3104TIP3    H130727   1.784   5.288   6.150 -1.4442  1.8239  0.4015
 3104TIP3    H230728   1.671   5.224   6.228 -1.4090 -0.3108 -1.2178
 3105TIP3   OH230729   6.262   2.576  11.506  0.1026 -0.1069 -0.0512
 3105TIP3    H130730   6.329   2.580  11.438  3.2891  0.7488  2.8708
 3105TIP3    H230731   6.247   2.483  11.521  3.3768 -0.5256  1.4976
 3106TIP3   OH230732   3.574   1.416   4.732  0.0955 -0.5686  0.2794
 3106TIP3    H130733   3.512   1.486   4.753 -0.1504 -0.7913  0.2992
 3106TIP3    H230734   3.656   1.462   4.711 -0.3464 -0.2102 -0.7404
 3107TIP3   OH230735   5.514   4.855  15.291  0.6915 -0.1315 -0.0104
 3107TIP3    H130736   5.431   4.900  15.312  0.1022 -1.0222 -0.3860
 3107TIP3    H230737   5.532   4.880  15.201  1.4804  1.0094  0.4240
 3108TIP3   OH230738   0.774   0.202  11.224 -0.1102 -0.0585  0.2848
 3108TIP3    H130739   0.739   0.195  11.135 -1.5924  2.6880  0.5350
 3108TIP3    H230740   0.866   0.225  11.211  0.6805 -3.2283 -0.4269
 3109TIP3   OH230741   6.034   4.680   4.038  0.1334  0.1260 -0.2590
 3109TIP3    H130742   6.070   4.642   4.118  0.4656  1.8832  0.4807
 3109TIP3    H230743   6.104   4.671   3.973  0.1819 -0.5546 -0.1129
 3110TIP3   OH230744   3.167   2.994  13.216 -0.1685  0.1715  0.7022
 3110TIP3    H130745   3.073   2.989  13.198 -0.2471 -0.2503  1.1931
 3110TIP3    H230746   3.174   2.970  13.309  0.3838  0.6008  0.7692
 3111TIP3   OH230747   4.287   5.319   2.076  0.1567 -0.1562  0.3296
 3111TIP3    H130748   4.339   5.390   2.114  1.2556 -0.2915 -0.8291
 3111TIP3    H230749   4.340   5.240   2.092  0.3637 -0.2933 -0.8898
 3112TIP3   OH230750   5.732   6.766   0.180  0.2545 -0.7433 -0.1317
 3112TIP3    H130751   5.787   6.701   0.223  0.1991 -0.4279  0.4309
 3112TIP3    H230752   5.642   6.737   0.198  0.1970 -1.8781 -1.9880
 3113TIP3   OH230753   2.968   1.861   4.593 -0.7699  0.2617  0.1548
 3113TIP3    H130754   2.938   1.770   4.595  0.7687 -0.2921  2.7718
 3113TIP3    H230755   2.919   1.904   4.663  0.0200  0.9118  0.3221
 3114TIP3   OH230756   3.284   0.804  13.090  0.1338 -0.0963  0.3508
 3114TIP3    H130757   3.359   0.756  13.056  0.2016 -0.6959  1.2957
 3114TIP3    H230758   3.295   0.893  13.057  1.8994  0.1161  1.4015
 3115TIP3   OH230759   5.833   4.738   6.268 -0.0125 -0.4364  0.2593
 3115TIP3    H130760   5.885   4.708   6.193  0.8596 -1.5663  1.2730
 3115TIP3    H230761   5.880   4.815   6.300  0.0259 -0.3890  0.0945
 3116TIP3   OH230762   4.953   1.548   3.814 -0.9099 -0.4509 -0.3009
 3116TIP3    H130763   5.027   1.608   3.819 -0.4271 -0.9616 -1.1464
 3116TIP3    H230764   4.916   1.548   3.902  0.5825 -0.8093  0.3528
 3117TIP3   OH230765   1.053   2.614   6.670  0.1692 -0.3663  1.2659
 3117TIP3    H130766   0.983   2.591   6.731  1.9581 -0.8348  3.2645
 3117TIP3    H230767   1.059   2.538   6.611  0.3298 -1.2356  2.3716
 3118TIP3   OH230768   6.466   1.860   0.145  0.2112  0.0212 -0.3007
 3118TIP3    H130769   6.437   1.773   0.117  1.5509 -0.9686  1.1937
 3118TIP3    H230770   6.413   1.920   0.094 -1.3407 -1.6703 -0.8103
 3119TIP3   OH230771   5.920   0.947   4.762  0.3729  0.4943 -0.0833
 3119TIP3    H130772   5.991   0.898   4.805  1.8920  2.0803 -0.6684
 3119TIP3    H230773   5.965   1.006   4.702 -1.5553  0.4579 -1.6600
 3120TIP3   OH230774   0.022   4.390   3.318  0.0291  0.5330  0.2808
 3120TIP3    H130775   0.068   4.307   3.332 -1.2438 -0.3850 -0.7989
 3120TIP3    H230776   0.091   4.456   3.322  1.5249 -0.8208 -1.6061
 3121TIP3   OH230777   1.084   6.388  15.708 -0.2616  0.2978  0.5112
 3121TIP3    H130778   1.114   6.458  15.650  0.2709  0.1080  0.5529
 3121TIP3    H230779   1.131   6.310  15.677  1.4913  0.5407  2.3712
 3122TIP3   OH230780   2.711   4.555   6.241 -0.2593  0.0361 -0.1994
 3122TIP3    H130781   2.691   4.615   6.170 -1.5052 -1.1700 -0.9244
 3122TIP3    H230782   2.665   4.474   6.217  1.8811 -1.4369  0.3749
 3123TIP3   OH230783   5.267   2.883  12.009  0.5218  0.2486 -0.6486
 3123TIP3    H130784   5.360   2.907  12.006  0.0593  2.0192 -1.8826
 3123TIP3    H230785   5.245   2.860  11.919 -0.5489  1.0987 -0.6190
 3124TIP3   OH230786   6.072   6.580  16.459  0.7512 -0.1046  0.2381
 3124TIP3    H130787   6.154   6.538  16.484  0.4764  0.0743  1.5569
 3124TIP3    H230788   6.004   6.523  16.496  0.3206  0.3018  0.0863
 3125TIP3   OH230789   5.969   3.158   6.234  0.6896 -0.0124  0.7051
 3125TIP3    H130790   5.919   3.235   6.261  1.1563 -0.1126  1.9090
 3125TIP3    H230791   5.983   3.109   6.315  1.0258 -0.9990  0.0681
 3126TIP3   OH230792   3.771   4.886  12.084 -0.1185 -0.6007  0.0385
 3126TIP3    H130793   3.775   4.967  12.032  0.0120 -0.8884 -0.4020
 3126TIP3    H230794   3.809   4.819  12.027  0.8852 -0.7461  0.8331
 3127TIP3   OH230795   3.474   5.963   0.991  0.0171  0.2376 -0.2549
 3127TIP3    H130796   3.468   6.036   0.930 -0.3817  0.3357 -0.0993
 3127TIP3    H230797   3.387   5.922   0.989  0.5078 -0.8286 -1.0740
 3128TIP3   OH230798   3.969   4.408  15.993  0.1048  0.1750  0.0779
 3128TIP3    H130799   3.914   4.355  15.935  1.2604 -1.1520  0.1619
 3128TIP3    H230800   4.052   4.415  15.947  0.5608  0.3377  0.9183
 3129TIP3   OH230801   6.085   2.835  11.871 -0.4165 -0.4786 -0.4397
 3129TIP3    H130802   6.045   2.789  11.945  0.5099 -0.1473  0.2793
 3129TIP3    H230803   6.026   2.908  11.853  0.3465  0.6246  1.2940
 3130TIP3   OH230804   4.656   6.767  11.538 -0.3508 -0.1413 -0.0290
 3130TIP3    H130805   4.740   6.747  11.578  0.2848  1.5521 -0.4277
 3130TIP3    H230806   4.673   6.767  11.444 -1.6765 -3.3824 -0.4032
 3131TIP3   OH230807   0.118   6.643  17.047 -0.3278 -0.2582 -0.1681
 3131TIP3    H130808   0.179   6.708  17.082 -0.2463  0.8698 -2.2650
 3131TIP3    H230809   0.173   6.567  17.029  0.0072 -0.1048  0.1855
 3132TIP3   OH230810   3.506   3.393  16.073 -0.0570  0.6282  0.3708
 3132TIP3    H130811   3.584   3.392  16.129 -0.6443 -0.2499  1.2190
 3132TIP3    H230812   3.442   3.340  16.121 -1.8661  2.9241  0.6890
 3133TIP3   OH230813   5.385   1.955  12.369 -0.2100 -0.4519 -0.2647
 3133TIP3    H130814   5.336   2.000  12.437  0.9334  0.5157 -0.0456
 3133TIP3    H230815   5.443   1.896  12.416 -1.0269 -1.4816 -0.5163
 3134TIP3   OH230816   1.899   0.750  11.569  0.5482 -0.5926 -0.0725
 3134TIP3    H130817   1.940   0.733  11.484 -1.4014 -1.9242 -0.8217
 3134TIP3    H230818   1.818   0.795  11.547 -0.8806 -2.5624  0.8745
 3135TIP3   OH230819   3.858   2.070   5.990 -0.6828  0.3033 -0.2974
 3135TIP3    H130820   3.841   1.976   5.994 -0.9925  0.3811  0.3272
 3135TIP3    H230821   3.849   2.091   5.897  1.4323 -0.6373 -0.7751
 3136TIP3   OH230822   5.946   4.975   6.241  0.1405 -0.5697  0.0003
 3136TIP3    H130823   5.887   4.976   6.165  0.0482 -1.1965  0.0549
 3136TIP3    H230824   5.977   5.065   6.249 -0.6713 -0.2713 -0.1428
 3137TIP3   OH230825   2.830   3.390  17.070  0.2883 -0.0961 -0.2292
 3137TIP3    H130826   2.883   3.451  17.019  2.5451 -0.6629  1.2707
 3137TIP3    H230827   2.876   3.306  17.062  0.1292 -0.4270  1.8263
 3138TIP3   OH230828   5.153   6.290   2.864 -0.4934 -0.2131 -0.4189
 3138TIP3    H130829   5.155   6.361   2.800 -2.5222 -0.1401 -0.4951
 3138TIP3    H230830   5.181   6.331   2.946 -3.0943  1.1751 -0.1064
 3139TIP3   OH230831   3.788   4.846  16.148  0.2994 -0.4934 -0.3744
 3139TIP3    H130832   3.707   4.882  16.185  1.1598  2.2413 -0.9166
 3139TIP3    H230833   3.758   4.777  16.089 -2.0999  2.4583 -3.0474
 3140TIP3   OH230834   4.363   5.564   2.185  0.0822 -0.6700  0.4007
 3140TIP3    H130835   4.367   5.636   2.121  2.7163 -1.3016 -0.2808
 3140TIP3    H230836   4.392   5.603   2.267  0.8675 -0.7834  0.1844
 3141TIP3   OH230837   4.451   3.035  13.801 -0.0786  0.0855  0.5800
 3141TIP3    H130838   4.498   3.106  13.843 -1.5000  0.0845  2.3043
 3141TIP3    H230839   4.379   3.078  13.754  1.0062  0.0158 -1.2160
 3142TIP3   OH230840   5.862   0.390   0.878  0.0089 -0.6426  0.2483
 3142TIP3    H130841   5.908   0.458   0.927 -2.0269  0.6431  0.4715
 3142TIP3    H230842   5.857   0.425   0.788 -1.3780 -0.2558  0.4452
 3143TIP3   OH230843   3.182   2.038   2.664 -0.2684  0.0930  0.1077
 3143TIP3    H130844   3.119   1.973   2.694  0.1738  0.0198  0.8901
 3143TIP3    H230845   3.153   2.121   2.703  1.0162 -0.2187  1.8355
 3144TIP3   OH230846   6.287   2.747   0.270 -0.2361 -0.2119  0.4391
 3144TIP3    H130847   6.201   2.715   0.297  0.1888 -0.8183  1.1253
 3144TIP3    H230848   6.275   2.775   0.179 -1.1464 -0.2978  0.5192
 3145TIP3   OH230849   6.007   6.066   0.846 -0.5562  0.6650 -0.0439
 3145TIP3    H130850   5.935   6.048   0.785 -0.5286 -0.9288  0.3698
 3145TIP3    H230851   6.083   6.083   0.789 -0.9954  1.3060 -0.4586
 3146TIP3   OH230852   4.008   4.806  13.240 -0.0271  0.4808 -0.4912
 3146TIP3    H130853   3.913   4.799  13.250 -0.1875 -0.4068 -2.2538
 3146TIP3    H230854   4.040   4.716  13.245  0.9432  0.8815  1.5500
 3147TIP3   OH230855   6.214   4.554   2.196 -1.0466  0.0735  0.0665
 3147TIP3    H130856   6.231   4.476   2.143  1.8928 -0.2267  1.2467
 3147TIP3    H230857   6.263   4.624   2.152 -0.4076  0.3127  1.1125
 3148TIP3   OH230858   6.751   3.367  16.228  0.1924  0.1368 -0.1145
 3148TIP3    H130859   6.665   3.403  16.249  0.9326  2.2228 -0.4760
 3148TIP3    H230860   6.814   3.430  16.264  1.6700 -2.3054  1.9336
 3149TIP3   OH230861   3.134   3.866  17.000  0.3798  0.0200 -0.3592
 3149TIP3    H130862   3.225   3.894  16.988  0.7409 -0.6924  0.5597
 3149TIP3    H230863   3.088   3.945  17.028  1.1085  0.0122  0.9374
 3150TIP3   OH230864   6.503   0.400   1.346  0.6113 -0.0650 -0.2096
 3150TIP3    H130865   6.413   0.387   1.315  0.4112  0.7193  0.0172
 3150TIP3    H230866   6.500   0.377   1.439  1.6047 -4.2060 -0.9861
 3151TIP3   OH230867   2.465   6.140   1.871 -0.3364  0.2329  0.1267
 3151TIP3    H130868   2.469   6.221   1.922 -0.2816  1.2661 -1.4565
 3151TIP3    H230869   2.423   6.077   1.929 -0.4626  1.4225  1.3663
 3152TIP3   OH230870   0.453   5.501   4.622  0.3652 -0.3167 -0.1275
 3152TIP3    H130871   0.457   5.407   4.638  2.6951  0.0667  2.0546
 3152TIP3    H230872   0.419   5.538   4.703  0.0717  0.8021 -0.7416
 3153TIP3   OH230873   0.181   1.858  13.922 -0.2327  0.0996  0.6207
 3153TIP3    H130874   0.270   1.821  13.922 -1.0904 -2.1146  0.3022
 3153TIP3    H230875   0.179   1.913  13.843  1.1532  1.0862  1.2187
 3154TIP3   OH230876   1.948   4.004  13.555 -0.0690 -0.6546 -0.2597
 3154TIP3    H130877   1.982   3.957  13.479 -0.5524  0.0145 -0.9117
 3154TIP3    H230878   1.868   3.958  13.579  0.4239 -1.2501  0.2485
 3155TIP3   OH230879   5.809   0.047   0.892  0.2362 -0.3044  0.0715
 3155TIP3    H130880   5.771  -0.040   0.900  0.9546 -0.5042  1.5670
 3155TIP3    H230881   5.761   0.087   0.819 -1.0947 -1.4309  0.2890
 3156TIP3   OH230882   2.054   3.417   0.272  0.3460  0.2615  0.0419
 3156TIP3    H130883   2.112   3.426   0.197  0.3703 -0.3485 -0.0160
 3156TIP3    H230884   1.977   3.469   0.249  0.2394 -0.1397 -0.5246
 3157TIP3   OH230885   4.342   6.737   3.859  0.3075  0.5060  0.0330
 3157TIP3    H130886   4.412   6.797   3.883  1.1053 -0.2020 -0.4688
 3157TIP3    H230887   4.326   6.686   3.938 -0.7128  1.6719  0.6150
 3158TIP3   OH230888   3.442   5.945  15.538  0.4083 -0.4233 -0.4524
 3158TIP3    H130889   3.369   5.959  15.598  1.9903  1.1697  1.2257
 3158TIP3    H230890   3.401   5.934  15.453 -1.9779 -3.0873  0.8514
 3159TIP3   OH230891   1.901   0.329  14.252 -0.4301 -0.1333  0.0865
 3159TIP3    H130892   1.898   0.253  14.194 -1.6302  0.1774 -0.3040
 3159TIP3    H230893   1.946   0.397  14.201  0.5694 -0.5387  0.4042
 3160TIP3   OH230894   1.281   3.860   4.714 -0.2616  0.6280  0.4491
 3160TIP3    H130895   1.289   3.772   4.749 -1.4571  0.5147  0.5048
 3160TIP3    H230896   1.240   3.911   4.785 -0.6118  0.9408  0.0328
 3161TIP3   OH230897   2.749   2.899  10.285 -0.0036 -0.3502  0.2338
 3161TIP3    H130898   2.681   2.916  10.351 -0.2607 -2.1885  0.4865
 3161TIP3    H230899   2.831   2.908  10.333 -0.0802  0.8304  0.1758
 3162TIP3   OH230900   2.103   5.671  15.246 -0.1426  0.1521 -0.3009
 3162TIP3    H130901   2.045   5.721  15.302 -0.2796  1.5092 -1.6046
 3162TIP3    H230902   2.149   5.736  15.193  1.0633 -0.9974 -0.7439
 3163TIP3   OH230903   5.116   4.583  16.237  0.4039 -0.5656  0.5853
 3163TIP3    H130904   5.043   4.561  16.179  0.1259  0.3910  0.5648
 3163TIP3    H230905   5.174   4.636  16.184  0.1616  0.2962  1.1639
 3164TIP3   OH230906   4.666   4.052   5.107  0.5103  0.0579  0.0719
 3164TIP3    H130907   4.740   4.102   5.142  0.2830  0.7018 -0.3310
 3164TIP3    H230908   4.695   4.024   5.020 -0.0442  1.1337 -0.4887
 3165TIP3   OH230909   0.851   2.124   1.631 -0.1256  0.6116  0.3058
 3165TIP3    H130910   0.770   2.172   1.615  0.3526  0.5923 -2.5218
 3165TIP3    H230911   0.825   2.032   1.630 -0.0303  0.5846 -1.1012
 3166TIP3   OH230912   4.813   2.860  11.719 -0.0295  0.2733 -0.2701
 3166TIP3    H130913   4.752   2.857  11.793 -0.7041 -1.0103 -0.8493
 3166TIP3    H230914   4.879   2.794  11.740  0.0289  0.2276 -0.5884
 3167TIP3   OH230915   5.070   5.734   5.063 -0.8387 -0.4202 -0.0606
 3167TIP3    H130916   4.986   5.726   5.110 -0.3568  0.1569  0.9283
 3167TIP3    H230917   5.051   5.701   4.975 -2.0736 -0.4288  0.1866
 3168TIP3   OH230918   1.787   1.011  16.558  0.0760 -0.3875 -0.0747
 3168TIP3    H130919   1.728   1.058  16.500  1.0200 -0.5102 -1.1732
 3168TIP3    H230920   1.730   0.963  16.618 -0.9556 -1.1998 -1.6579
 3169TIP3   OH230921   5.998   6.402  12.093  0.2866 -0.2830 -0.4224
 3169TIP3    H130922   6.090   6.429  12.087 -0.3208  2.0571 -0.3291
 3169TIP3    H230923   5.949   6.484  12.088 -1.7202 -1.2325  1.7848
 3170TIP3   OH230924   4.332   4.438   5.933 -0.9178 -0.7841  0.0128
 3170TIP3    H130925   4.393   4.432   5.860 -0.5663  0.2448  0.2147
 3170TIP3    H230926   4.251   4.470   5.894 -0.3835  0.9153  0.2427
 3171TIP3   OH230927   6.457   4.421   0.557 -0.1618  0.5055 -0.0151
 3171TIP3    H130928   6.435   4.420   0.650  0.3201  1.6042  0.1358
 3171TIP3    H230929   6.378   4.454   0.514 -0.2996  0.2408  0.0377
 3172TIP3   OH230930   6.479   2.685  12.826  0.1751  0.1304 -0.4968
 3172TIP3    H130931   6.521   2.762  12.789 -1.7565  0.6868 -1.6653
 3172TIP3    H230932   6.434   2.717  12.905  0.1553 -0.0045 -0.4527
 3173TIP3   OH230933   3.737   1.249   5.535  0.4153  0.6898  0.5916
 3173TIP3    H130934   3.679   1.245   5.459  0.7294  1.8401  0.2674
 3173TIP3    H230935   3.738   1.342   5.560  2.2799  0.7517  0.4314
 3174TIP3   OH230936   2.667   5.793  13.352  0.0923 -0.0424 -0.8501
 3174TIP3    H130937   2.577   5.776  13.377  0.1641  1.1543  0.3361
 3174TIP3    H230938   2.667   5.790  13.256 -1.2340  0.1368 -0.8652
 3175TIP3   OH230939   5.982   6.577  14.649  0.2059  0.2906  0.4291
 3175TIP3    H130940   6.049   6.639  14.679  0.4905 -0.0598  0.5257
 3175TIP3    H230941   6.032   6.504  14.613 -0.1275  0.5299 -0.5596
 3176TIP3   OH230942   4.284   4.658   1.537 -0.1392  0.1124 -0.3873
 3176TIP3    H130943   4.204   4.680   1.585 -0.3564  0.2294 -0.8024
 3176TIP3    H230944   4.254   4.612   1.458  0.2878 -1.6927  0.4357
 3177TIP3   OH230945   3.770   2.242  15.807  0.6344  0.4205 -0.2647
 3177TIP3    H130946   3.832   2.206  15.870 -2.7443 -2.2733  1.8592
 3177TIP3    H230947   3.761   2.334  15.831  3.1649  0.7330 -0.2321
 3178TIP3   OH230948   4.719   1.110   3.587 -0.3561 -0.3206  0.2557
 3178TIP3    H130949   4.698   1.118   3.680  0.1992 -1.0921  0.4503
 3178TIP3    H230950   4.656   1.168   3.544  0.0605  0.8575  1.1816
 3179TIP3   OH230951   2.034   3.560   1.382 -0.0954  0.4485  0.7617
 3179TIP3    H130952   2.094   3.506   1.331  1.0280  1.4746  0.9758
 3179TIP3    H230953   2.017   3.508   1.461  0.5355  0.1622  0.7122
 3180TIP3   OH230954   3.113   5.482   4.013 -0.4124 -0.1198  0.4926
 3180TIP3    H130955   3.199   5.519   4.033  0.3045 -0.5472 -1.5139
 3180TIP3    H230956   3.051   5.538   4.060  0.8579  1.2571  0.6092
 3181TIP3   OH230957   3.367   6.733   3.968 -0.6122  0.6678 -0.6481
 3181TIP3    H130958   3.308   6.722   3.894 -0.8909  0.0429 -0.3378
 3181TIP3    H230959   3.449   6.763   3.928 -0.9052  0.8151 -1.1556
 3182TIP3   OH230960   2.232   3.030   2.227 -0.3266  0.2924 -0.7889
 3182TIP3    H130961   2.303   2.975   2.258  0.2802  1.6091  0.2515
 3182TIP3    H230962   2.170   3.034   2.300 -1.0506 -0.1074 -1.3566
 3183TIP3   OH230963   3.473   4.816  14.615 -0.4329  0.1328 -0.3609
 3183TIP3    H130964   3.499   4.884  14.553  0.9500 -1.3468 -1.4937
 3183TIP3    H230965   3.404   4.768  14.570 -0.7142  0.1844  0.0166
 3184TIP3   OH230966   5.042   0.947  14.616  0.1050  0.4445  0.5267
 3184TIP3    H130967   4.997   0.936  14.700 -0.9162  0.2271 -0.0352
 3184TIP3    H230968   5.135   0.952  14.639  0.1730 -2.7596  1.4124
 3185TIP3   OH230969   0.694   5.082  13.000 -0.2116  0.2506  0.0399
 3185TIP3    H130970   0.680   5.023  13.074  0.1337  2.0677  1.6653
 3185TIP3    H230971   0.612   5.131  12.992 -0.7116 -0.8041 -1.6714
 3186TIP3   OH230972   4.842   1.410  15.842  0.4709  0.0863 -0.4959
 3186TIP3    H130973   4.779   1.477  15.817 -1.4856 -1.3788  0.2548
 3186TIP3    H230974   4.919   1.459  15.872 -0.1344  1.9204 -1.7767
 3187TIP3   OH230975   2.718   6.135   5.007 -0.0708  0.2499  0.2747
 3187TIP3    H130976   2.714   6.046   5.042  2.8996  0.7860  2.2668
 3187TIP3    H230977   2.627   6.163   5.003 -0.9195 -1.9515  2.1072
 3188TIP3   OH230978   6.346   3.556  13.422 -0.1038 -0.0055  0.1155
 3188TIP3    H130979   6.437   3.566  13.394 -0.0644 -0.6946 -0.0202
 3188TIP3    H230980   6.349   3.492  13.493 -0.5378 -0.5048 -0.2977
 3189TIP3   OH230981   0.746   3.546   1.747  0.2942  0.0807 -0.8429
 3189TIP3    H130982   0.796   3.528   1.826  0.9412 -0.4917 -1.3689
 3189TIP3    H230983   0.667   3.590   1.778  1.1812  1.1340 -0.0141
 3190TIP3   OH230984   0.470   4.413  11.813 -0.0788 -0.5071 -0.8493
 3190TIP3    H130985   0.532   4.474  11.773 -1.0902  0.1302 -1.5226
 3190TIP3    H230986   0.516   4.330  11.818  1.3964  0.3370  0.2286
 3191TIP3   OH230987   2.024   1.157   0.206 -0.0955  0.5582  0.4519
 3191TIP3    H130988   2.093   1.168   0.272 -0.1414  2.6434  0.2355
 3191TIP3    H230989   1.950   1.205   0.243 -0.3506  1.1436 -0.7854
 3192TIP3   OH230990   6.299   4.724  14.209  0.1430  0.3516  0.6318
 3192TIP3    H130991   6.274   4.690  14.294  1.2209 -1.7574  0.1682
 3192TIP3    H230992   6.358   4.658  14.173  0.8758  1.8765 -1.1442
 3193TIP3   OH230993   0.253   2.229   1.795  0.1860  0.1115 -0.0480
 3193TIP3    H130994   0.230   2.307   1.845  0.3437  0.7049 -0.8847
 3193TIP3    H230995   0.266   2.260   1.706  1.4666 -0.6601 -0.1636
 3194TIP3   OH230996   1.950   3.722  15.102 -0.2811 -0.1213  0.4315
 3194TIP3    H130997   2.044   3.725  15.087 -0.1106  0.7217  1.5219
 3194TIP3    H230998   1.911   3.764  15.025  0.2573 -0.0796  0.1827
 3195TIP3   OH230999   5.371   3.019  16.141  0.4229  0.1766  0.1974
 3195TIP3    H131000   5.462   3.048  16.143  0.9412 -1.3341 -0.1167
 3195TIP3    H231001   5.375   2.929  16.108 -1.0233 -0.5114  1.7564
 3196TIP3   OH231002   5.128   6.058  11.714  0.8633 -0.1081  0.9140
 3196TIP3    H131003   5.040   6.081  11.743  0.3081  0.5949 -1.1587
 3196TIP3    H231004   5.186   6.111  11.769 -0.1552  1.5076  0.5051
 3197TIP3   OH231005   3.111   0.557   5.831 -0.1500  0.1308  0.3093
 3197TIP3    H131006   3.169   0.631   5.852  1.2111 -1.2959  1.8999
 3197TIP3    H231007   3.070   0.534   5.915  0.8402 -2.0078  0.2800
 3198TIP3   OH231008   5.977   3.968   3.745  0.0586  0.4254  0.5555
 3198TIP3    H131009   5.939   3.945   3.660 -0.6326  1.4554  0.5723
 3198TIP3    H231010   6.057   4.015   3.724 -1.3105  2.8253  0.3664
 3199TIP3   OH231011   6.052   1.265  11.729 -0.1195 -0.2662  0.2857
 3199TIP3    H131012   6.114   1.249  11.658  0.7727 -1.3109  1.2690
 3199TIP3    H231013   6.013   1.349  11.707  2.0542  0.7240 -0.0691
 3200TIP3   OH231014   2.373   0.323  11.627 -0.1652 -0.5730  0.0199
 3200TIP3    H131015   2.369   0.242  11.575 -1.5890 -0.0393 -0.7396
 3200TIP3    H231016   2.353   0.393  11.565  0.1492  0.2849  0.8596
 3201TIP3   OH231017   4.416   5.868  16.142 -0.5116  0.0661  0.6701
 3201TIP3    H131018   4.357   5.794  16.131 -0.9275  0.2298  1.7297
 3201TIP3    H231019   4.371   5.942  16.101 -0.6491  0.0065  0.7165
 3202TIP3   OH231020   6.451   6.202  14.368  0.6266 -0.0692 -0.2966
 3202TIP3    H131021   6.378   6.141  14.379  3.1879 -3.3790  0.1619
 3202TIP3    H231022   6.432   6.274  14.427 -2.8674 -0.0566 -1.2616
 3203TIP3   OH231023   2.864   4.036  12.453 -0.2345 -0.0885 -0.7738
 3203TIP3    H131024   2.877   3.959  12.508  0.2616  0.3381 -0.2909
 3203TIP3    H231025   2.777   4.022  12.414  0.1305 -1.2119 -1.2239
 3204TIP3   OH231026   2.739   0.580  12.415  0.2205  0.3165 -0.3205
 3204TIP3    H131027   2.720   0.501  12.363  0.3638  1.0784 -1.5754
 3204TIP3    H231028   2.832   0.573  12.435 -0.4664 -1.6789  2.8462
 3205TIP3   OH231029   0.771   1.990  12.360  0.0871  0.0068  0.6237
 3205TIP3    H131030   0.768   1.894  12.361 -1.7293 -0.0492 -1.6199
 3205TIP3    H231031   0.729   2.016  12.442  0.6593 -1.1061  1.2885
 3206TIP3   OH231032   6.178   1.977   0.318  0.2908 -0.1316  0.2308
 3206TIP3    H131033   6.200   1.940   0.404 -0.9970 -2.4535 -0.3728
 3206TIP3    H231034   6.083   1.990   0.322  0.2008 -0.4067 -0.8900
 3207TIP3   OH231035   5.897   6.454  13.956  0.2572  0.3152 -0.5468
 3207TIP3    H131036   5.976   6.401  13.956  1.2244  1.4911  2.7844
 3207TIP3    H231037   5.825   6.391  13.949  1.4167 -1.0443 -0.6350
 3208TIP3   OH231038   6.522   6.422   5.174 -0.2583  0.2323 -0.1923
 3208TIP3    H131039   6.492   6.344   5.220 -1.1655 -0.7323 -2.3285
 3208TIP3    H231040   6.458   6.489   5.196 -1.6410 -0.6724 -1.3450
 3209TIP3   OH231041   1.124   4.407  16.358 -0.3456 -0.1811  0.6055
 3209TIP3    H131042   1.198   4.432  16.412 -0.6519  2.7945 -0.1663
 3209TIP3    H231043   1.159   4.341  16.297  2.2324  2.3599 -0.8880
 3210TIP3   OH231044   4.005   0.243  16.388 -0.0384  0.5524  0.0543
 3210TIP3    H131045   3.930   0.194  16.422 -0.3449  0.4543 -0.7345
 3210TIP3    H231046   3.965   0.314  16.336  0.3986 -0.3266 -1.5327
 3211TIP3   OH231047   5.193   6.425  11.887 -0.5389 -0.0493  0.1445
 3211TIP3    H131048   5.221   6.496  11.828 -2.0348 -0.0089 -0.5417
 3211TIP3    H231049   5.191   6.466  11.974 -1.5927  0.8225 -0.2742
 3212TIP3   OH231050   2.445   0.752  13.500  0.0164  0.0664  0.0040
 3212TIP3    H131051   2.449   0.829  13.443  1.7572 -1.4168 -2.0494
 3212TIP3    H231052   2.367   0.705  13.471 -0.0114  0.1238 -0.0146
 3213TIP3   OH231053   3.714   5.929   3.146  0.2384  1.2354  0.2954
 3213TIP3    H131054   3.761   5.960   3.223  1.7446  2.6843 -1.1011
 3213TIP3    H231055   3.724   6.000   3.082  0.7041 -0.6618 -1.8772
 3214TIP3   OH231056   2.968   6.331   0.686  0.3897  0.6731 -0.4211
 3214TIP3    H131057   2.985   6.387   0.762  0.2884 -1.5845  1.3972
 3214TIP3    H231058   2.935   6.249   0.724 -2.1298  0.2840 -3.0500
 3215TIP3   OH231059   2.191   2.556   4.788 -0.2295  0.3284 -0.5978
 3215TIP3    H131060   2.140   2.599   4.856  1.9138  1.8878  0.1267
 3215TIP3    H231061   2.135   2.561   4.710 -0.8974  2.6461 -0.0475
 3216TIP3   OH231062   6.685   6.700   0.317  0.1912  0.9015 -0.4557
 3216TIP3    H131063   6.752   6.632   0.325 -2.2459 -1.6904 -0.8383
 3216TIP3    H231064   6.716   6.756   0.246  0.0305 -2.7231 -3.6401
 3217TIP3   OH231065   3.143   4.845  14.010 -0.2657  0.1199 -0.5738
 3217TIP3    H131066   3.117   4.931  14.043  0.1471  0.5694 -1.3987
 3217TIP3    H231067   3.100   4.783  14.069 -0.7004  0.8856 -0.0692
 3218TIP3   OH231068   1.486   6.102   0.754 -0.1073  0.2612 -0.3982
 3218TIP3    H131069   1.542   6.172   0.722 -0.1655  1.1675  1.3544
 3218TIP3    H231070   1.398   6.141   0.760  0.0661  0.4725  1.6661
 3219TIP3   OH231071   5.490   5.694  16.528  0.5405  0.6214  0.0905
 3219TIP3    H131072   5.459   5.672  16.616  0.9964  0.9038  0.3234
 3219TIP3    H231073   5.457   5.782  16.512 -0.4805  0.1643 -0.4683
 3220TIP3   OH231074   0.211   5.963  13.622  0.2042 -0.4714 -0.3349
 3220TIP3    H131075   0.248   6.034  13.675  0.0748 -1.5582  1.3057
 3220TIP3    H231076   0.250   5.974  13.536 -0.9448  2.4718 -0.6018
 3221TIP3   OH231077   0.632   0.137   4.992 -0.7650  0.1140  0.1252
 3221TIP3    H131078   0.682   0.207   5.034 -0.4188  0.0526 -0.1800
 3221TIP3    H231079   0.658   0.141   4.900 -1.1472 -0.0708  0.0076
 3222TIP3   OH231080   2.131   4.827  12.716 -0.1048  0.6904  0.4037
 3222TIP3    H131081   2.112   4.900  12.775 -1.8306 -0.5426  1.4543
 3222TIP3    H231082   2.072   4.757  12.744 -0.1371 -0.3573 -2.0443
 3223TIP3   OH231083   4.558   0.788  12.223 -0.7939  0.8072 -0.0121
 3223TIP3    H131084   4.505   0.786  12.144  0.5615 -0.5673 -0.9394
 3223TIP3    H231085   4.508   0.843  12.284 -1.4735  2.6007 -2.0627
 3224TIP3   OH231086   0.452   5.722  11.872 -0.2992 -0.7031 -0.2512
 3224TIP3    H131087   0.484   5.632  11.868 -1.5706 -1.1969  0.1881
 3224TIP3    H231088   0.413   5.738  11.787  0.7129 -0.2354 -0.6477
 3225TIP3   OH231089   1.391   4.131   5.612 -0.2390 -0.4038  0.8384
 3225TIP3    H131090   1.404   4.036   5.617 -0.8264 -0.5291  0.0759
 3225TIP3    H231091   1.298   4.142   5.594  0.0622  0.2635 -0.4738
 3226TIP3   OH231092   1.618   0.012  11.332 -0.0714  0.1506 -0.1730
 3226TIP3    H131093   1.709  -0.010  11.314 -0.1531 -0.0112 -0.3903
 3226TIP3    H231094   1.617   0.036  11.425  0.3098  0.7647 -0.3185
 3227TIP3   OH231095   2.376   1.948   0.068  0.5369 -0.3575  0.5486
 3227TIP3    H131096   2.376   1.877   0.133 -4.4569 -1.0589  0.2270
 3227TIP3    H231097   2.386   1.903  -0.016  1.1056 -0.1892  0.5230
 3228TIP3   OH231098   3.815   0.550  17.230 -0.5951  0.1321 -0.1381
 3228TIP3    H131099   3.851   0.505  17.306 -0.3926  1.2320  0.4259
 3228TIP3    H231100   3.736   0.500  17.208 -0.9242  0.0814  1.0873
 3229TIP3   OH231101   5.227   1.506  13.328  0.0899  0.0706 -0.1019
 3229TIP3    H131102   5.289   1.520  13.255 -0.2177 -1.7637 -0.7778
 3229TIP3    H231103   5.146   1.546  13.298 -0.4016 -1.7650 -1.3895
 3230TIP3   OH231104   1.604   1.489  16.333  0.2074  0.1222 -0.2102
 3230TIP3    H131105   1.584   1.399  16.357  2.3288 -0.8980 -1.9630
 3230TIP3    H231106   1.547   1.542  16.390 -1.3898 -2.2788  0.5774
 3231TIP3   OH231107   4.622   6.010   0.814 -0.2067  0.3163 -0.2950
 3231TIP3    H131108   4.528   6.025   0.804 -0.2903 -0.3076 -0.5101
 3231TIP3    H231109   4.646   6.058   0.893 -1.0380 -0.8612  0.7187
 3232TIP3   OH231110   2.139   5.685   0.982 -0.0408 -0.2463 -0.1546
 3232TIP3    H131111   2.095   5.742   0.918  3.8766  0.2015 -2.7758
 3232TIP3    H231112   2.182   5.618   0.929  4.4971  0.8425  1.7212
 3233TIP3   OH231113   1.319   4.617   4.984 -0.1430  0.5395 -0.4618
 3233TIP3    H131114   1.306   4.545   4.922 -0.8165  0.2381  0.0150
 3233TIP3    H231115   1.381   4.676   4.940  0.1097 -0.1302 -1.0253
 3234TIP3   OH231116   0.518   6.331   0.820  0.7757  0.1412  0.1244
 3234TIP3    H131117   0.560   6.245   0.826  0.9581  0.2867  1.0140
 3234TIP3    H231118   0.430   6.318   0.856  0.1249 -0.0891 -1.4492
 3235TIP3   OH231119   4.997   4.875  12.716  0.0974  0.1878 -0.1094
 3235TIP3    H131120   4.970   4.803  12.773 -0.9249  2.3893  2.4283
 3235TIP3    H231121   4.941   4.948  12.742  2.6609  2.5648 -0.7832
 3236TIP3   OH231122   6.098   3.183  13.163 -0.7125  0.4729 -0.4876
 3236TIP3    H131123   6.144   3.265  13.183 -0.2339  0.3439 -1.0178
 3236TIP3    H231124   6.030   3.177  13.229 -1.9344  2.2027 -1.5026
 3237TIP3   OH231125   1.375   3.294   1.289 -0.3285  0.3092 -0.2494
 3237TIP3    H131126   1.293   3.305   1.337 -0.0777  0.6041  0.1115
 3237TIP3    H231127   1.381   3.200   1.272 -0.5934  0.2517 -0.0189
 3238TIP3   OH231128   0.081   4.887   5.728 -0.3592 -0.0207 -0.1484
 3238TIP3    H131129   0.170   4.890   5.693 -0.4622  0.9855 -0.3555
 3238TIP3    H231130   0.025   4.897   5.651 -0.6568 -0.7676 -0.0327
 3239TIP3   OH231131   2.437   3.529   0.456 -0.1178 -0.2867  0.5766
 3239TIP3    H131132   2.482   3.520   0.540  1.5808  2.2513  0.0860
 3239TIP3    H231133   2.501   3.573   0.400 -1.5435 -1.0214 -1.7670
 3240TIP3   OH231134   1.438   5.642  14.190 -0.3391 -0.0253  0.6572
 3240TIP3    H131135   1.381   5.629  14.265  0.0157  1.8084  1.3169
 3240TIP3    H231136   1.511   5.694  14.224 -1.0229  2.4145 -1.2261
 3241TIP3   OH231137   0.628   1.508  16.252  0.0359 -0.1408 -0.0659
 3241TIP3    H131138   0.644   1.414  16.258  0.5159  0.0126  1.3327
 3241TIP3    H231139   0.579   1.518  16.170  0.4736 -1.5260 -0.5319
 3242TIP3   OH231140   1.267   5.159   6.328  0.2971  1.0625  0.0293
 3242TIP3    H131141   1.209   5.095   6.286 -0.6578  1.8627  0.0650
 3242TIP3    H231142   1.316   5.109   6.392  0.5271  0.1346 -0.8497
 3243TIP3   OH231143   0.782   5.513   6.607 -0.3728 -0.2620  0.0158
 3243TIP3    H131144   0.714   5.493   6.543 -0.0986 -0.8109 -0.1080
 3243TIP3    H231145   0.837   5.434   6.609  0.5539  0.3542 -0.2636
 3244TIP3   OH231146   2.175   0.820  11.636  0.6584  0.6569 -0.7327
 3244TIP3    H131147   2.230   0.749  11.605 -0.9803  0.2761 -3.0821
 3244TIP3    H231148   2.131   0.785  11.714  1.6978  0.0255 -0.4175
 3245TIP3   OH231149   4.439   3.239   1.387 -0.6738 -0.2049 -0.1996
 3245TIP3    H131150   4.403   3.195   1.309  2.3828 -1.2708 -1.1821
 3245TIP3    H231151   4.477   3.320   1.353  1.4408 -1.0794 -0.0901
 3246TIP3   OH231152   1.976   0.940  10.615 -0.0445 -1.0067  0.5649
 3246TIP3    H131153   1.939   0.918  10.701 -0.0725  0.0560  0.8377
 3246TIP3    H231154   2.058   0.889  10.611 -0.9283 -2.4839  0.4276
 3247TIP3   OH231155   1.352   0.350  12.790  0.4555  0.0778 -0.1615
 3247TIP3    H131156   1.348   0.402  12.710 -0.3671  0.1600 -0.0786
 3247TIP3    H231157   1.349   0.259  12.759 -0.4348  0.1132 -0.2112
 3248TIP3   OH231158   3.583   4.418  13.418 -0.6484 -0.4513 -0.1311
 3248TIP3    H131159   3.553   4.441  13.330 -1.1770  1.3664  0.4795
 3248TIP3    H231160   3.645   4.347  13.404 -3.2192 -2.5972 -1.6924
 3249TIP3   OH231161   3.985   5.026  11.733  0.4385 -0.0318  0.0871
 3249TIP3    H131162   3.959   4.951  11.786 -0.7512  0.5782  0.3913
 3249TIP3    H231163   4.027   5.085  11.796  2.1665 -0.7737 -0.3036
 3250TIP3   OH231164   4.214   0.147   5.384  0.2185  0.0224  0.0963
 3250TIP3    H131165   4.296   0.181   5.347 -0.7505  1.7608 -0.5525
 3250TIP3    H231166   4.146   0.206   5.351 -1.3966 -1.7162  0.1362
 3251TIP3   OH231167   2.005   5.840  12.063  0.2427 -0.2913  0.4793
 3251TIP3    H131168   1.988   5.913  12.124  0.6598  0.8849 -0.7623
 3251TIP3    H231169   1.927   5.837  12.008  1.2026  0.8538 -1.0315
 3252TIP3   OH231170   4.514   2.126  16.633  0.1902  0.0957  0.1766
 3252TIP3    H131171   4.424   2.149  16.655  0.2236 -0.7076  1.2547
 3252TIP3    H231172   4.562   2.208  16.636 -0.3500  0.4056  0.3956
 3253TIP3   OH231173   0.918   0.969   2.551  0.4403  0.6957  0.3718
 3253TIP3    H131174   0.881   0.980   2.638 -0.3841  0.4602  0.0648
 3253TIP3    H231175   1.010   0.993   2.560  0.4694  0.2534  1.4012
 3254TIP3   OH231176   5.139   2.044  15.137  0.5093 -0.3605  0.1574
 3254TIP3    H131177   5.149   2.004  15.051 -0.3799  0.0908 -0.1704
 3254TIP3    H231178   5.226   2.078  15.159  0.8463 -0.8875 -0.3520
 3255TIP3   OH231179   2.908   1.956   6.455  0.0249  0.2566  0.1959
 3255TIP3    H131180   2.903   1.862   6.439  2.2402  0.2602 -1.0381
 3255TIP3    H231181   2.998   1.980   6.429 -0.1495  2.5369  1.4136
 3256TIP3   OH231182   4.391   5.348   4.661  0.0777 -0.1983 -0.4066
 3256TIP3    H131183   4.430   5.371   4.577 -0.6949  0.3688 -0.6228
 3256TIP3    H231184   4.370   5.255   4.653  0.0373 -0.1536 -0.8298
 3257TIP3   OH231185   1.633   6.298  14.643  0.0801 -0.1385  0.3438
 3257TIP3    H131186   1.676   6.228  14.594 -0.7497 -0.4062 -0.0046
 3257TIP3    H231187   1.699   6.367  14.648  0.5488 -0.5424 -0.1951
 3258TIP3   OH231188   1.799   3.174  17.210 -0.1400  0.0257 -0.1122
 3258TIP3    H131189   1.859   3.177  17.285  0.0940  0.9100 -0.3243
 3258TIP3    H231190   1.714   3.201  17.246 -0.3431 -0.8456  0.1039
 3259TIP3   OH231191   5.805   4.948   2.833 -0.4810 -0.3597 -0.3553
 3259TIP3    H131192   5.749   4.926   2.759 -1.2517  0.0175  0.1106
 3259TIP3    H231193   5.757   5.016   2.880  1.1594  1.2936 -0.9459
 3260TIP3   OH231194   1.440   0.012  14.053  0.0194 -0.2629  0.2186
 3260TIP3    H131195   1.414   0.040  14.141 -1.8703 -0.1142 -0.3264
 3260TIP3    H231196   1.407  -0.077  14.045  1.6549 -0.8902  0.2200
 3261TIP3   OH231197   1.096   3.248  14.733  0.1836  0.4389  0.1740
 3261TIP3    H131198   1.104   3.235  14.638  0.7732  1.0968  0.1274
 3261TIP3    H231199   1.056   3.334  14.742 -0.2184  0.2215  0.5291
 3262TIP3   OH231200   6.361   4.205   6.799 -0.0188  0.2046 -0.5651
 3262TIP3    H131201   6.387   4.151   6.873  0.0189  0.7610 -0.1673
 3262TIP3    H231202   6.421   4.280   6.802  0.1037  0.1424 -1.2663
 3263TIP3   OH231203   3.741   4.196   3.751 -0.5066  0.1854 -0.0791
 3263TIP3    H131204   3.740   4.123   3.690  2.4335 -1.5464  1.6999
 3263TIP3    H231205   3.825   4.240   3.736 -0.3036  0.5199  1.7797
 3264TIP3   OH231206   4.824   6.213   6.352 -0.0633  0.3326  0.0858
 3264TIP3    H131207   4.748   6.259   6.388  0.4108 -0.1092  1.7104
 3264TIP3    H231208   4.897   6.273   6.363 -0.3582  1.4329 -2.9613
 3265TIP3   OH231209   3.212   0.429   2.928 -0.2000  0.5759 -0.1044
 3265TIP3    H131210   3.243   0.380   3.005  0.1626  2.6885  1.2034
 3265TIP3    H231211   3.292   0.446   2.877 -0.1279  0.7930  0.0751
 3266TIP3   OH231212   6.563   1.883   0.771  0.1503 -0.3146 -0.1728
 3266TIP3    H131213   6.529   1.965   0.736 -0.3734 -0.7665 -0.7665
 3266TIP3    H231214   6.656   1.884   0.749  0.2518  0.3523  0.2912
 3267TIP3   OH231215   3.990   4.106  14.935 -0.5557  0.3081  0.3074
 3267TIP3    H131216   3.948   4.023  14.955  0.4366  0.0413  1.4265
 3267TIP3    H231217   3.966   4.163  15.008  2.4246 -0.4108  2.0443
 3268TIP3   OH231218   5.798   0.503   4.508 -0.0139  0.0964 -0.4054
 3268TIP3    H131219   5.793   0.409   4.527 -1.5964  0.2131 -0.1077
 3268TIP3    H231220   5.870   0.534   4.563  0.5560 -0.9346 -0.5326
 3269TIP3   OH231221   0.379   5.362  12.524 -0.0296  0.3567 -0.5772
 3269TIP3    H131222   0.356   5.413  12.602 -0.2333  1.4438 -1.3290
 3269TIP3    H231223   0.390   5.273  12.557  0.2636  0.8532  0.7628
 3270TIP3   OH231224   4.791   3.685  13.249 -0.0909  0.4147 -0.1290
 3270TIP3    H131225   4.830   3.760  13.206 -0.1211  0.6182  0.1994
 3270TIP3    H231226   4.863   3.622  13.256 -0.3738 -0.1299 -1.6138
 3271TIP3   OH231227   0.591   5.790   4.781 -0.2888 -0.0243 -0.3229
 3271TIP3    H131228   0.592   5.821   4.691  1.1824  1.7645  0.2471
 3271TIP3    H231229   0.683   5.779   4.804 -0.6235 -0.1075  1.0609
 3272TIP3   OH231230   5.593   2.052   3.197  0.2021  0.1098  0.5802
 3272TIP3    H131231   5.668   2.069   3.140  0.3122  1.7305  1.1509
 3272TIP3    H231232   5.574   1.959   3.186  1.3918 -0.0060 -0.6615
 3273TIP3   OH231233   3.655   5.382   1.450  0.2477 -0.4215  0.4507
 3273TIP3    H131234   3.736   5.333   1.464  0.0620 -0.3096  2.1812
 3273TIP3    H231235   3.586   5.322   1.479 -0.3040 -0.4787 -0.9164
 3274TIP3   OH231236   4.817   4.590  11.737  0.3843 -0.1044 -0.1566
 3274TIP3    H131237   4.898   4.545  11.759  0.1293 -1.1297 -1.2025
 3274TIP3    H231238   4.794   4.556  11.650 -1.8603 -0.8334  0.6686
 3275TIP3   OH231239   0.099   3.735   0.758 -0.0766 -1.1270 -0.0279
 3275TIP3    H131240   0.030   3.710   0.696 -0.9467  0.9958 -0.0120
 3275TIP3    H231241   0.128   3.821   0.726  1.2440 -1.1557  1.0565
 3276TIP3   OH231242   1.292   6.582   4.577 -0.1093  0.5730 -0.3468
 3276TIP3    H131243   1.203   6.617   4.590  0.5728  1.7481  1.5219
 3276TIP3    H231244   1.348   6.659   4.574  0.8957 -0.1633 -1.2732
 3277TIP3   OH231245   1.187   6.016  17.109  0.0524  0.0625 -0.1756
 3277TIP3    H131246   1.278   6.043  17.097  0.2175 -1.2172 -2.0679
 3277TIP3    H231247   1.139   6.061  17.040 -1.0247  1.6342  1.4813
 3278TIP3   OH231248   0.917   1.209  12.661  0.8083  0.1792 -0.1719
 3278TIP3    H131249   0.868   1.280  12.620  1.0561  0.6777  0.3886
 3278TIP3    H231250   0.984   1.252  12.714  0.2825 -0.4224  1.0404
 3279TIP3   OH231251   6.532   3.808   3.990  0.3727  0.2030  0.0554
 3279TIP3    H131252   6.621   3.839   3.972  1.0589 -1.4038  0.5675
 3279TIP3    H231253   6.521   3.821   4.084 -0.3398  1.3476 -0.1647
 3280TIP3   OH231254   3.654   1.462  12.585  0.3599 -0.2673  0.1107
 3280TIP3    H131255   3.639   1.547  12.626  1.4066 -0.1991  0.3809
 3280TIP3    H231256   3.580   1.450  12.525 -0.9789 -0.1621  1.6684
 3281TIP3   OH231257   5.753   4.438   1.758 -0.4969 -1.1059  0.2686
 3281TIP3    H131258   5.764   4.373   1.688 -2.5129 -1.1467 -0.0665
 3281TIP3    H231259   5.726   4.388   1.834  1.6127 -1.0489  1.1256
 3282TIP3   OH231260   2.540   4.619  10.880  0.6685 -0.0291 -0.7064
 3282TIP3    H131261   2.624   4.660  10.859  1.5479 -1.8113 -0.9425
 3282TIP3    H231262   2.488   4.629  10.800  1.8979 -1.7193 -1.8138
 3283TIP3   OH231263   2.713   1.558   2.932  0.5606 -0.5310 -0.4497
 3283TIP3    H131264   2.618   1.553   2.930  0.4920  0.7037 -0.7612
 3283TIP3    H231265   2.741   1.517   2.850  0.2318  0.1679 -0.9203
 3284TIP3   OH231266   5.167   4.865  13.279 -0.2948 -0.3402  0.3930
 3284TIP3    H131267   5.228   4.791  13.286  1.1718  0.6250 -1.1797
 3284TIP3    H231268   5.141   4.866  13.187 -0.8886  0.6356  0.5527
 3285TIP3   OH231269   0.652   1.395   3.032  0.6725 -0.0407  0.1730
 3285TIP3    H131270   0.651   1.479   3.077 -1.5357  0.1411 -0.0955
 3285TIP3    H231271   0.585   1.343   3.077 -0.3388 -0.4773 -1.7121
 3286TIP3   OH231272   3.544   5.732  14.838 -0.1282  0.0370 -0.0644
 3286TIP3    H131273   3.553   5.647  14.880  0.7755 -0.3840 -1.0633
 3286TIP3    H231274   3.453   5.758  14.853 -0.5218 -1.2890 -0.0918
 3287TIP3   OH231275   0.103   0.525  12.598  0.0155  0.4548 -0.2470
 3287TIP3    H131276   0.140   0.478  12.674 -0.8700  0.2935  0.0933
 3287TIP3    H231277   0.016   0.551  12.626 -0.4979  0.0049 -1.3689
 3288TIP3   OH231278   5.219   4.140   1.843 -0.2249 -0.0890  0.1495
 3288TIP3    H131279   5.196   4.199   1.771  0.1570  0.5903  0.5727
 3288TIP3    H231280   5.226   4.197   1.920 -0.5241 -0.7884  0.7115
 3289TIP3   OH231281   6.202   6.426   0.850 -0.1778 -0.5078  0.1987
 3289TIP3    H131282   6.132   6.417   0.786 -0.3888  0.9736  0.1767
 3289TIP3    H231283   6.206   6.520   0.868  0.5430 -0.7795  1.6210
 3290TIP3   OH231284   0.304   1.681  10.687  0.0779 -0.4155  0.8735
 3290TIP3    H131285   0.391   1.681  10.726  0.3325 -1.2697  0.3336
 3290TIP3    H231286   0.276   1.772  10.691  1.1972 -0.0423  0.6098
 3291TIP3   OH231287   3.068   2.256  11.868  0.5698 -0.2780 -0.4342
 3291TIP3    H131288   3.131   2.260  11.796  1.3339 -0.4149  0.2151
 3291TIP3    H231289   3.073   2.166  11.900  0.8412 -0.0116  0.3060
 3292TIP3   OH231290   5.275   5.925   1.725 -0.2508  0.2904 -0.0270
 3292TIP3    H131291   5.216   5.966   1.662 -1.8199 -0.2780  0.9915
 3292TIP3    H231292   5.299   5.841   1.686 -1.3236 -0.1184  0.1517
 3293TIP3   OH231293   6.397   6.704  14.445  0.2348 -0.6714  0.1056
 3293TIP3    H131294   6.367   6.752  14.368 -0.7847 -1.3703  0.0499
 3293TIP3    H231295   6.487   6.733  14.457 -0.0663  0.5992 -0.4429
 3294TIP3   OH231296   0.330   5.763   4.526 -0.2780  0.3713  1.0224
 3294TIP3    H131297   0.242   5.770   4.489  0.7933  0.6928 -1.7592
 3294TIP3    H231298   0.332   5.678   4.569 -1.5292 -0.2802 -0.1256
 3295TIP3   OH231299   4.437   4.995  14.015 -0.3643 -0.6781 -0.3161
 3295TIP3    H131300   4.423   4.901  14.016  0.0240 -0.7344 -0.2381
 3295TIP3    H231301   4.522   5.008  14.057 -0.9885 -0.1947  0.8527
 3296TIP3   OH231302   1.075   4.515  12.726  1.0805 -0.2426 -0.3166
 3296TIP3    H131303   1.024   4.451  12.676  0.9468  0.3427 -0.9522
 3296TIP3    H231304   1.139   4.549  12.663  2.4463 -1.1418  0.5316
 3297TIP3   OH231305   0.845   4.498  17.183 -0.1012 -0.5251  0.2917
 3297TIP3    H131306   0.843   4.402  17.192 -0.3625 -0.5237  0.2532
 3297TIP3    H231307   0.764   4.519  17.137 -0.6360 -0.1845  1.3515
 3298TIP3   OH231308   6.168   3.914   4.141 -0.7013 -0.1144  0.1137
 3298TIP3    H131309   6.118   3.844   4.101 -1.2357  0.2231  0.1799
 3298TIP3    H231310   6.246   3.871   4.176  0.6229 -0.1923 -2.6988
 3299TIP3   OH231311   5.552   5.491  11.920  0.4348 -0.0494  0.3096
 3299TIP3    H131312   5.617   5.494  11.850 -0.9385 -0.5140 -1.0236
 3299TIP3    H231313   5.566   5.573  11.968  1.1630  0.4548 -0.7095
 3300TIP3   OH231314   3.217   4.748  14.809  0.4724 -0.0132 -0.1018
 3300TIP3    H131315   3.157   4.774  14.879  1.4427 -0.6776  1.0011
 3300TIP3    H231316   3.302   4.783  14.835  0.6952  0.4538 -1.3760
 3301TIP3   OH231317   1.144   3.205   4.971 -0.2374  0.0428 -0.3060
 3301TIP3    H131318   1.105   3.192   5.057 -1.1382 -2.2864 -0.9932
 3301TIP3    H231319   1.088   3.155   4.911  2.3638 -1.4264 -1.6982
 3302TIP3   OH231320   1.277   2.043   5.515  0.0456  0.1531 -0.4434
 3302TIP3    H131321   1.321   1.958   5.510  0.5897  0.3469  0.7135
 3302TIP3    H231322   1.328   2.101   5.460  0.0677 -0.0997 -0.6922
 3303TIP3   OH231323   5.039   6.544  16.125  0.0989 -0.7860  0.2189
 3303TIP3    H131324   4.993   6.557  16.208  1.4370 -0.4722  0.9503
 3303TIP3    H231325   5.122   6.502  16.151  1.2093  0.7023 -0.7625
 3304TIP3   OH231326   2.752   1.825   0.673  0.4457 -0.1187  0.2751
 3304TIP3    H131327   2.830   1.807   0.620 -0.1680  0.4054 -0.8212
 3304TIP3    H231328   2.686   1.765   0.640  0.7558 -1.6439  2.2097
 3305TIP3   OH231329   2.160   1.971  15.264  0.0424 -0.4191  0.0113
 3305TIP3    H131330   2.069   1.993  15.244  0.6809  0.1770 -2.5311
 3305TIP3    H231331   2.180   2.020  15.343 -1.7199 -0.2673  0.4024
 3306TIP3   OH231332   5.061   4.421  14.378  0.5236  0.3313 -0.0694
 3306TIP3    H131333   5.025   4.469  14.303 -0.9896 -0.8025 -0.1182
 3306TIP3    H231334   5.106   4.346  14.339  0.1366 -0.0089  0.1381
 3307TIP3   OH231335   0.937   2.591   0.663  0.5796  0.2294  0.2001
 3307TIP3    H131336   1.032   2.604   0.662  0.2632  3.1598 -0.8568
 3307TIP3    H231337   0.915   2.580   0.755  1.9768 -0.8723  0.4192
 3308TIP3   OH231338   0.837   4.659  12.659  0.1097 -0.4286 -0.2967
 3308TIP3    H131339   0.854   4.710  12.580  0.0001  0.0303 -0.0289
 3308TIP3    H231340   0.924   4.641  12.695  0.1157  0.9732  0.4801
 3309TIP3   OH231341   5.999   1.834   2.934 -0.6838  0.0223  0.7767
 3309TIP3    H131342   6.051   1.893   2.989 -2.2925  0.7538  1.5786
 3309TIP3    H231343   6.042   1.838   2.848  0.9016  0.1292  1.5278
 3310TIP3   OH231344   6.497   5.116  10.725  0.3810 -0.2660 -0.5242
 3310TIP3    H131345   6.509   5.209  10.710  1.5687 -0.1152  1.1474
 3310TIP3    H231346   6.449   5.111  10.808  2.6169 -1.1216  0.8039
 3311TIP3   OH231347   2.311   5.182  15.773 -0.2812  0.3363  0.1058
 3311TIP3    H131348   2.224   5.168  15.736 -0.3309 -0.2895  0.4478
 3311TIP3    H231349   2.355   5.240  15.711 -1.0890  1.0109  0.1580
 3312TIP3   OH231350   6.766   2.694  16.829 -0.3986 -0.1938 -0.0374
 3312TIP3    H131351   6.741   2.627  16.893  0.1454 -1.9224 -1.5422
 3312TIP3    H231352   6.705   2.766  16.844 -1.2020 -1.1332  1.4591
 3313TIP3   OH231353   1.154   5.209   5.289  0.1931  0.4066 -0.7306
 3313TIP3    H131354   1.221   5.158   5.244  0.3730  0.9661 -1.1081
 3313TIP3    H231355   1.078   5.206   5.232 -0.3587 -0.8056  0.0167
 3314TIP3   OH231356   3.319   3.391   0.873 -0.3391 -0.1199  0.1947
 3314TIP3    H131357   3.312   3.377   0.968 -0.4011 -1.4035  0.0202
 3314TIP3    H231358   3.354   3.479   0.864  1.3258 -0.6101  1.4587
 3315TIP3   OH231359   2.041   5.913  12.849 -0.6221  0.1497  0.0257
 3315TIP3    H131360   2.103   5.986  12.845 -2.0696  1.4077 -0.8584
 3315TIP3    H231361   2.094   5.835  12.836  1.1958  0.8868  2.4571
 3316TIP3   OH231362   5.600   2.179  10.686  0.1251  0.0414  0.0802
 3316TIP3    H131363   5.577   2.131  10.606  1.3849 -1.5684  0.6368
 3316TIP3    H231364   5.660   2.247  10.656  0.4228 -0.4194 -0.3826
 3317TIP3   OH231365   0.653   1.391   3.361  0.2987 -0.1988  0.2062
 3317TIP3    H131366   0.566   1.381   3.398  0.8727  0.2948  1.7994
 3317TIP3    H231367   0.672   1.308   3.319 -2.1198  0.6733 -2.9727
 3318TIP3   OH231368   6.751   1.833   3.696 -0.0181 -0.3017 -0.5683
 3318TIP3    H131369   6.784   1.838   3.786  1.1637 -0.8905 -0.9487
 3318TIP3    H231370   6.754   1.740   3.674 -0.9211 -0.2372 -1.0031
 3319TIP3   OH231371   3.147   2.674  15.602 -0.6352  0.1383 -0.2321
 3319TIP3    H131372   3.109   2.702  15.518 -3.3941  1.6560  1.3503
 3319TIP3    H231373   3.071   2.668  15.661  1.2641 -0.2063  2.3235
 3320TIP3   OH231374   2.987   1.501   4.042 -0.1183 -0.8259 -0.0693
 3320TIP3    H131375   3.072   1.521   4.003  0.2101  2.1140  1.8455
 3320TIP3    H231376   2.923   1.536   3.980  0.1072 -1.6712 -0.7921
 3321TIP3   OH231377   2.050   5.726  16.865  0.1768  0.6140 -0.4993
 3321TIP3    H131378   2.007   5.693  16.787 -0.5437 -0.8840  0.4902
 3321TIP3    H231379   2.066   5.649  16.919 -0.2482  1.6930  1.2699
 3322TIP3   OH231380   2.655   4.661   0.968 -0.1072 -0.1913 -0.3126
 3322TIP3    H131381   2.630   4.695   0.882 -1.6909 -1.5329 -0.4417
 3322TIP3    H231382   2.619   4.725   1.030 -0.8861 -0.3400 -0.6039
 3323TIP3   OH231383   1.253   5.108  16.626  0.9898  0.2336 -0.0413
 3323TIP3    H131384   1.218   5.019  16.615  1.4202 -0.0591  0.8892
 3323TIP3    H231385   1.194   5.163  16.574  1.3920 -0.7322 -1.5534
 3324TIP3   OH231386   1.065   2.991   4.123 -0.3697 -0.4763  0.6273
 3324TIP3    H131387   1.109   2.911   4.154 -1.4787 -0.7423  1.5645
 3324TIP3    H231388   1.016   3.022   4.198  0.7100  1.5973  0.5391
 3325TIP3   OH231389   1.729   3.272  14.986  0.3194  0.1072 -0.4775
 3325TIP3    H131390   1.742   3.266  14.892  1.4133  0.6736 -0.3779
 3325TIP3    H231391   1.726   3.366  15.005 -1.0292  0.0043 -0.0780
 3326TIP3   OH231392   4.674   4.886   1.051 -0.1987 -0.1496  0.6913
 3326TIP3    H131393   4.653   4.823   1.120 -1.0221 -0.0481  0.5336
 3326TIP3    H231394   4.671   4.971   1.095 -1.9431  0.0328  0.2873
 3327TIP3   OH231395   0.247   2.631  17.025  0.2986  0.6598  0.3934
 3327TIP3    H131396   0.187   2.557  17.013 -1.4355  1.8758  1.0933
 3327TIP3    H231397   0.270   2.627  17.118  1.0799  0.3809  0.1919
 3328TIP3   OH231398   6.455   2.516  14.301 -0.3255  0.4502  0.3092
 3328TIP3    H131399   6.496   2.434  14.273  1.0334  1.4342 -0.6826
 3328TIP3    H231400   6.474   2.520  14.395  0.6866  0.2240  0.1258
 3329TIP3   OH231401   2.491   4.393  12.708 -0.2070  0.2259  0.2087
 3329TIP3    H131402   2.561   4.375  12.772  0.6644  0.3933 -0.6798
 3329TIP3    H231403   2.434   4.317  12.713  0.4471 -0.2572  0.4195
 3330TIP3   OH231404   1.218   3.835   0.711 -0.3790 -0.3503 -0.5070
 3330TIP3    H131405   1.304   3.815   0.672  0.6567  2.6478 -0.0206
 3330TIP3    H231406   1.212   3.777   0.787  1.4097 -0.3462 -0.3188
 3331TIP3   OH231407   1.931   4.636   2.436 -0.0745 -0.5473 -0.2714
 3331TIP3    H131408   1.846   4.679   2.449 -0.2025 -0.0593 -2.2899
 3331TIP3    H231409   1.988   4.706   2.404  0.9119 -1.0275  0.4004
 3332TIP3   OH231410   2.692   3.182  15.445 -0.6914 -0.6098 -0.3569
 3332TIP3    H131411   2.643   3.254  15.405  0.1509 -0.5004 -1.2336
 3332TIP3    H231412   2.763   3.225  15.494 -0.0796 -0.8278 -1.0278
 3333TIP3   OH231413   6.780   0.981  16.231  0.0844  0.0866  0.2782
 3333TIP3    H131414   6.719   0.961  16.161  1.5006  1.2194 -1.3503
 3333TIP3    H231415   6.734   0.954  16.311 -0.4097 -4.1419 -1.1789
 3334TIP3   OH231416   2.428   2.564  13.523  0.0407 -0.3054  0.0860
 3334TIP3    H131417   2.418   2.550  13.429  0.2758  0.9244 -0.1392
 3334TIP3    H231418   2.349   2.611  13.548 -0.7246 -1.8952  0.8125
 3335TIP3   OH231419   1.048   5.379   4.832 -0.2304  0.3850 -0.0013
 3335TIP3    H131420   1.029   5.356   4.923  1.0097 -1.1499 -0.0969
 3335TIP3    H231421   1.066   5.473   4.835  1.5393  0.0554  1.6750
 3336TIP3   OH231422   3.888   2.321  14.083 -0.3779  0.1710 -0.9310
 3336TIP3    H131423   3.844   2.356  14.006  0.3126  0.3060 -1.2722
 3336TIP3    H231424   3.872   2.386  14.151 -2.3118 -0.6781 -0.5034
 3337TIP3   OH231425   2.385   0.763  15.455 -0.0109  0.3995 -0.3965
 3337TIP3    H131426   2.306   0.815  15.441  0.5132  0.8911 -1.7845
 3337TIP3    H231427   2.400   0.719  15.371  2.2071  1.8131 -0.8474
 3338TIP3   OH231428   4.613   1.399   2.580  0.5076  0.7875  0.5774
 3338TIP3    H131429   4.525   1.431   2.561 -0.1917 -0.8119  0.9706
 3338TIP3    H231430   4.603   1.349   2.662  1.5560 -0.2801  0.0731
 3339TIP3   OH231431   2.720   5.134   4.035  0.1929  0.0730 -0.4343
 3339TIP3    H131432   2.766   5.214   4.059 -0.5053 -0.0529  1.5936
 3339TIP3    H231433   2.784   5.064   4.048 -0.5147 -0.1443  2.7623
 3340TIP3   OH231434   6.189   3.418   3.199 -0.6893  0.3947  0.1956
 3340TIP3    H131435   6.179   3.325   3.177  0.4627 -0.0005  1.2463
 3340TIP3    H231436   6.126   3.463   3.142 -2.3390 -1.1513  0.7139
 3341TIP3   OH231437   2.265   6.573   0.452 -0.3925 -0.5112 -0.0435
 3341TIP3    H131438   2.254   6.480   0.437 -0.0234 -0.5908  0.1563
 3341TIP3    H231439   2.344   6.597   0.403 -1.4476  0.0671 -1.5348
 3342TIP3   OH231440   1.138   5.055   0.829 -0.3193 -0.3926 -0.8628
 3342TIP3    H131441   1.070   5.013   0.881  0.2702  0.8500  0.9900
 3342TIP3    H231442   1.186   4.982   0.790  1.0266 -1.6491  2.6888
 3343TIP3   OH231443   3.248   3.783  14.219  0.3454  0.0895  0.1458
 3343TIP3    H131444   3.310   3.745  14.156 -1.1972  0.4070 -1.6572
 3343TIP3    H231445   3.301   3.845  14.270  2.3032 -2.3166  1.2810
 3344TIP3   OH231446   5.660   5.547  13.951  0.0113  0.1227 -0.6268
 3344TIP3    H131447   5.643   5.628  13.903 -1.0837  0.3359  0.0744
 3344TIP3    H231448   5.672   5.480  13.884  1.2236  0.8935 -1.2252
 3345TIP3   OH231449   1.964   0.951   5.244 -0.2688 -0.1332  0.2188
 3345TIP3    H131450   1.958   0.913   5.331 -0.7927 -1.6408 -0.4444
 3345TIP3    H231451   2.040   0.909   5.204 -0.4158  0.0486 -0.2670
 3346TIP3   OH231452   1.688   4.214  17.058 -0.3451  0.2031  0.0077
 3346TIP3    H131453   1.704   4.278  16.989  0.5683 -0.5450 -0.5015
 3346TIP3    H231454   1.746   4.240  17.129 -0.6173  0.4456  0.1415
 3347TIP3   OH231455   4.828   2.049  14.267 -0.1382  0.2507  0.3609
 3347TIP3    H131456   4.845   2.112  14.336  0.0866 -0.0388  0.5750
 3347TIP3    H231457   4.911   2.002  14.257 -0.7570 -1.1427  1.3771
 3348TIP3   OH231458   5.865   4.613  13.096 -0.2923  0.2051  0.3248
 3348TIP3    H131459   5.888   4.527  13.059  0.4911  0.3303  0.5084
 3348TIP3    H231460   5.793   4.644  13.041  1.5838  0.9275 -1.9113
 3349TIP3   OH231461   2.503   5.490  12.017  0.3465  0.3092 -0.1785
 3349TIP3    H131462   2.475   5.458  11.931 -0.6251 -1.0811  0.6131
 3349TIP3    H231463   2.514   5.410  12.069 -2.4947  1.1991  1.9978
 3350TIP3   OH231464   0.804   4.222  17.228  0.2880  0.3784 -1.0498
 3350TIP3    H131465   0.725   4.213  17.175  0.1500  1.6813 -1.1133
 3350TIP3    H231466   0.873   4.182  17.175 -0.4576 -1.6873 -0.5555
 3351TIP3   OH231467   5.482   5.688  16.137 -0.4683  0.5405 -0.2754
 3351TIP3    H131468   5.513   5.627  16.204  0.9206 -1.8063 -2.8477
 3351TIP3    H231469   5.467   5.770  16.185  0.9341 -0.8052  2.7710
 3352TIP3   OH231470   0.423   4.298  13.788 -0.1096 -0.0803  0.1972
 3352TIP3    H131471   0.475   4.326  13.864  0.8357 -0.9732 -0.0950
 3352TIP3    H231472   0.411   4.378  13.737 -2.8409  1.0758  2.4205
 3353TIP3   OH231473   4.986   4.718   2.331  0.1945 -0.6146 -0.4589
 3353TIP3    H131474   4.949   4.773   2.400 -1.3504 -3.5970  1.2955
 3353TIP3    H231475   5.081   4.727   2.341 -0.0155  0.8088  0.5227
 3354TIP3   OH231476   3.440   0.327   1.164 -0.6819 -0.5861  0.1373
 3354TIP3    H131477   3.422   0.419   1.147  0.0339 -0.6650 -1.1568
 3354TIP3    H231478   3.357   0.283   1.150 -0.7370 -0.2889 -0.5137
 3355TIP3   OH231479   0.567   4.986  13.433  0.4504  0.0462 -0.0916
 3355TIP3    H131480   0.582   4.990  13.528 -1.2227 -0.6520  0.2315
 3355TIP3    H231481   0.610   4.905  13.406  2.9315  1.3536 -0.3881
 3356TIP3   OH231482   4.057   2.202   0.737  0.8377 -0.1709 -0.2154
 3356TIP3    H131483   4.120   2.172   0.672  2.1149 -1.2802  1.4484
 3356TIP3    H231484   4.105   2.201   0.820 -0.8837  0.6300  0.8560
 3357TIP3   OH231485   3.474   1.517   2.960 -0.1958  0.6047 -0.1399
 3357TIP3    H131486   3.474   1.445   3.023 -0.6667  0.2308 -0.5581
 3357TIP3    H231487   3.433   1.590   3.006  0.4684  0.6803  0.3544
 3358TIP3   OH231488   1.903   2.947   6.158  0.3617  0.3077  0.2309
 3358TIP3    H131489   1.963   2.921   6.228  1.6101 -0.9769 -1.2487
 3358TIP3    H231490   1.944   3.025   6.120 -0.2346  0.9107  0.7963
 3359TIP3   OH231491   5.214   5.190  15.550 -0.0388 -0.4725 -0.0709
 3359TIP3    H131492   5.241   5.267  15.501  1.9339 -1.2974 -0.3493
 3359TIP3    H231493   5.215   5.217  15.642  0.9314 -0.2327 -0.1453
 3360TIP3   OH231494   3.736   4.043  12.975  0.4174 -0.0522  0.3693
 3360TIP3    H131495   3.742   3.959  13.021  0.3164 -0.9979 -1.2917
 3360TIP3    H231496   3.645   4.048  12.945  0.4483  0.6202  0.3557
 3361TIP3   OH231497   4.660   6.590  15.300  0.1522 -0.3903  0.2949
 3361TIP3    H131498   4.725   6.569  15.366 -0.0129  0.0176  0.5917
 3361TIP3    H231499   4.707   6.644  15.236 -0.2899  1.3598  1.3918
 3362TIP3   OH231500   6.625   0.078  14.520 -0.1410  0.6564  0.9954
 3362TIP3    H131501   6.592   0.161  14.486 -1.6398 -0.5913 -0.8039
 3362TIP3    H231502   6.716   0.074  14.491 -0.0795  1.6289  1.0416
 3363TIP3   OH231503   6.751   6.717  11.915  0.3486  0.1319  0.6635
 3363TIP3    H131504   6.704   6.654  11.859  3.1978  1.3548 -3.6071
 3363TIP3    H231505   6.687   6.787  11.931 -0.9651 -0.8514 -0.0295
 3364TIP3   OH231506   4.331   4.418   4.859  0.1682 -0.4114  0.0580
 3364TIP3    H131507   4.403   4.367   4.896  0.1230  0.5404  1.5259
 3364TIP3    H231508   4.259   4.355   4.849  0.7120 -1.0319  0.0394
 3365TIP3   OH231509   1.462   5.544   5.664  0.0955 -0.1912 -0.0879
 3365TIP3    H131510   1.449   5.511   5.575  1.0423  1.0168 -0.6948
 3365TIP3    H231511   1.557   5.548   5.675 -0.0079  0.2565  0.7561
 3366TIP3   OH231512   4.653   4.937  12.003 -0.0799 -0.3568  0.1148
 3366TIP3    H131513   4.724   4.896  11.954  1.1327  0.8489  0.7813
 3366TIP3    H231514   4.600   4.864  12.035 -1.1213 -1.2052 -3.1726
 3367TIP3   OH231515   6.591   0.844  16.912 -0.1551 -0.3889 -0.3877
 3367TIP3    H131516   6.524   0.829  16.845 -3.1808 -0.6654  2.4017
 3367TIP3    H231517   6.547   0.901  16.976  1.9054 -1.4831  2.1633
 3368TIP3   OH231518   4.058   5.165   4.750 -0.5715 -0.0360 -0.3169
 3368TIP3    H131519   3.990   5.104   4.779 -1.1785  0.9473  0.3560
 3368TIP3    H231520   4.013   5.249   4.740  0.3284  0.3929 -0.8933
 3369TIP3   OH231521   5.225   1.975  16.687 -0.3214 -0.6207  0.0318
 3369TIP3    H131522   5.219   2.015  16.774 -1.1921  1.2215 -0.7992
 3369TIP3    H231523   5.223   1.881  16.703 -0.8674 -0.3198  1.9786
 3370TIP3   OH231524   0.495   3.253   3.856 -0.1242 -0.0633 -0.1875
 3370TIP3    H131525   0.445   3.279   3.779 -3.4770  0.7360  2.0392
 3370TIP3    H231526   0.518   3.335   3.898  0.8567 -0.5061  0.1704
 3371TIP3   OH231527   0.225   5.311   3.959 -0.0062 -0.0979  0.1407
 3371TIP3    H131528   0.155   5.254   3.926  0.3233 -0.8684  0.7611
 3371TIP3    H231529   0.214   5.392   3.909 -0.6304 -0.6096 -0.5844
 3372TIP3   OH231530   4.386   3.439  16.110  0.2286  0.4186 -0.0803
 3372TIP3    H131531   4.319   3.371  16.098 -0.2875  0.6535  1.3197
 3372TIP3    H231532   4.337   3.515  16.141  1.2071  0.4256  1.5113
 3373TIP3   OH231533   5.322   5.358   2.131 -0.0189 -0.0096 -0.6553
 3373TIP3    H131534   5.381   5.351   2.206  0.9124  0.8491 -1.2762
 3373TIP3    H231535   5.347   5.285   2.074 -0.2396 -0.2389 -0.4596
 3374TIP3   OH231536   4.125   4.266   2.406  0.4481  0.0847 -0.3147
 3374TIP3    H131537   4.042   4.277   2.359  0.9098  0.1719 -1.1310
 3374TIP3    H231538   4.185   4.232   2.340  0.6359 -1.6370  0.6845
 3375TIP3   OH231539   0.498   5.920  12.029 -0.8156 -0.0455 -0.3538
 3375TIP3    H131540   0.483   5.834  11.988  0.3571  0.0739 -1.0911
 3375TIP3    H231541   0.412   5.962  12.028 -1.5822 -1.4990  0.7525
 3376TIP3   OH231542   0.046   3.321   6.549  0.0761  0.0829 -0.1867
 3376TIP3    H131543   0.081   3.379   6.481  1.8996  0.3165  0.8802
 3376TIP3    H231544   0.098   3.343   6.627 -2.5558  0.4961  1.5550
 3377TIP3   OH231545   4.101   4.793   2.737  0.0473 -0.1579  0.1587
 3377TIP3    H131546   4.150   4.717   2.707 -0.7182 -0.7199  0.3171
 3377TIP3    H231547   4.032   4.805   2.671  0.8008  1.0639 -0.4553
 3378TIP3   OH231548   6.430   3.239   1.719  0.3590 -0.1840 -0.0436
 3378TIP3    H131549   6.411   3.261   1.628 -0.2124 -0.2407  0.0580
 3378TIP3    H231550   6.352   3.192   1.749  0.9866 -1.1475  0.1473
 3379TIP3   OH231551   3.038   6.305  11.878  0.3410 -0.0530 -0.2168
 3379TIP3    H131552   2.974   6.373  11.899  0.5998 -0.1205  0.8546
 3379TIP3    H231553   3.081   6.336  11.798 -0.0233  0.7057 -0.1268
 3380TIP3   OH231554   6.142   5.325   4.468  0.2411  0.0311  0.6147
 3380TIP3    H131555   6.130   5.297   4.559  0.9429  0.0819  0.7345
 3380TIP3    H231556   6.172   5.247   4.423 -1.1816 -0.2755  0.1716
 3381TIP3   OH231557   4.482   2.757  16.718  0.1375 -0.2081 -0.0460
 3381TIP3    H131558   4.568   2.721  16.741 -0.1048  0.0423  1.3208
 3381TIP3    H231559   4.495   2.852  16.717 -0.4873 -0.0671  1.8700
 3382TIP3   OH231560   2.554   2.263   4.346 -0.5615 -0.3677 -0.4180
 3382TIP3    H131561   2.584   2.263   4.437 -0.0924  0.6119 -0.5569
 3382TIP3    H231562   2.632   2.242   4.295 -1.2163 -2.8731 -0.5273
 3383TIP3   OH231563   1.207   5.799  12.973 -0.6808 -0.2834 -0.0376
 3383TIP3    H131564   1.260   5.782  13.051 -2.0673  0.6067  1.1553
 3383TIP3    H231565   1.205   5.716  12.926  2.5383 -0.1103 -0.6691
 3384TIP3   OH231566   2.729   3.049  17.125  0.1071  0.2003  0.0686
 3384TIP3    H131567   2.783   3.037  17.203 -0.4189  0.7211  0.5148
 3384TIP3    H231568   2.727   2.962  17.084  0.9443  0.0804  0.2576
 3385TIP3   OH231569   0.913   3.979  10.591 -0.0496  0.2251  0.2517
 3385TIP3    H131570   0.824   4.001  10.620 -0.3969  2.1691 -1.9779
 3385TIP3    H231571   0.966   4.055  10.615  0.6461 -0.1748  0.0152
 3386TIP3   OH231572   5.846   4.754  15.730  0.0552  0.3168  0.6699
 3386TIP3    H131573   5.768   4.744  15.784 -0.4602  1.3995  0.1631
 3386TIP3    H231574   5.821   4.817  15.662  0.7613 -0.7925 -0.6802
 3387TIP3   OH231575   1.541   0.960   5.006 -0.4317 -0.6262 -0.4466
 3387TIP3    H131576   1.540   1.039   5.060  0.8465 -0.3999 -0.7310
 3387TIP3    H231577   1.527   0.991   4.917 -4.4842 -1.1663 -0.1703
 3388TIP3   OH231578   4.955   6.205  10.886  0.8411 -0.5089 -0.5170
 3388TIP3    H131579   4.891   6.169  10.947  0.2638  1.2803 -0.0025
 3388TIP3    H231580   4.921   6.183  10.799 -1.6575  2.1557 -0.3322
 3389TIP3   OH231581   1.760   1.604  12.757  0.1744  0.7279 -0.3710
 3389TIP3    H131582   1.840   1.641  12.719 -0.4497  1.6058 -0.8792
 3389TIP3    H231583   1.743   1.658  12.834  0.0745  0.5487 -0.2688
 3390TIP3   OH231584   0.556   2.839   5.440 -0.0492  0.0423 -0.2298
 3390TIP3    H131585   0.475   2.791   5.421  0.1593 -0.4825  0.1778
 3390TIP3    H231586   0.530   2.931   5.440 -0.3822 -0.0380 -1.3745
 3391TIP3   OH231587   2.743   1.575  11.963  0.1803  0.5347 -0.7869
 3391TIP3    H131588   2.679   1.621  12.016 -0.0329  0.2524 -0.7996
 3391TIP3    H231589   2.754   1.490  12.005 -0.6808 -0.0544 -1.6999
 3392TIP3   OH231590   0.487   2.548   3.810  0.8887 -0.3378 -0.1571
 3392TIP3    H131591   0.447   2.634   3.797  0.4378 -0.5376 -0.1131
 3392TIP3    H231592   0.581   2.564   3.802  0.7437 -0.1582 -2.0179
 3393TIP3   OH231593   5.334   0.255  16.829  0.0722  0.4045 -0.3489
 3393TIP3    H131594   5.244   0.277  16.804 -0.5449 -1.4073  0.1339
 3393TIP3    H231595   5.324   0.191  16.900  1.7137 -1.1575 -1.4612
 3394TIP3   OH231596   1.902   6.085   1.773  0.4118 -0.0368  0.1235
 3394TIP3    H131597   1.945   6.158   1.817  1.2301 -0.5774  0.2360
 3394TIP3    H231598   1.808   6.105   1.780  0.5983  0.6789  0.7155
 3395TIP3   OH231599   3.424   5.130  12.876 -0.2309 -0.5126 -0.6400
 3395TIP3    H131600   3.421   5.226  12.883  0.9823 -0.4774 -0.3183
 3395TIP3    H231601   3.376   5.099  12.952  2.4041 -0.1164  1.3321
 3396TIP3   OH231602   5.847   6.746  16.853  0.1257  0.2012  0.0294
 3396TIP3    H131603   5.804   6.661  16.843 -0.6553  0.6842 -0.8493
 3396TIP3    H231604   5.796   6.791  16.921 -0.4159  0.5435 -0.5898
 3397TIP3   OH231605   3.740   2.030  12.738 -0.0682  0.1412 -0.7103
 3397TIP3    H131606   3.777   2.075  12.814 -2.0713 -0.3347  0.6187
 3397TIP3    H231607   3.774   1.941  12.744  1.6165  0.6717 -1.7316
 3398TIP3   OH231608   3.592   1.713   4.887 -0.3767  0.3554  0.3765
 3398TIP3    H131609   3.565   1.755   4.969 -1.9714 -0.7525  0.4881
 3398TIP3    H231610   3.650   1.642   4.914  0.8051  1.2820  0.3416
 3399TIP3   OH231611   2.311   1.997   5.881  0.1605  0.3485  0.3056
 3399TIP3    H131612   2.404   2.010   5.862 -0.4612  0.2748 -3.7984
 3399TIP3    H231613   2.273   2.084   5.875 -0.2585  0.1499  0.0262
 3400TIP3   OH231614   1.360   1.657  16.192  0.3192 -0.3829  0.2639
 3400TIP3    H131615   1.300   1.589  16.162  2.4939 -2.0171 -0.6649
 3400TIP3    H231616   1.364   1.646  16.287 -1.7426  0.6112  0.5220
 3401TIP3   OH231617   6.718   2.471   3.293  0.2006  0.1130 -0.0074
 3401TIP3    H131618   6.758   2.498   3.211 -1.6494 -1.3182 -1.4675
 3401TIP3    H231619   6.640   2.526   3.301 -0.3422 -0.6405  0.0667
 3402TIP3   OH231620   1.662   6.586   0.849  0.7229  0.0964  0.4151
 3402TIP3    H131621   1.746   6.567   0.890 -0.2668 -0.5650  2.2750
 3402TIP3    H231622   1.674   6.671   0.806  1.8929  0.7576  1.9787
 3403TIP3   OH231623   4.268   6.601   1.087  0.3329 -0.5333 -0.1572
 3403TIP3    H131624   4.295   6.692   1.097  1.0407 -0.7473 -0.0805
 3403TIP3    H231625   4.303   6.557   1.164 -0.5681 -0.7506  0.1427
 3404TIP3   OH231626   2.959   5.236   5.357 -0.3491 -0.3034 -0.0431
 3404TIP3    H131627   3.037   5.290   5.348 -0.7698  0.1789 -1.0529
 3404TIP3    H231628   2.925   5.257   5.444 -0.9866  1.7728 -0.7190
 3405TIP3   OH231629   0.154   6.371  11.839 -0.2948  0.1983 -0.3155
 3405TIP3    H131630   0.146   6.413  11.753  0.2755  2.5220  0.6799
 3405TIP3    H231631   0.247   6.378  11.860  0.2413 -3.4922 -0.9131
 3406TIP3   OH231632   1.380   3.011  12.621  0.6832 -0.1140 -0.6092
 3406TIP3    H131633   1.446   3.048  12.562  0.4754  1.3902  0.0651
 3406TIP3    H231634   1.324   2.958  12.564  0.8969  0.7344 -1.6342
 3407TIP3   OH231635   1.993   0.908  12.443 -0.2699  0.7997  0.2407
 3407TIP3    H131636   1.914   0.918  12.496 -0.0014 -0.7104  1.0074
 3407TIP3    H231637   2.063   0.894  12.507  0.1501 -0.5301 -0.4577
 3408TIP3   OH231638   3.559   1.814  13.880 -0.1988 -0.1295  0.0444
 3408TIP3    H131639   3.561   1.904  13.915  0.0454  0.1774 -0.7445
 3408TIP3    H231640   3.583   1.824  13.788  1.1403 -1.1660  0.2670
 3409TIP3   OH231641   1.725   1.440   5.376 -0.3071  0.3702 -0.7755
 3409TIP3    H131642   1.762   1.440   5.288  1.9010  0.3211  0.0969
 3409TIP3    H231643   1.749   1.355   5.413  1.2807  1.4172  0.7873
 3410TIP3   OH231644   4.190   2.525   4.523  0.6111  0.1521  0.0621
 3410TIP3    H131645   4.180   2.616   4.497  1.3274  0.2541  0.1423
 3410TIP3    H231646   4.110   2.506   4.572  1.0503  1.1526  1.2236
 3411TIP3   OH231647   3.656   5.023   3.342  0.3112 -0.4056  0.0179
 3411TIP3    H131648   3.586   4.967   3.310  0.3369 -0.3243 -0.1859
 3411TIP3    H231649   3.615   5.081   3.405 -0.1271  0.6716 -1.2240
 3412TIP3   OH231650   6.481   4.774   4.347 -0.2489  0.5724  0.2654
 3412TIP3    H131651   6.487   4.681   4.369  0.6090  0.5523 -0.0119
 3412TIP3    H231652   6.450   4.816   4.428  1.2487  0.2874  1.0286
 3413TIP3   OH231653   3.010   0.296  14.902 -0.0524 -0.3187 -0.0420
 3413TIP3    H131654   2.989   0.203  14.902  0.8999 -0.5518  0.1692
 3413TIP3    H231655   3.106   0.298  14.895 -0.1781  0.6850 -2.1555
 3414TIP3   OH231656   1.794   0.289   5.886  0.2187 -0.5095 -0.3698
 3414TIP3    H131657   1.851   0.264   5.959 -0.4771  2.2842  1.3134
 3414TIP3    H231658   1.705   0.277   5.921 -0.1398  2.3801 -0.0148
 3415TIP3   OH231659   2.198   0.902   2.768 -0.2920 -0.0991  0.1695
 3415TIP3    H131660   2.113   0.866   2.791 -0.5047 -0.3737 -1.0079
 3415TIP3    H231661   2.261   0.838   2.802 -0.4966  0.4017  1.5843
 3416TIP3   OH231662   6.044   5.575  15.274  0.1162 -0.0530  0.1357
 3416TIP3    H131663   6.061   5.669  15.280  1.7112 -0.2198 -0.9116
 3416TIP3    H231664   5.964   5.561  15.325  0.3480  1.7215  1.0725
 3417TIP3   OH231665   4.790   3.980   3.430  0.3836  0.4224 -0.3618
 3417TIP3    H131666   4.767   3.891   3.403  1.8975  0.0482 -0.5262
 3417TIP3    H231667   4.806   4.027   3.347 -1.4106  1.1804 -0.3327
 3418TIP3   OH231668   4.230   3.695  13.755  0.4876  0.2221 -0.2199
 3418TIP3    H131669   4.164   3.673  13.689  2.0317 -0.4161 -1.6259
 3418TIP3    H231670   4.313   3.677  13.713  1.5624 -2.0721  2.5343
 3419TIP3   OH231671   0.242   1.717   5.642 -0.6749  0.4690  0.2178
 3419TIP3    H131672   0.201   1.649   5.588  1.9977 -0.5913 -0.6590
 3419TIP3    H231673   0.255   1.790   5.582 -1.6421  0.9761  0.6114
 3420TIP3   OH231674   4.005   2.760   1.108  0.4788 -0.2275  0.0919
 3420TIP3    H131675   3.961   2.696   1.052 -0.8446 -0.5538  1.4246
 3420TIP3    H231676   4.098   2.750   1.088  0.0575 -0.0318 -2.2999
 3421TIP3   OH231677   5.987   1.208   4.309 -0.8781 -0.2044  0.6193
 3421TIP3    H131678   6.073   1.242   4.332  0.1885 -1.9548 -0.4706
 3421TIP3    H231679   5.958   1.161   4.386 -1.6167  1.6674  1.5431
 3422TIP3   OH231680   6.367   4.822  10.889  0.0506  0.1040 -0.3272
 3422TIP3    H131681   6.403   4.905  10.920  1.0302  0.0541 -1.2646
 3422TIP3    H231682   6.278   4.820  10.922  0.6563  0.6055  1.4094
 3423TIP3   OH231683   2.738   1.549  13.118 -0.3208  0.5847  0.0686
 3423TIP3    H131684   2.772   1.477  13.064 -1.0779 -0.3778  0.8525
 3423TIP3    H231685   2.814   1.578  13.168 -0.2548 -0.4548  0.5996
 3424TIP3   OH231686   1.318   0.902   5.627 -0.0145 -0.3065  0.4893
 3424TIP3    H131687   1.296   0.810   5.639  0.2619 -0.1350  2.5365
 3424TIP3    H231688   1.412   0.901   5.609 -0.3429 -0.5261 -1.4222
 3425TIP3   OH231689   5.133   4.008  15.926  0.0630  0.1981  0.2311
 3425TIP3    H131690   5.086   3.937  15.882  0.5258 -0.0153  0.0798
 3425TIP3    H231691   5.069   4.045  15.987 -0.1617 -0.3876  0.3588
 3426TIP3   OH231692   2.030   0.367   2.377  0.4643  0.2940  0.3882
 3426TIP3    H131693   2.041   0.281   2.417 -0.7709 -0.0561  0.0189
 3426TIP3    H231694   1.975   0.415   2.439 -0.2424  0.2354 -0.1744
 3427TIP3   OH231695   1.168   2.277   5.343 -0.5200 -0.7503 -0.2100
 3427TIP3    H131696   1.164   2.336   5.268 -0.0845 -1.6145 -0.9384
 3427TIP3    H231697   1.242   2.309   5.394 -0.2198 -0.7165 -0.6530
 3428TIP3   OH231698   4.658   3.070  15.367 -0.6354  0.4499  0.0448
 3428TIP3    H131699   4.640   2.976  15.357 -0.6546  0.5990 -1.7124
 3428TIP3    H231700   4.720   3.075  15.440 -1.7680 -0.7810  1.1387
 3429TIP3   OH231701   3.177   4.184  11.048 -0.0358 -0.3632  0.3351
 3429TIP3    H131702   3.217   4.118  10.992 -1.0245 -0.9731  0.3281
 3429TIP3    H231703   3.243   4.202  11.115  0.8661 -0.1650 -0.5829
 3430TIP3   OH231704   4.173   5.042   2.828 -0.2906 -0.6249  0.2710
 3430TIP3    H131705   4.181   5.006   2.916  1.3510 -2.7336 -0.6642
 3430TIP3    H231706   4.147   4.968   2.774  3.1790 -0.5677 -1.7634
 3431TIP3   OH231707   6.356   0.852  15.676 -0.5894  0.6502  0.0829
 3431TIP3    H131708   6.361   0.782  15.741 -1.1207  1.0792  0.6023
 3431TIP3    H231709   6.272   0.839  15.632 -0.7779  1.0668  0.3125
 3432TIP3   OH231710   3.068   3.612  12.442 -0.1905  0.5152 -0.1021
 3432TIP3    H131711   3.128   3.646  12.376 -0.4922  1.7670  0.2457
 3432TIP3    H231712   3.053   3.685  12.501 -0.0923 -0.5228  1.2471
 3433TIP3   OH231713   2.234   1.959   3.433 -0.2076 -0.0511 -0.3611
 3433TIP3    H131714   2.320   1.946   3.394 -0.2531 -0.9856 -0.1841
 3433TIP3    H231715   2.250   1.963   3.527 -0.3623 -0.3654 -0.3178
 3434TIP3   OH231716   1.354   0.044   0.686  0.7306 -0.4298  0.2066
 3434TIP3    H131717   1.358   0.080   0.597  1.6519  0.0744  0.4321
 3434TIP3    H231718   1.400   0.109   0.739 -1.3090  0.1591  1.3644
 3435TIP3   OH231719   5.511   5.770  15.305  0.0904 -0.9129  0.5338
 3435TIP3    H131720   5.600   5.783  15.337 -0.7576 -0.1978  2.7543
 3435TIP3    H231721   5.512   5.682  15.267  1.5237 -1.2370  1.2436
 3436TIP3   OH231722   3.506   1.316   6.217  0.2326  0.5260 -0.0705
 3436TIP3    H131723   3.529   1.223   6.211 -0.3204  0.2846  1.2068
 3436TIP3    H231724   3.434   1.319   6.280  1.4118  2.0177  1.2689
 3437TIP3   OH231725   4.318   2.487   1.327 -0.6387 -0.4711  0.4551
 3437TIP3    H131726   4.264   2.452   1.397 -0.8897 -0.8851  0.0618
 3437TIP3    H231727   4.276   2.570   1.304 -0.0110  0.1218  1.4242
 3438TIP3   OH231728   3.330   2.541  13.991  0.1172 -0.1795 -0.0023
 3438TIP3    H131729   3.286   2.497  13.918  0.0391  1.1712 -0.7931
 3438TIP3    H231730   3.341   2.631  13.962  0.6827  0.2316  1.4029
 3439TIP3   OH231731   0.298   5.773  16.674  0.3617  0.2280  0.4839
 3439TIP3    H131732   0.347   5.710  16.728 -0.4085 -0.7873  0.0396
 3439TIP3    H231733   0.206   5.759  16.699  0.0945  0.4729 -0.3495
 3440TIP3   OH231734   0.268   4.608  11.643  0.3495  0.6757  0.0548
 3440TIP3    H131735   0.224   4.561  11.572 -1.1208  3.2812 -0.8932
 3440TIP3    H231736   0.293   4.539  11.705 -1.9439 -1.2950 -1.0313
 3441TIP3   OH231737   5.965   5.067  14.919  0.1757 -0.2998  0.1421
 3441TIP3    H131738   5.971   5.044  14.826 -1.2158 -2.4672  0.5069
 3441TIP3    H231739   5.907   5.144  14.921 -1.5893 -1.5306 -0.6982
 3442TIP3   OH231740   3.011   3.621  17.002 -0.2198 -0.0408  0.4145
 3442TIP3    H131741   3.058   3.574  17.070  1.0981 -0.4125 -0.7054
 3442TIP3    H231742   3.044   3.710  17.005  0.1537 -0.1604  0.0040
 3443TIP3   OH231743   0.333   1.939   1.135 -0.0127  0.6404 -0.5706
 3443TIP3    H131744   0.372   1.867   1.086  0.2462 -0.0601  0.6328
 3443TIP3    H231745   0.408   1.990   1.166 -0.1540  0.6613 -0.2684
 3444TIP3   OH231746   4.356   5.854   1.590 -0.0059 -0.3058 -0.5711
 3444TIP3    H131747   4.405   5.849   1.672  1.2178 -1.3034 -1.3355
 3444TIP3    H231748   4.414   5.900   1.530 -1.4377  1.6714 -0.5491
 3445TIP3   OH231749   3.420   3.548   5.634 -0.0520  0.5045 -0.1151
 3445TIP3    H131750   3.424   3.459   5.598 -0.0605  0.6805 -0.5534
 3445TIP3    H231751   3.512   3.574   5.642 -0.0706  1.0642 -1.5139
 3446TIP3   OH231752   1.264   6.142   4.879  0.8437 -0.3976 -0.3023
 3446TIP3    H131753   1.303   6.129   4.965 -0.7954 -0.1932  0.5273
 3446TIP3    H231754   1.226   6.057   4.857 -1.3500  0.2725  0.6115
 3447TIP3   OH231755   3.759   3.032   3.441 -0.5044  0.1008 -0.5601
 3447TIP3    H131756   3.786   3.109   3.490 -1.7280  0.8084 -0.9731
 3447TIP3    H231757   3.795   3.046   3.353  1.0912 -0.8405 -0.1145
 3448TIP3   OH231758   5.727   5.272   2.805 -0.0258  0.1564 -0.7244
 3448TIP3    H131759   5.633   5.278   2.787 -0.3501  2.6412  1.1347
 3448TIP3    H231760   5.769   5.299   2.724 -0.7748 -2.4791 -2.0968
 3449TIP3   OH231761   3.887   4.701   3.824 -0.4090 -0.5032  0.0359
 3449TIP3    H131762   3.823   4.642   3.864  0.0828  0.6395  2.7031
 3449TIP3    H231763   3.971   4.672   3.859  0.5225 -1.2922 -2.5743
 3450TIP3   OH231764   5.687   0.509  16.572  0.0567 -0.1464 -0.4897
 3450TIP3    H131765   5.734   0.430  16.546  0.7519  0.4474 -1.0800
 3450TIP3    H231766   5.702   0.570  16.500  1.5560  1.3720  1.0123
 3451TIP3   OH231767   1.812   4.834  11.820 -0.3925  0.7384 -0.1766
 3451TIP3    H131768   1.878   4.780  11.864 -1.5307  0.3940  1.2087
 3451TIP3    H231769   1.840   4.924  11.836 -1.2968  0.6626  2.2593
 3452TIP3   OH231770   3.163   5.083   2.237  0.5371  0.3310  0.0553
 3452TIP3    H131771   3.179   5.032   2.316 -0.7360  1.7748  1.3165
 3452TIP3    H231772   3.246   5.127   2.220  0.5592  0.7910  1.2186
 3453TIP3   OH231773   4.846   3.488  15.213 -0.0298 -0.1193 -0.4516
 3453TIP3    H131774   4.763   3.476  15.166 -0.6208 -1.7797  0.9040
 3453TIP3    H231775   4.913   3.489  15.145 -1.1577  1.4436 -1.5879
 3454TIP3   OH231776   1.059   1.535  15.613  0.1211 -0.0868 -0.4251
 3454TIP3    H131777   1.127   1.587  15.656 -0.4498  0.7914 -0.5670
 3454TIP3    H231778   1.093   1.520  15.525 -0.2716  1.2009 -0.8256
 3455TIP3   OH231779   0.228   5.929   3.106 -0.5239 -0.1281 -0.3369
 3455TIP3    H131780   0.222   5.967   3.193  2.1239  2.2041 -1.0282
 3455TIP3    H231781   0.189   5.994   3.048 -2.0166 -1.5327 -0.9994
 3456TIP3   OH231782   2.130   1.408   3.583  0.1349  0.6339  0.4427
 3456TIP3    H131783   2.134   1.368   3.670  1.9245  0.4598  0.3274
 3456TIP3    H231784   2.222   1.415   3.556 -0.3783  0.6034 -1.4761
 3457TIP3   OH231785   4.422   0.252  10.973  0.5535 -0.1707 -0.6393
 3457TIP3    H131786   4.365   0.277  10.900  1.2282  0.2171 -1.0400
 3457TIP3    H231787   4.437   0.158  10.961  2.3144  0.2604 -2.1986
 3458TIP3   OH231788   2.627   0.889  15.339 -0.1894 -0.8041  0.6105
 3458TIP3    H131789   2.595   0.978  15.324  0.4119 -0.4751  1.2478
 3458TIP3    H231790   2.552   0.842  15.374 -0.9473 -0.9613 -1.1450
 3459TIP3   OH231791   3.427   5.286   5.564  0.4359 -0.4106 -0.3649
 3459TIP3    H131792   3.374   5.228   5.510  0.6270  0.1195 -1.1372
 3459TIP3    H231793   3.457   5.231   5.636  1.3159 -1.4993 -1.5223
 3460TIP3   OH231794   4.193   3.630   0.300 -0.2912  0.1192  0.2838
 3460TIP3    H131795   4.198   3.544   0.257  1.5470  0.0944  0.5006
 3460TIP3    H231796   4.161   3.611   0.388  2.2983 -0.6962  1.1320
 3461TIP3   OH231797   2.200   3.613  12.689  0.4211  0.1956  0.1897
 3461TIP3    H131798   2.187   3.551  12.762  3.2982  0.3273  0.9240
 3461TIP3    H231799   2.213   3.557  12.612  2.1340 -0.1680  0.6974
 3462TIP3   OH231800   6.579   1.223   0.228  0.2478 -0.5514 -0.4531
 3462TIP3    H131801   6.538   1.154   0.279  0.7256 -0.1265  0.5459
 3462TIP3    H231802   6.561   1.303   0.277  2.7599 -0.4192  0.4055
 3463TIP3   OH231803   3.874   0.557   5.742 -0.2848  0.8006 -0.0228
 3463TIP3    H131804   3.933   0.630   5.759 -0.7287  0.7853  1.7951
 3463TIP3    H231805   3.787   0.591   5.764 -0.5594 -0.1297  0.3696
 3464TIP3   OH231806   3.340   2.514  15.718 -0.2554 -0.2829  0.1253
 3464TIP3    H131807   3.278   2.561  15.662  1.0347  0.0529 -1.0830
 3464TIP3    H231808   3.342   2.425  15.682  1.2059  0.1475 -0.9874
 3465TIP3   OH231809   2.579   1.785  12.347 -0.6504 -0.3538  0.7785
 3465TIP3    H131810   2.671   1.770  12.369 -1.4309 -1.6781  3.5700
 3465TIP3    H231811   2.561   1.722  12.277  0.3512 -0.6467  0.7582
 3466TIP3   OH231812   6.082   0.659   3.173 -0.1947  0.5583  0.1580
 3466TIP3    H131813   6.130   0.611   3.105 -0.2069 -1.6569  1.6159
 3466TIP3    H231814   6.104   0.751   3.157  0.6464  0.0368 -2.1599
 3467TIP3   OH231815   3.115   5.481  13.114 -0.4620 -0.1802  0.4069
 3467TIP3    H131816   3.172   5.417  13.157 -0.2610 -1.2034 -1.3203
 3467TIP3    H231817   3.176   5.547  13.080 -0.6789  1.0588  2.3065
 3468TIP3   OH231818   6.699   3.532   4.360  0.1794 -0.6472  0.0630
 3468TIP3    H131819   6.658   3.446   4.357 -1.5315  0.1494 -2.6480
 3468TIP3    H231820   6.661   3.574   4.437 -1.8985 -1.0163 -0.6971
 3469TIP3   OH231821   3.128   2.715  16.217  0.2769  0.1225  0.1045
 3469TIP3    H131822   3.034   2.727  16.208  0.5248  1.2728 -1.2016
 3469TIP3    H231823   3.156   2.676  16.134  0.9230 -0.5113  0.6035
 3470TIP3   OH231824   5.625   3.358   1.445  0.7541  0.1346  0.5474
 3470TIP3    H131825   5.668   3.338   1.528  0.7436 -0.7910  0.3421
 3470TIP3    H231826   5.575   3.279   1.424 -0.1005  0.7561  0.1872
 3471TIP3   OH231827   6.599   1.400  10.280 -0.6270 -0.0099  0.6013
 3471TIP3    H131828   6.639   1.378  10.364 -1.5179  0.6741  1.2391
 3471TIP3    H231829   6.506   1.378  10.291 -0.8371  0.5065 -0.0440
 3472TIP3   OH231830   6.662   5.398  12.934  0.0214 -0.3643  0.3408
 3472TIP3    H131831   6.648   5.333  13.003  1.3327 -0.2900  0.7040
 3472TIP3    H231832   6.584   5.393  12.880 -0.7647 -0.8565  1.4902
 3473TIP3   OH231833   3.408   0.215   0.669  0.1890  0.3665  0.1718
 3473TIP3    H131834   3.496   0.218   0.631 -0.0906  0.2231 -0.5043
 3473TIP3    H231835   3.365   0.294   0.635  0.0623  0.4469  0.5153
 3474TIP3   OH231836   0.562   5.058   3.741  0.2092  0.5760  0.2016
 3474TIP3    H131837   0.532   5.129   3.797 -0.2767 -0.7690  1.7263
 3474TIP3    H231838   0.592   5.101   3.661 -1.4933  2.3588  0.4498
 3475TIP3   OH231839   0.796   6.109  16.269  0.0923  0.1072  0.0735
 3475TIP3    H131840   0.844   6.125  16.350  0.2926 -2.1676  0.4841
 3475TIP3    H231841   0.864   6.101  16.203 -0.0075  0.9196 -0.1382
 3476TIP3   OH231842   3.972   1.767  14.173 -0.3199  0.5453 -0.1505
 3476TIP3    H131843   3.995   1.677  14.197  1.2171  0.3388 -2.1580
 3476TIP3    H231844   3.899   1.757  14.112 -1.4251  0.8194  1.0806
 3477TIP3   OH231845   3.976   2.567   0.928  0.3508 -0.2923 -0.6696
 3477TIP3    H131846   4.029   2.498   0.967  1.0908  0.0559 -1.0412
 3477TIP3    H231847   3.926   2.522   0.859 -0.6552 -0.8249  0.3741
 3478TIP3   OH231848   4.775   2.383  10.889  0.7473  0.4158  0.0268
 3478TIP3    H131849   4.726   2.350  10.813  0.0779  1.2345  0.0933
 3478TIP3    H231850   4.819   2.461  10.858  0.9956  0.3887  0.3071
 3479TIP3   OH231851   1.192   0.877   1.076  0.0231  0.1909 -0.0173
 3479TIP3    H131852   1.273   0.829   1.095 -0.6741 -1.0439 -0.0521
 3479TIP3    H231853   1.137   0.814   1.029 -0.5590  1.3490 -0.9303
 3480TIP3   OH231854   4.598   4.464   6.594 -0.4906  0.3852  0.1201
 3480TIP3    H131855   4.578   4.546   6.639  2.0352  1.6817 -0.9493
 3480TIP3    H231856   4.575   4.480   6.503 -0.6202 -0.3659  0.0120
 3481TIP3   OH231857   2.864   5.594  14.690 -0.0773  0.6421  0.2488
 3481TIP3    H131858   2.908   5.625  14.611 -0.2478 -2.3454 -1.1802
 3481TIP3    H231859   2.896   5.505  14.702 -1.7063  0.2365  2.3082
 3482TIP3   OH231860   2.917   0.023  10.931  0.1739 -0.1509 -0.0677
 3482TIP3    H131861   2.824   0.001  10.928  0.6130 -2.2087 -0.8564
 3482TIP3    H231862   2.943   0.027  10.839  1.0915 -0.7756  0.1542
 3483TIP3   OH231863   5.441   4.423  16.069 -0.6264  0.1126 -0.0903
 3483TIP3    H131864   5.518   4.438  16.015 -1.0840 -0.5911 -0.9584
 3483TIP3    H231865   5.428   4.329  16.068 -0.1450 -0.0282  1.9816
 3484TIP3   OH231866   2.958   3.916  13.945 -0.4130  0.4003 -0.1779
 3484TIP3    H131867   2.889   3.949  13.888  0.0114  0.9428 -0.3831
 3484TIP3    H231868   3.021   3.875  13.886 -0.2441  0.4816 -0.0564
 3485TIP3   OH231869   3.571   1.722  12.674 -0.1461 -1.3024 -0.0239
 3485TIP3    H131870   3.491   1.748  12.720  1.7455  0.1261  2.7460
 3485TIP3    H231871   3.576   1.780  12.599 -0.9607 -0.4303  0.5725
 3486TIP3   OH231872   5.396   3.002  13.255  0.2300  0.4165  0.2607
 3486TIP3    H131873   5.390   3.071  13.321  0.8440  1.9012 -1.1677
 3486TIP3    H231874   5.372   3.046  13.173  0.3957 -1.1418 -0.6515
 3487TIP3   OH231875   2.496   6.585   5.654  0.3681 -0.0745  0.0441
 3487TIP3    H131876   2.447   6.659   5.690  3.1234  1.9076  0.0636
 3487TIP3    H231877   2.429   6.524   5.625 -2.0529  1.8558  1.1584
 3488TIP3   OH231878   6.691   3.839  11.473  0.4043 -0.0311  0.3760
 3488TIP3    H131879   6.779   3.870  11.451  0.3699  0.9072  1.4364
 3488TIP3    H231880   6.668   3.888  11.552 -1.5230  0.6023 -0.5094
 3489TIP3   OH231881   1.486   6.258  16.688 -1.0184  0.1991 -0.4145
 3489TIP3    H131882   1.539   6.309  16.627  2.8244 -1.1077  1.4715
 3489TIP3    H231883   1.482   6.170  16.649  0.1610 -0.2472  0.3925
 3490TIP3   OH231884   5.968   3.945   5.606  0.6538  0.4927  0.1451
 3490TIP3    H131885   5.882   3.955   5.567  0.6057 -1.8700 -0.5522
 3490TIP3    H231886   5.953   3.950   5.701 -0.3104 -0.1744  0.0358
 3491TIP3   OH231887   5.556   3.798   0.582  0.0652 -0.1971 -0.4921
 3491TIP3    H131888   5.563   3.806   0.678  0.2027 -0.6386 -0.4652
 3491TIP3    H231889   5.592   3.881   0.549 -1.4347  0.6390 -0.1172
 3492TIP3   OH231890   6.036   3.056  14.322 -0.3723 -0.0807  0.1414
 3492TIP3    H131891   6.018   2.983  14.262 -2.4490 -1.3129  2.1136
 3492TIP3    H231892   6.096   3.112  14.273  1.4329 -3.1218 -1.4764
 3493TIP3   OH231893   0.715   1.730  11.460  0.0647 -0.4248 -0.3964
 3493TIP3    H131894   0.712   1.635  11.447  0.6943 -0.6633  0.9646
 3493TIP3    H231895   0.748   1.765  11.377 -0.6714 -1.3410 -1.0865
 3494TIP3   OH231896   3.216   0.038   5.570  0.1354 -0.1503 -0.2619
 3494TIP3    H131897   3.187  -0.014   5.495  0.8539 -1.9103  0.6045
 3494TIP3    H231898   3.148   0.104   5.582 -0.5956 -0.5937 -1.6999
 3495TIP3   OH231899   3.966   6.060   2.672  1.4858 -0.4565 -0.0513
 3495TIP3    H131900   3.913   6.096   2.601  1.0939  1.3662  1.1056
 3495TIP3    H231901   3.902   6.026   2.734  1.8332 -2.5507 -0.7395
 3496TIP3   OH231902   2.795   0.182   2.896 -1.3484 -0.1668  0.5246
 3496TIP3    H131903   2.842   0.260   2.869  1.5091 -2.1798 -0.8161
 3496TIP3    H231904   2.834   0.157   2.980 -2.0446 -0.3212  0.8125
 3497TIP3   OH231905   5.110   4.741  14.397 -0.6357 -0.1122 -0.4011
 3497TIP3    H131906   5.159   4.741  14.479 -1.0472  1.8915 -0.1110
 3497TIP3    H231907   5.090   4.648  14.382  0.2006 -0.6174  1.2957
 3498TIP3   OH231908   5.609   6.569   0.715 -0.8767  0.1375 -0.0713
 3498TIP3    H131909   5.662   6.553   0.793  0.3252 -3.6316 -1.4292
 3498TIP3    H231910   5.527   6.604   0.748  0.9666  2.4823  2.4661
 3499TIP3   OH231911   4.811   5.813  14.523  0.0027 -0.9472  0.3911
 3499TIP3    H131912   4.892   5.850  14.558  0.5148 -1.7312  0.0749
 3499TIP3    H231913   4.821   5.718  14.536 -0.1630 -1.1941 -1.0696
 3500TIP3   OH231914   3.843   3.403  15.882 -0.4220 -0.5295 -0.3647
 3500TIP3    H131915   3.916   3.365  15.931 -1.4266  1.0196  2.5310
 3500TIP3    H231916   3.883   3.438  15.803  2.7455  2.9914  2.4099
 3501TIP3   OH231917   5.430   3.010  12.909  0.8431 -0.0310 -0.1475
 3501TIP3    H131918   5.360   3.052  12.960  1.2363 -0.8671  1.1313
 3501TIP3    H231919   5.417   3.042  12.820 -1.0202  0.0325  0.0971
 3502TIP3   OH231920   0.181   1.846   5.092  0.0718  0.2055  0.0564
 3502TIP3    H131921   0.267   1.831   5.132 -0.7178 -1.4621  1.2723
 3502TIP3    H231922   0.161   1.938   5.111  1.0890  0.2980  0.7707
 3503TIP3   OH231923   1.773   6.310   0.442 -0.2120 -0.0920 -0.2078
 3503TIP3    H131924   1.861   6.281   0.467 -0.1400  0.1483 -0.1789
 3503TIP3    H231925   1.780   6.405   0.437 -0.7544  0.0266  0.9237
 3504TIP3   OH231926   2.845   5.601  13.485  0.3317 -0.3741 -0.0402
 3504TIP3    H131927   2.825   5.510  13.459 -0.2798 -0.4006  0.5012
 3504TIP3    H231928   2.807   5.654  13.415 -1.5247 -0.4356  0.8767
 3505TIP3   OH231929   1.541   1.622   3.837 -0.1135  0.5398  0.0128
 3505TIP3    H131930   1.550   1.654   3.927 -0.0870 -1.2511  0.6963
 3505TIP3    H231931   1.571   1.531   3.841  1.5191  0.8872 -2.1778
 3506TIP3   OH231932   2.988   5.331   1.598  0.9647 -0.1938  0.2206
 3506TIP3    H131933   2.980   5.268   1.527  0.7724  0.0137  0.0543
 3506TIP3    H231934   2.960   5.414   1.559 -1.0014 -0.4183  1.0351
 3507TIP3   OH231935   6.450   5.591  15.597  0.7285 -0.4393  0.0376
 3507TIP3    H131936   6.496   5.634  15.525  0.1651  0.2072  0.0477
 3507TIP3    H231937   6.501   5.614  15.675  0.6990 -0.1709 -0.0189
 3508TIP3   OH231938   4.338   6.115  15.957  0.5905 -0.3223  0.0940
 3508TIP3    H131939   4.243   6.129  15.957  0.4141 -1.3593  1.1457
 3508TIP3    H231940   4.374   6.194  15.995  0.3014  0.7580 -1.7384
 3509TIP3   OH231941   6.576   6.650   4.079  0.1964 -0.5214  0.6514
 3509TIP3    H131942   6.524   6.587   4.028 -0.9418  1.0120 -0.1572
 3509TIP3    H231943   6.623   6.596   4.142  0.4563 -2.3358 -1.0052
 3510TIP3   OH231944   3.993   3.979   4.915 -0.4689  0.0980  0.2613
 3510TIP3    H131945   3.990   3.888   4.886  1.7753  0.4767 -1.3682
 3510TIP3    H231946   3.913   4.018   4.879 -0.5560 -0.8056 -0.5546
 3511TIP3   OH231947   4.875   1.292  16.514 -0.4069 -0.4695  0.0709
 3511TIP3    H131948   4.946   1.237  16.546 -2.6466 -2.3467  2.2084
 3511TIP3    H231949   4.843   1.338  16.591 -1.9798 -0.2867 -0.6409
 3512TIP3   OH231950   1.817   0.984   4.832  0.1663  0.3292  0.3146
 3512TIP3    H131951   1.808   0.889   4.831  0.1286  0.3175  1.1743
 3512TIP3    H231952   1.736   1.016   4.792 -1.3792  0.0722  3.0375
 3513TIP3   OH231953   1.909   6.658  14.163  0.5701 -0.0068 -0.3766
 3513TIP3    H131954   1.973   6.606  14.211  1.0974  0.0505 -1.0068
 3513TIP3    H231955   1.846   6.594  14.129 -1.3008  0.1151  2.4630
 3514TIP3   OH231956   6.633   5.305   0.072  0.2263  0.1491 -0.2272
 3514TIP3    H131957   6.696   5.233   0.072  1.7150  1.4008  0.4744
 3514TIP3    H231958   6.611   5.318  -0.021  3.2860  1.5314 -0.8838
 3515TIP3   OH231959   6.606   4.747   1.874  0.2158 -0.2335  0.1475
 3515TIP3    H131960   6.683   4.777   1.826  0.4398 -2.0376 -0.7017
 3515TIP3    H231961   6.597   4.808   1.946  1.5917  0.8538 -0.5661
 3516TIP3   OH231962   2.694   4.250   5.969  0.2211  0.0649 -0.0260
 3516TIP3    H131963   2.668   4.299   6.047  0.2648  0.9789 -0.5727
 3516TIP3    H231964   2.660   4.301   5.896  0.4906 -0.5921 -0.6210
 3517TIP3   OH231965   4.222   4.220  12.271  0.3728  0.1651  0.3813
 3517TIP3    H131966   4.161   4.172  12.214 -1.2122  1.5531  0.8497
 3517TIP3    H231967   4.292   4.157  12.288 -1.1018 -1.6298  0.1200
 3518TIP3   OH231968   3.014   6.217  12.309 -0.6169  0.3192 -0.1928
 3518TIP3    H131969   2.976   6.211  12.221 -0.8293  0.3623 -0.1039
 3518TIP3    H231970   3.065   6.137  12.319 -3.1778 -1.2957  0.8702
 3519TIP3   OH231971   0.021   6.756  15.123 -0.2582 -0.1135  0.3501
 3519TIP3    H131972   0.097   6.812  15.111  0.5635 -1.4641 -1.0968
 3519TIP3    H231973   0.015   6.705  15.042 -2.5862 -0.2207  0.4993
 3520TIP3   OH231974   4.256   2.232  12.934  0.6979 -0.8997 -0.2085
 3520TIP3    H131975   4.221   2.321  12.934  0.8410 -0.7954  1.6934
 3520TIP3    H231976   4.180   2.176  12.920  0.5214 -0.5219 -0.8151
 3521TIP3   OH231977   1.354   1.730   1.145 -0.3884 -0.1181 -0.0301
 3521TIP3    H131978   1.395   1.646   1.131  1.0040  0.6412 -0.6861
 3521TIP3    H231979   1.412   1.793   1.102 -2.5736  0.9453 -1.5944
 3522TIP3   OH231980   2.651   0.356  13.559  0.3037 -0.3827  0.5851
 3522TIP3    H131981   2.711   0.426  13.535  0.3972 -1.1558 -1.7141
 3522TIP3    H231982   2.584   0.398  13.613  1.6846  0.9351  1.3280
 3523TIP3   OH231983   6.121   4.876  12.481 -0.1849  0.1209 -0.0371
 3523TIP3    H131984   6.153   4.951  12.431  0.7271 -0.0770  0.2344
 3523TIP3    H231985   6.141   4.898  12.572  1.9139 -1.2638 -0.0809
 3524TIP3   OH231986   2.520   0.530  16.658 -0.3621 -0.0242  0.4139
 3524TIP3    H131987   2.501   0.624  16.663 -0.7772 -0.0092 -1.1331
 3524TIP3    H231988   2.614   0.524  16.673  0.1656  0.9417 -2.0943
 3525TIP3   OH231989   2.596   6.722   3.582 -0.2157  0.3573  0.2783
 3525TIP3    H131990   2.661   6.785   3.551  0.1092  0.7293  1.6187
 3525TIP3    H231991   2.549   6.768   3.652 -0.9261 -0.4090  0.3257
 3526TIP3   OH231992   1.920   4.908  16.818 -0.0841 -0.0501  0.1570
 3526TIP3    H131993   1.836   4.885  16.777  0.0922  1.7786 -1.3926
 3526TIP3    H231994   1.896   4.947  16.902 -0.8238  0.5106 -0.2998
 3527TIP3   OH231995   6.747   1.680   0.132 -0.1199  0.1498  0.4448
 3527TIP3    H131996   6.776   1.704   0.044  0.9588  2.8739  1.4219
 3527TIP3    H231997   6.655   1.656   0.121 -0.0103  0.4336 -1.4232
 3528TIP3   OH231998   0.654   0.125   2.606  0.0064  0.1878 -0.5910
 3528TIP3    H131999   0.673   0.214   2.636 -1.8200  1.3746 -2.6321
 3528TIP3    H232000   0.722   0.107   2.541  0.4722  0.0308 -0.0603
 3529TIP3   OH232001   5.584   4.352   4.851 -0.3659 -0.1204 -0.2394
 3529TIP3    H132002   5.505   4.298   4.843  0.4248 -1.1817 -1.2147
 3529TIP3    H232003   5.629   4.317   4.928 -0.7491  0.3791  0.2205
 3530TIP3   OH232004   3.987   3.561  11.193 -0.2657 -0.3784 -0.1446
 3530TIP3    H132005   3.953   3.472  11.186  0.1022 -0.4047 -2.1131
 3530TIP3    H232006   3.941   3.599  11.269  0.0671 -2.4224  1.1448
 3531TIP3   OH232007   4.787   2.501   0.445  0.8334 -0.0294  0.0429
 3531TIP3    H132008   4.855   2.446   0.406  0.6199  1.1269 -2.0833
 3531TIP3    H232009   4.761   2.560   0.375 -1.5653  0.3385  1.1507
 3532TIP3   OH232010   4.986   5.180   1.352  0.0027  0.6618  0.0426
 3532TIP3    H132011   5.023   5.160   1.437 -1.4261 -0.6426  0.3886
 3532TIP3    H232012   5.027   5.118   1.292 -0.9328 -0.2172  0.2795
 3533TIP3   OH232013   2.310   2.589   0.427 -0.0346  0.1352 -0.3029
 3533TIP3    H132014   2.363   2.618   0.502  0.8893  0.4605 -1.0646
 3533TIP3    H232015   2.233   2.646   0.429 -1.8099 -2.0885  2.4259
 3534TIP3   OH232016   3.126   0.826   4.434 -0.2500 -0.1456  0.3431
 3534TIP3    H132017   3.032   0.813   4.446 -0.6117  2.0650  0.2942
 3534TIP3    H232018   3.155   0.869   4.515  0.7235 -0.7848  0.3533
 3535TIP3   OH232019   6.741   1.481  12.492 -0.1549 -0.0674  0.2531
 3535TIP3    H132020   6.813   1.535  12.524 -0.8714  0.4175  1.0863
 3535TIP3    H232021   6.663   1.535  12.504 -0.8567 -1.1946  0.8846
 3536TIP3   OH232022   3.746   0.332  15.335  0.8950 -0.0938  0.2484
 3536TIP3    H132023   3.707   0.250  15.365 -0.5319  0.3106 -0.4422
 3536TIP3    H232024   3.693   0.400  15.376  0.2298  0.4632 -1.4652
 3537TIP3   OH232025   5.605   0.957   4.450  0.1519 -0.3241 -0.0974
 3537TIP3    H132026   5.584   1.018   4.521  1.2160 -1.5535  1.3300
 3537TIP3    H232027   5.537   0.889   4.455  0.1813 -0.3721 -0.3141
 3538TIP3   OH232028   1.425   4.945   2.328 -0.4541 -1.1110  0.0775
 3538TIP3    H132029   1.421   5.031   2.286 -1.2566 -0.3839  1.5497
 3538TIP3    H232030   1.445   4.885   2.257 -0.8410  0.1715 -1.1707
 3539TIP3   OH232031   1.521   0.030  13.350  0.5806 -0.0376 -0.5192
 3539TIP3    H132032   1.522   0.048  13.444  0.8313  1.9241 -0.8546
 3539TIP3    H232033   1.428   0.035  13.326  0.3414 -2.0289 -0.1599
 3540TIP3   OH232034   0.560   0.792  10.889  0.4247  0.3443  0.1359
 3540TIP3    H132035   0.466   0.789  10.870  0.3730  1.7205  0.0830
 3540TIP3    H232036   0.598   0.727  10.829 -0.4080  0.3319 -0.3978
 3541TIP3   OH232037   1.426   3.987   2.778  0.1269 -0.2533 -0.0715
 3541TIP3    H132038   1.380   3.924   2.833  0.5322  0.2429  0.8411
 3541TIP3    H232039   1.430   4.067   2.830  3.2076 -0.6392  0.4400
 3542TIP3   OH232040   0.339   6.165   5.815  0.0741  0.2426  0.4939
 3542TIP3    H132041   0.297   6.215   5.886 -0.5607  0.3848  0.0342
 3542TIP3    H232042   0.413   6.220   5.788  0.3302  0.1804  1.0505
 3543TIP3   OH232043   2.279   0.764  16.169 -0.0409 -0.7652 -0.9671
 3543TIP3    H132044   2.374   0.748  16.173  0.2791  1.0341  1.8550
 3543TIP3    H232045   2.240   0.677  16.173  1.5302 -1.4746 -0.1030
 3544TIP3   OH232046   5.975   1.687  11.859  0.6454 -1.0683 -0.0901
 3544TIP3    H132047   5.884   1.714  11.850  0.8383 -0.6869 -1.0225
 3544TIP3    H232048   5.978   1.599  11.819  0.2811 -1.9745  1.7912
 3545TIP3   OH232049   4.447   2.021   1.067  0.0003  0.2255  0.0806
 3545TIP3    H132050   4.523   1.992   1.016  0.2809  0.9067  0.1078
 3545TIP3    H232051   4.473   2.105   1.105 -0.4859  0.1038  0.7190
 3546TIP3   OH232052   3.150   4.439   6.439 -0.1476 -0.6604  0.2461
 3546TIP3    H132053   3.194   4.425   6.523 -0.3813 -1.1429  0.2872
 3546TIP3    H232054   3.069   4.485   6.462  1.6795  3.1728 -0.0698
 3547TIP3   OH232055   1.930   6.773   1.365  0.0731  0.1563 -0.0375
 3547TIP3    H132056   2.007   6.756   1.419 -0.0892 -0.1974  0.0834
 3547TIP3    H232057   1.940   6.864   1.337  0.6739  0.0247 -0.2534
 3548TIP3   OH232058   0.075   4.274  11.718  0.1958 -0.2285  0.0287
 3548TIP3    H132059   0.075   4.342  11.786  1.0992  0.0425 -0.2269
 3548TIP3    H232060   0.020   4.309  11.648  0.5504  0.1869 -0.0460
 3549TIP3   OH232061   3.424   3.952  17.013 -0.0961  0.1915 -0.3745
 3549TIP3    H132062   3.408   3.901  17.092 -0.1407  1.7870  0.6899
 3549TIP3    H232063   3.396   4.041  17.035  1.1751  0.9802 -1.7113
 3550TIP3   OH232064   4.281   4.047   3.806 -0.1347 -0.4909 -0.4470
 3550TIP3    H132065   4.316   3.965   3.842  0.3782  0.1903  0.6508
 3550TIP3    H232066   4.186   4.033   3.804 -0.1122 -0.8588  0.4209
 3551TIP3   OH232067   4.817   0.765   0.685 -0.4029  0.1663 -0.8971
 3551TIP3    H132068   4.791   0.816   0.762  0.5080  2.3265 -1.9336
 3551TIP3    H232069   4.743   0.772   0.625 -1.5725 -2.4104  0.0573
 3552TIP3   OH232070   5.250   3.336   4.871 -0.4750  0.0337 -0.0101
 3552TIP3    H132071   5.242   3.385   4.953 -0.0825 -0.2653  0.2122
 3552TIP3    H232072   5.344   3.336   4.852 -0.5148 -0.2908 -0.2199
 3553TIP3   OH232073   5.578   5.415  11.323 -0.1215  0.4323 -0.1444
 3553TIP3    H132074   5.529   5.425  11.242 -0.4674 -0.6619 -0.0788
 3553TIP3    H232075   5.661   5.459  11.306  0.6064 -1.4210 -1.8139
 3554TIP3   OH232076   4.384   6.599   3.601  0.7733 -0.0360 -0.4613
 3554TIP3    H132077   4.379   6.631   3.691  1.7757 -0.2505 -0.3148
 3554TIP3    H232078   4.397   6.678   3.549  1.8005 -0.0473 -0.2455
 3555TIP3   OH232079   3.049   3.754  15.538  0.5551  0.6952  0.5748
 3555TIP3    H132080   2.968   3.731  15.585  0.4824 -1.7342 -0.6239
 3555TIP3    H232081   3.044   3.705  15.456  0.9025  4.4271 -1.8896
 3556TIP3   OH232082   4.231   2.251   3.652  0.1630 -0.1206 -0.1737
 3556TIP3    H132083   4.265   2.322   3.706  0.0570 -0.7123  0.6811
 3556TIP3    H232084   4.136   2.254   3.664 -0.0860  1.0530 -1.9765
 3557TIP3   OH232085   0.505   3.571  15.802 -0.5855  0.1600  0.2002
 3557TIP3    H132086   0.485   3.516  15.877  1.6079 -0.4686  0.4060
 3557TIP3    H232087   0.528   3.656  15.839  1.4015 -0.4063  0.4001
 3558TIP3   OH232088   4.397   1.033   1.624  0.4910 -0.1663 -0.1971
 3558TIP3    H132089   4.441   1.014   1.542  2.3362  0.1005  0.6664
 3558TIP3    H232090   4.325   0.970   1.628 -0.8514  1.0473 -2.8464
 3559TIP3   OH232091   3.843   1.052  11.251  0.6355 -0.8244 -0.1380
 3559TIP3    H132092   3.861   1.119  11.185  1.5026 -0.8785  0.0265
 3559TIP3    H232093   3.833   0.971  11.201 -0.1368 -0.6258 -0.3139
 3560TIP3   OH232094   0.728   0.535   2.952 -0.0353 -0.3646  0.3035
 3560TIP3    H132095   0.813   0.543   2.995  0.7063  1.1860 -1.3289
 3560TIP3    H232096   0.721   0.613   2.897 -2.8152 -0.0788  0.8746
 3561TIP3   OH232097   2.037   3.744  13.808 -0.3388  0.0799 -0.2900
 3561TIP3    H132098   2.061   3.652  13.818  0.0360  0.2690  0.6492
 3561TIP3    H232099   2.058   3.765  13.717 -0.0462 -0.6481 -0.3962
 3562TIP3   OH232100   1.737   2.918  12.631 -0.0089 -0.4951 -0.0046
 3562TIP3    H132101   1.688   2.849  12.674 -1.0516  0.1244 -0.1740
 3562TIP3    H232102   1.672   2.985  12.609  1.0238  0.7217  0.4903
 3563TIP3   OH232103   2.253   3.320   2.846  0.2825  0.7826 -0.9005
 3563TIP3    H132104   2.238   3.246   2.906 -0.4761  0.2437 -1.7159
 3563TIP3    H232105   2.339   3.303   2.808  1.6453  2.1395  1.3975
 3564TIP3   OH232106   1.698   6.605   3.352  0.2370  0.0303  0.8138
 3564TIP3    H132107   1.615   6.617   3.308 -0.2275 -2.1422  0.9779
 3564TIP3    H232108   1.750   6.682   3.328 -1.6010  1.1535  0.2767
 3565TIP3   OH232109   3.632   3.015   3.898 -0.0158 -0.1849 -0.0590
 3565TIP3    H132110   3.546   3.034   3.936  0.1897  0.2625  0.1894
 3565TIP3    H232111   3.686   2.989   3.973  0.5656  1.3153  0.0757
 3566TIP3   OH232112   1.665   5.095  13.290 -0.7121  0.2853 -0.5391
 3566TIP3    H132113   1.575   5.067  13.276 -0.0341 -2.6325  0.2174
 3566TIP3    H232114   1.708   5.018  13.328  1.8677  1.8948  0.0171
 3567TIP3   OH232115   5.518   3.137  10.674  0.3072 -0.7236 -0.0789
 3567TIP3    H132116   5.473   3.138  10.759  1.6693  0.8498  0.6746
 3567TIP3    H232117   5.550   3.048  10.665  2.3536 -0.3455  2.3388
 3568TIP3   OH232118   2.116   0.423  12.329  0.3731 -0.0126  0.2500
 3568TIP3    H132119   2.034   0.381  12.305  1.1023 -1.8539  0.7932
 3568TIP3    H232120   2.168   0.422  12.248  0.3036  0.0628  0.2041
 3569TIP3   OH232121   6.154   0.283  10.868 -0.6269 -0.2491 -0.3784
 3569TIP3    H132122   6.213   0.286  10.943  0.3934  0.6660 -1.1845
 3569TIP3    H232123   6.181   0.204  10.820 -0.9838 -0.5904 -0.0194
 3570TIP3   OH232124   2.772   4.746   5.147 -0.0785  0.4422  0.4755
 3570TIP3    H132125   2.699   4.765   5.089 -1.7168 -1.7134  1.6750
 3570TIP3    H232126   2.843   4.717   5.089 -1.0525  0.1140 -0.5672
 3571TIP3   OH232127   1.853   1.948   3.403  0.2434  1.0469  0.0415
 3571TIP3    H132128   1.802   1.969   3.324 -0.8737  0.4477  0.5769
 3571TIP3    H232129   1.846   1.853   3.411  1.3458  0.9715  0.2157
 3572TIP3   OH232130   5.461   4.240   6.166 -0.2517  0.4610 -0.2283
 3572TIP3    H132131   5.450   4.151   6.199 -0.1793  0.2103 -0.8550
 3572TIP3    H232132   5.475   4.294   6.244 -0.8462  0.0110  0.1934
 3573TIP3   OH232133   1.498   5.384  14.252  0.3967  0.0072  0.0170
 3573TIP3    H132134   1.412   5.347  14.274 -0.3531  2.1435  0.9301
 3573TIP3    H232135   1.478   5.467  14.209  1.9776  1.0472  1.1734
 3574TIP3   OH232136   3.995   5.434   5.508  0.0854 -0.0575 -0.6473
 3574TIP3    H132137   3.910   5.412   5.546 -0.3729  0.4593 -1.3503
 3574TIP3    H232138   3.987   5.525   5.479  1.7955  0.9550  1.7555
 3575TIP3   OH232139   2.515   0.986  12.997 -0.2764 -0.1912 -0.0630
 3575TIP3    H132140   2.516   1.019  13.087 -0.5819  0.3547 -0.2525
 3575TIP3    H232141   2.430   0.943  12.988  0.1889 -1.1928  0.2340
 3576TIP3   OH232142   5.570   0.909   1.837  0.3360  0.2038  0.1374
 3576TIP3    H132143   5.635   0.840   1.823 -0.7494 -1.1814  1.6022
 3576TIP3    H232144   5.486   0.865   1.830 -0.3783  1.1797  1.9293
 3577TIP3   OH232145   1.408   2.351  14.194 -0.5248 -0.0020  0.2339
 3577TIP3    H132146   1.419   2.444  14.174  0.1395 -0.4766 -1.8549
 3577TIP3    H232147   1.462   2.305  14.129 -1.2294 -1.8751  0.8858
 3578TIP3   OH232148   5.606   0.294   1.282  0.5878  0.4202 -0.1896
 3578TIP3    H132149   5.557   0.218   1.314  3.4207 -0.6773  2.0276
 3578TIP3    H232150   5.635   0.269   1.194 -1.2811  0.3850 -0.8253
 3579TIP3   OH232151   2.047   4.605   2.017 -0.3838 -0.5198  0.1204
 3579TIP3    H132152   1.965   4.604   1.968  0.2920 -3.1430 -1.1179
 3579TIP3    H232153   2.080   4.694   2.006 -2.2945  0.1492 -0.6236
 3580TIP3   OH232154   1.962   1.239   5.667 -0.0571  0.0492 -0.3165
 3580TIP3    H132155   1.954   1.266   5.759  0.7982  1.4638 -0.6129
 3580TIP3    H232156   1.969   1.144   5.670 -0.6964  0.0242  1.0322
 3581TIP3   OH232157   5.699   1.179  11.439 -0.2939 -0.2065 -0.0924
 3581TIP3    H132158   5.701   1.085  11.423 -1.4306 -0.1646 -0.5716
 3581TIP3    H232159   5.651   1.215  11.364 -1.3295  0.5603  0.8975
 3582TIP3   OH232160   6.546   5.661  12.103  0.2543  0.3684 -0.5451
 3582TIP3    H132161   6.527   5.693  12.191  0.8076 -0.7963  0.0253
 3582TIP3    H232162   6.475   5.696  12.049 -0.4421  0.5941  0.4746
 3583TIP3   OH232163   2.164   5.012  17.234 -0.6295 -0.3757  0.2810
 3583TIP3    H132164   2.248   5.048  17.262 -1.1641  1.8666 -0.7788
 3583TIP3    H232165   2.099   5.067  17.276 -1.5411 -0.8321 -0.4964
 3584TIP3   OH232166   4.290   5.586   1.527  0.3724 -0.0264  0.0473
 3584TIP3    H132167   4.232   5.565   1.600 -0.1237 -1.3140 -0.7000
 3584TIP3    H232168   4.318   5.676   1.545  0.8761 -0.5554  2.2226
 3585TIP3   OH232169   5.627   0.682  12.704 -0.2335 -0.3822 -0.6942
 3585TIP3    H132170   5.708   0.682  12.755  1.4183 -1.7005 -3.0931
 3585TIP3    H232171   5.638   0.610  12.642 -2.4622  0.5644 -2.3275
 3586TIP3   OH232172   3.601   1.106  13.805  0.3876 -0.1126 -0.0756
 3586TIP3    H132173   3.609   1.143  13.893  1.8011  0.2614 -0.3345
 3586TIP3    H232174   3.531   1.157  13.765 -0.0741 -0.0861  0.7328
 3587TIP3   OH232175   5.381   1.527  10.816  0.1064  0.1165 -0.0476
 3587TIP3    H132176   5.336   1.557  10.895 -2.0625  1.3189 -1.6566
 3587TIP3    H232177   5.377   1.432  10.821 -2.1572  0.1714  0.1907
 3588TIP3   OH232178   1.992   3.455   5.293  0.2546 -0.2802  0.3807
 3588TIP3    H132179   2.029   3.543   5.290  0.4682 -0.3901 -1.3580
 3588TIP3    H232180   2.068   3.397   5.301  0.2869 -0.3776 -0.4954
 3589TIP3   OH232181   5.591   1.235   4.264  0.6017 -0.4661 -0.6088
 3589TIP3    H132182   5.571   1.176   4.337 -0.8378  0.8028  0.0761
 3589TIP3    H232183   5.586   1.322   4.302  1.5738  0.1643 -1.8601
 3590TIP3   OH232184   0.047   3.655   3.763  0.1043 -0.1195  0.2752
 3590TIP3    H132185   0.037   3.652   3.858  0.6890  0.3666  0.3598
 3590TIP3    H232186  -0.037   3.688   3.731 -0.4074 -1.1312  0.5513
 3591TIP3   OH232187   3.626   6.124   2.704  0.3272 -0.3040  0.1721
 3591TIP3    H132188   3.576   6.045   2.726  0.2042 -0.0042  0.9819
 3591TIP3    H232189   3.654   6.159   2.788 -1.6860  1.8749  0.0057
 3592TIP3   OH232190   4.492   3.447  11.153  0.1662  0.0291 -0.3586
 3592TIP3    H132191   4.436   3.506  11.102  0.0796  0.4267  0.1863
 3592TIP3    H232192   4.522   3.382  11.090 -1.5301 -0.6537 -0.5250
 3593TIP3   OH232193   1.815   5.766   1.578 -0.3357  0.1064 -0.1325
 3593TIP3    H132194   1.906   5.767   1.549  0.7885  1.7641  2.9847
 3593TIP3    H232195   1.789   5.674   1.570  1.5107 -0.3766 -1.3089
 3594TIP3   OH232196   2.889   3.041   2.010  0.3723 -0.0511 -0.0325
 3594TIP3    H132197   2.861   2.955   2.041 -0.0703  0.2572  0.4371
 3594TIP3    H232198   2.810   3.080   1.972  1.0357 -0.6789 -2.2087
 3595TIP3   OH232199   1.783   4.536  16.813  0.7571  0.3020  0.1462
 3595TIP3    H132200   1.785   4.440  16.805  0.0039  0.4231 -2.2454
 3595TIP3    H232201   1.875   4.562  16.817  1.0056 -0.4554 -0.4218
 3596TIP3   OH232202   3.625   3.476   0.790  0.5436 -0.1878  0.1113
 3596TIP3    H132203   3.593   3.438   0.872  1.5267 -0.6907  0.2738
 3596TIP3    H232204   3.656   3.401   0.739 -0.1212  0.1048 -0.7691
 3597TIP3   OH232205   6.389   1.365   3.746 -0.5335 -0.1464  0.2246
 3597TIP3    H132206   6.363   1.454   3.772  0.5717 -0.3063  2.0579
 3597TIP3    H232207   6.354   1.309   3.815 -0.8955 -1.1205 -0.7288
 3598TIP3   OH232208   4.215   4.895   0.281  0.5435 -0.5425  0.2250
 3598TIP3    H132209   4.230   4.945   0.201 -0.6741  0.2029  0.4396
 3598TIP3    H232210   4.298   4.851   0.298  1.4193  0.8279 -0.3850
 3599TIP3   OH232211   3.655   2.178   6.144 -0.0614  0.8438  0.3074
 3599TIP3    H132212   3.655   2.132   6.229  0.1305  0.0390 -0.1196
 3599TIP3    H232213   3.734   2.147   6.100 -0.9991 -0.0116 -0.8347
 3600TIP3   OH232214   4.653   6.108  12.456 -0.3376 -0.1634 -0.3699
 3600TIP3    H132215   4.699   6.177  12.503  0.6870 -0.3246 -1.0846
 3600TIP3    H232216   4.716   6.078  12.390 -1.0553 -1.2114 -0.6123
 3601TIP3   OH232217   2.954   0.611   0.088  0.4310 -0.3090  0.1340
 3601TIP3    H132218   2.990   0.612  -0.001  0.0005  0.3435 -0.0405
 3601TIP3    H232219   3.024   0.573   0.141  0.4210 -1.3756 -0.5841
 3602TIP3   OH232220   5.340   4.944   4.696 -0.0197  0.1543  0.2785
 3602TIP3    H132221   5.253   4.978   4.675 -1.2447 -2.8174  0.0306
 3602TIP3    H232222   5.356   4.878   4.629  1.1682 -1.3384  1.9414
 3603TIP3   OH232223   3.216   6.760   0.616 -0.4784 -0.3322 -0.1707
 3603TIP3    H132224   3.254   6.763   0.528 -0.3839  1.2253 -0.0998
 3603TIP3    H232225   3.262   6.828   0.664  0.1995 -1.8551  1.4175
 3604TIP3   OH232226   5.533   4.938   3.618  0.1130  0.5001 -0.6745
 3604TIP3    H132227   5.489   4.866   3.572 -0.9772  0.4403  0.3943
 3604TIP3    H232228   5.515   4.921   3.711  1.3777  1.1730 -0.2831
 3605TIP3   OH232229   4.451   2.542   0.906  0.7411  0.4292 -0.0856
 3605TIP3    H132230   4.515   2.489   0.953  0.1176  0.8872  1.3388
 3605TIP3    H232231   4.483   2.631   0.912  0.0837  0.6396  0.4802
 3606TIP3   OH232232   3.893   1.571  15.798  0.6452  0.2395 -0.4794
 3606TIP3    H132233   3.965   1.633  15.785 -0.9546  1.9861 -1.3530
 3606TIP3    H232234   3.822   1.604  15.744 -1.6416 -0.0867  2.1148
 3607TIP3   OH232235   6.301   4.772  12.166  0.4097  0.2042 -0.3925
 3607TIP3    H132236   6.259   4.751  12.082 -1.0076  0.2146  0.2883
 3607TIP3    H232237   6.388   4.733  12.159 -0.1832 -1.0403 -1.3399
 3608TIP3   OH232238   0.552   5.108  14.690  0.7526 -0.3758 -0.2437
 3608TIP3    H132239   0.576   5.082  14.778  0.8586  2.2166  0.5892
 3608TIP3    H232240   0.458   5.128  14.695  1.0870  1.3784 -0.2174
 3609TIP3   OH232241   4.074   3.685  11.632  0.2297  0.0846  0.1521
 3609TIP3    H132242   3.982   3.663  11.647 -0.1810  2.4522  1.6084
 3609TIP3    H232243   4.113   3.605  11.597 -1.7403 -1.8850  2.1838
 3610TIP3   OH232244   1.692   0.858  14.750 -0.0033  0.2499 -0.5138
 3610TIP3    H132245   1.698   0.949  14.718  1.9059  0.6772  0.9253
 3610TIP3    H232246   1.779   0.838  14.784 -1.0183 -1.3181  1.3430
 3611TIP3   OH232247   3.213   5.231   3.082  0.6950 -0.1410 -0.1965
 3611TIP3    H132248   3.227   5.176   3.159  3.7139  0.2661 -0.3157
 3611TIP3    H232249   3.216   5.321   3.115  0.6363  0.0097 -0.5917
 3612TIP3   OH232250   4.038   6.626   3.789 -0.1558 -0.4311  0.5091
 3612TIP3    H132251   4.125   6.596   3.816  0.8753  2.9134  1.2944
 3612TIP3    H232252   3.992   6.644   3.870 -0.4032  0.8512  0.1005
 3613TIP3   OH232253   5.291   6.330   4.768  0.2409  0.0758  0.6033
 3613TIP3    H132254   5.298   6.259   4.705  2.6253 -0.6264  1.5354
 3613TIP3    H232255   5.254   6.290   4.846  1.1841 -0.0884  0.9857
 3614TIP3   OH232256   5.359   5.338  11.473 -0.1324  0.0790 -0.5049
 3614TIP3    H132257   5.326   5.318  11.386  1.5118 -0.6960 -0.9845
 3614TIP3    H232258   5.414   5.416  11.461 -0.3790  0.3303 -0.0435
 3615TIP3   OH232259   6.533   0.327  13.143  0.2903  0.0062  0.7796
 3615TIP3    H132260   6.586   0.286  13.211  1.2286  2.0359  1.3682
 3615TIP3    H232261   6.443   0.306  13.167  0.6504 -0.0806  2.1636
 3616TIP3   OH232262   0.221   2.811  15.579  0.1259 -0.2630 -0.0263
 3616TIP3    H132263   0.157   2.865  15.532  1.1507 -0.6359 -1.9898
 3616TIP3    H232264   0.171   2.735  15.609 -1.3852  1.6940  2.9436
 3617TIP3   OH232265   1.666   6.705  15.494 -0.4093 -0.2121 -0.3433
 3617TIP3    H132266   1.761   6.712  15.480 -0.3279 -0.3233  0.1185
 3617TIP3    H232267   1.657   6.633  15.557 -0.8743 -0.8776 -1.1548
 3618TIP3   OH232268   6.296   4.612  13.076  0.6052  0.9980  0.2516
 3618TIP3    H132269   6.223   4.625  13.016  1.0010  0.0161 -0.4726
 3618TIP3    H232270   6.281   4.675  13.147 -1.3008  0.3612  0.4689
 3619TIP3   OH232271   3.880   0.775   2.659 -0.4082 -0.2431  0.5297
 3619TIP3    H132272   3.787   0.798   2.659 -0.5033 -0.5011 -1.3410
 3619TIP3    H232273   3.917   0.827   2.588  1.5218  2.1190  3.0490
 3620TIP3   OH232274   1.363   4.710  14.621 -0.1370 -0.6292  0.2843
 3620TIP3    H132275   1.282   4.673  14.657  2.1238 -3.0995  3.3705
 3620TIP3    H232276   1.373   4.795  14.665 -1.7563  0.5111 -1.3929
 3621TIP3   OH232277   6.078   4.908  17.062 -0.4079  0.0327  0.4507
 3621TIP3    H132278   6.055   4.890  16.971 -0.7007 -0.5831  0.6378
 3621TIP3    H232279   6.162   4.954  17.057 -1.5886  2.2801 -0.2482
 3622TIP3   OH232280   2.846   6.698  15.997 -0.1126 -0.3757 -0.9172
 3622TIP3    H132281   2.810   6.787  15.989 -0.5474 -0.4928 -0.3532
 3622TIP3    H232282   2.791   6.645  15.940 -1.4230 -0.7066  0.5636
 3623TIP3   OH232283   3.909   1.041   2.096  0.2068 -0.3652  0.3413
 3623TIP3    H132284   3.979   1.079   2.043 -2.2429  0.2389 -2.8221
 3623TIP3    H232285   3.906   1.094   2.175  1.7281  1.1568 -0.5608
 3624TIP3   OH232286   0.058   2.139  16.943 -0.3318 -0.1278 -0.1925
 3624TIP3    H132287   0.008   2.079  16.999  0.6451  0.4336  1.3486
 3624TIP3    H232288   0.127   2.085  16.905  1.2853  0.1340  2.1244
 3625TIP3   OH232289   0.567   2.354  11.773  0.6338  0.4240  0.8219
 3625TIP3    H132290   0.553   2.274  11.723  0.9990  1.7879 -1.5745
 3625TIP3    H232291   0.634   2.330  11.837  1.1482 -1.0444 -0.2156
 3626TIP3   OH232292   1.805   5.570   4.583 -0.8025 -1.0003  0.5222
 3626TIP3    H132293   1.756   5.522   4.517 -0.4365 -1.4872  0.5956
 3626TIP3    H232294   1.815   5.657   4.547  0.6271 -1.6396 -0.7293
 3627TIP3   OH232295   1.501   3.029   0.848 -0.0499  0.2912 -0.1287
 3627TIP3    H132296   1.537   3.102   0.899 -0.9707  0.8782 -0.3007
 3627TIP3    H232297   1.529   3.047   0.758  1.2307 -0.5324  0.0656
 3628TIP3   OH232298   6.662   4.916  14.787 -0.0861 -0.1258  0.1289
 3628TIP3    H132299   6.651   4.823  14.806 -2.3036  0.3702  1.5794
 3628TIP3    H232300   6.625   4.961  14.863  2.4287  1.9856  0.2261
 3629TIP3   OH232301   5.064   1.278  11.330  0.2735 -0.5678 -0.4482
 3629TIP3    H132302   5.009   1.281  11.252 -0.7668  0.6387  0.3007
 3629TIP3    H232303   5.137   1.221  11.305  0.0233 -0.1426 -2.3165
 3630TIP3   OH232304   5.041   2.611  11.286  0.8344  0.2482 -0.3761
 3630TIP3    H132305   5.082   2.667  11.220  1.0012 -0.1599 -0.6240
 3630TIP3    H232306   5.095   2.532  11.286 -0.8308 -0.9665 -1.8239
 3631TIP3   OH232307   4.288   4.681   0.683 -0.3943  0.3258 -0.4779
 3631TIP3    H132308   4.249   4.664   0.769  1.7767 -0.6240  0.3964
 3631TIP3    H232309   4.323   4.770   0.689 -2.9902  1.5070 -1.5525
 3632TIP3   OH232310   0.369   1.443   0.662 -0.5430 -0.1150 -0.3453
 3632TIP3    H132311   0.370   1.396   0.578  1.4023 -1.3480  0.3029
 3632TIP3    H232312   0.291   1.411   0.706 -0.8515 -0.4716 -1.1247
 3633TIP3   OH232313   3.815   6.316  15.007 -0.2409 -0.1400  0.1502
 3633TIP3    H132314   3.800   6.402  15.047  1.9655 -0.0464  0.9327
 3633TIP3    H232315   3.847   6.261  15.079  1.0210 -0.7932 -0.8542
 3634TIP3   OH232316   3.282   4.912   0.049 -0.2238 -0.5421  0.0021
 3634TIP3    H132317   3.297   4.984  -0.012 -0.4065 -0.5093 -0.0053
 3634TIP3    H232318   3.304   4.833  -0.000  2.7552 -0.3624  0.8551
 3635TIP3   OH232319   6.652   0.062   3.646  0.0244  0.1688 -0.3590
 3635TIP3    H132320   6.695   0.102   3.571 -0.1504 -1.4547 -1.3804
 3635TIP3    H232321   6.654  -0.032   3.628  0.6103 -0.3553  2.0115
 3636TIP3   OH232322   6.111   4.681  11.552 -0.2069  0.1935  0.5474
 3636TIP3    H132323   6.148   4.759  11.595  0.0876  0.4466 -0.1521
 3636TIP3    H232324   6.177   4.613  11.566 -0.0232  0.3262  0.3366
 3637TIP3   OH232325   0.942   3.698  13.042  0.3608  0.3673 -0.0460
 3637TIP3    H132326   0.907   3.682  12.954 -0.8690  1.2526  0.2453
 3637TIP3    H232327   0.875   3.752  13.084 -0.3050 -2.0646  2.2784
 3638TIP3   OH232328   2.364   1.187   2.038 -0.7184 -0.2240 -0.0054
 3638TIP3    H132329   2.336   1.277   2.057  1.0737  0.1237  1.2664
 3638TIP3    H232330   2.447   1.197   1.991  0.0909 -1.1544  1.1304
 3639TIP3   OH232331   1.970   1.622   0.587  0.1168 -0.0252  0.1863
 3639TIP3    H132332   1.923   1.542   0.611  0.4380 -0.0197  0.8339
 3639TIP3    H232333   1.998   1.607   0.496 -0.9146 -0.1314 -0.1263
 3640TIP3   OH232334   0.187   6.490   0.689  0.4090  0.6006  0.2665
 3640TIP3    H132335   0.264   6.521   0.737  1.8574  0.9732 -2.1283
 3640TIP3    H232336   0.121   6.558   0.703  0.5986  0.4721  2.0293
 3641TIP3   OH232337   5.128   1.219  11.628 -0.3424 -1.0307 -0.3534
 3641TIP3    H132338   5.141   1.170  11.710 -0.5713 -1.4413 -0.5611
 3641TIP3    H232339   5.215   1.222  11.588 -0.1016 -0.2985  0.1902
 3642TIP3   OH232340   3.846   2.383   5.983  0.4026  0.7282 -0.0336
 3642TIP3    H132341   3.754   2.365   5.965  0.1411  0.1120  1.6871
 3642TIP3    H232342   3.870   2.320   6.051  1.9273  1.2951  0.0005
 3643TIP3   OH232343   3.500   5.453  15.034 -0.1959 -0.6614 -0.0829
 3643TIP3    H132344   3.440   5.506  14.983 -0.1249 -0.6168 -0.1208
 3643TIP3    H232345   3.505   5.498  15.119  0.0039 -0.5052 -0.1745
 3644TIP3   OH232346   1.356   5.896   5.150  0.1078  0.2245 -0.3823
 3644TIP3    H132347   1.388   5.947   5.225 -0.2723  2.0081 -1.3932
 3644TIP3    H232348   1.433   5.850   5.118  0.6606  0.8281  0.0480
 3645TIP3   OH232349   0.067   2.506   0.684  0.1240 -0.3365  0.2719
 3645TIP3    H132350   0.065   2.599   0.664 -1.3977 -0.5242 -0.5939
 3645TIP3    H232351   0.124   2.499   0.761 -0.0667  1.3349  0.5956
 3646TIP3   OH232352   2.732   6.589   4.651 -0.3298  0.1069 -0.7032
 3646TIP3    H132353   2.819   6.557   4.627 -0.1612  1.3805 -1.9399
 3646TIP3    H232354   2.724   6.569   4.744  2.0178  1.4945 -0.1103
 3647TIP3   OH232355   1.103   3.607   6.418 -0.2932 -1.1668  0.2789
 3647TIP3    H132356   1.051   3.538   6.458 -0.6995  0.0268  1.9421
 3647TIP3    H232357   1.128   3.664   6.492  2.2733 -0.9723 -0.6306
 3648TIP3   OH232358   2.731   3.085  12.859  0.2185  0.1007  0.2026
 3648TIP3    H132359   2.711   3.159  12.915 -0.3314  1.1840 -1.3563
 3648TIP3    H232360   2.678   3.099  12.780  0.1896 -1.8846 -0.1935
 3649TIP3   OH232361   0.705   6.486  16.929 -0.1498 -0.0402 -0.5859
 3649TIP3    H132362   0.738   6.529  16.851 -0.2691  0.1656 -0.5221
 3649TIP3    H232363   0.782   6.472  16.984 -0.1602  0.3797 -0.4652
 3650TIP3   OH232364   3.676   0.208   3.019 -0.3949  0.0019  0.0478
 3650TIP3    H132365   3.711   0.274   2.960 -0.8060 -0.1411 -0.3643
 3650TIP3    H232366   3.646   0.258   3.095 -0.9697  0.3303 -0.3849
 3651TIP3   OH232367   0.523   1.087   3.577 -0.5184  0.3080 -0.1195
 3651TIP3    H132368   0.514   0.994   3.556  1.4484  0.0549 -0.0701
 3651TIP3    H232369   0.551   1.128   3.495  2.0773  0.1929  0.5936
 3652TIP3   OH232370   3.858   0.067  12.424 -0.4829  0.6251  0.2813
 3652TIP3    H132371   3.948   0.043  12.447 -0.2670 -0.3238 -1.3825
 3652TIP3    H232372   3.806   0.042  12.500  0.4039 -0.8323  0.4561
 3653TIP3   OH232373   4.284   0.010  15.486  0.0908  1.2466  0.5172
 3653TIP3    H132374   4.207   0.009  15.430  1.6361 -0.1480 -1.7902
 3653TIP3    H232375   4.270   0.084  15.546 -1.5040  3.1742 -2.0199
 3654TIP3   OH232376   6.678   3.848  15.622  0.0735 -0.4703 -0.0952
 3654TIP3    H132377   6.665   3.825  15.714 -1.2075  0.1147 -0.1046
 3654TIP3    H232378   6.592   3.880  15.593  0.4560 -0.6303 -1.4911
 3655TIP3   OH232379   6.107   5.559   1.672  0.0899  0.1806  0.0355
 3655TIP3    H132380   6.196   5.587   1.695  0.3612 -1.0203  0.5352
 3655TIP3    H232381   6.115   5.524   1.583  0.0392  0.4213 -0.0634
 3656TIP3   OH232382   5.367   0.642  11.026 -0.4595 -0.5667  0.4610
 3656TIP3    H132383   5.446   0.657  11.079  0.3874 -0.5988 -0.7609
 3656TIP3    H232384   5.371   0.549  11.003 -0.6572 -0.4780  0.0695
 3657TIP3   OH232385   4.681   0.788  13.337 -0.1355 -0.3136 -0.4392
 3657TIP3    H132386   4.708   0.791  13.429 -1.8712 -1.4103  0.1644
 3657TIP3    H232387   4.643   0.875  13.320  0.1770 -0.1126 -0.1257
 3658TIP3   OH232388   2.647   2.043  14.383  0.4363 -0.2431  0.2391
 3658TIP3    H132389   2.620   2.080  14.467  0.9940 -0.8441  0.6918
 3658TIP3    H232390   2.743   2.037  14.389  0.5870  0.6675 -0.8380
 3659TIP3   OH232391   0.209   4.087  11.895  0.0247 -0.4381  0.2137
 3659TIP3    H132392   0.165   4.159  11.851  0.1609 -0.2636  0.3623
 3659TIP3    H232393   0.185   4.010  11.844 -0.7419 -0.3982  0.4909
 3660TIP3   OH232394   3.049   1.681  11.991 -0.0658 -0.3016 -0.3114
 3660TIP3    H132395   3.097   1.758  11.961 -1.4077  0.9893  0.7325
 3660TIP3    H232396   2.977   1.671  11.927  0.5336 -1.1844 -0.8792
 3661TIP3   OH232397   5.329   4.596  15.742 -0.7937  0.2416 -0.2610
 3661TIP3    H132398   5.335   4.672  15.684  3.6322  0.8926  0.6666
 3661TIP3    H232399   5.291   4.630  15.822 -2.2829  0.5251 -1.0488
 3662TIP3   OH232400   4.953   2.456  13.886 -0.0875  0.5772 -0.6498
 3662TIP3    H132401   4.891   2.472  13.815 -0.0972 -1.6270 -1.1983
 3662TIP3    H232402   4.906   2.397  13.946  0.7978  0.4012 -0.1066
 3663TIP3   OH232403   4.915   2.398  13.245 -0.0044 -0.2947  0.7567
 3663TIP3    H132404   4.890   2.403  13.337  0.2325 -1.4735  0.8931
 3663TIP3    H232405   4.852   2.338  13.206  0.0487  0.0039  0.1927
 3664TIP3   OH232406   2.622   5.248  14.269 -0.3149 -0.3730 -0.3293
 3664TIP3    H132407   2.611   5.314  14.201 -0.0256 -0.8034 -0.7964
 3664TIP3    H232408   2.561   5.178  14.245 -0.4721 -0.3724  0.0520
 3665TIP3   OH232409   3.249   4.503   5.764 -0.0987 -0.4709 -0.1614
 3665TIP3    H132410   3.257   4.589   5.807 -0.1489 -0.9574  0.8590
 3665TIP3    H232411   3.155   4.489   5.758 -0.0884 -0.6231  0.0285
 3666TIP3   OH232412   0.703   1.303  11.677  0.0868 -0.6695  0.0584
 3666TIP3    H132413   0.787   1.340  11.704 -0.4217  1.5839 -1.2077
 3666TIP3    H232414   0.641   1.339  11.741 -0.1547 -0.8919 -0.0545
 3667TIP3   OH232415   0.095   2.988  13.072  0.1057 -0.0027  0.2125
 3667TIP3    H132416   0.140   2.931  13.135 -0.8724 -1.3611 -0.2604
 3667TIP3    H232417   0.002   2.968  13.083 -0.2724  1.5240  0.0129
 3668TIP3   OH232418   0.244   0.632   6.424  0.0426  0.1006 -1.4773
 3668TIP3    H132419   0.198   0.651   6.505 -1.7479 -2.5951 -1.7291
 3668TIP3    H232420   0.260   0.717   6.384 -0.4679  1.3913  0.9012
 3669TIP3   OH232421   3.635   6.774   5.678 -0.0441 -0.0891  0.2057
 3669TIP3    H132422   3.729   6.788   5.672  0.0211 -0.7130 -0.5506
 3669TIP3    H232423   3.596   6.858   5.655  0.3388 -0.2944 -1.3669
 3670TIP3   OH232424   0.677   5.357   6.036 -0.1999  0.2074 -0.7374
 3670TIP3    H132425   0.682   5.305   6.116 -1.3799 -0.1979 -0.9022
 3670TIP3    H232426   0.766   5.389   6.022  0.2194 -0.4979  0.2140
 3671TIP3   OH232427   5.674   0.955   3.469 -0.8127 -0.4206 -0.1975
 3671TIP3    H132428   5.752   0.900   3.481 -1.3621 -1.6281 -1.8053
 3671TIP3    H232429   5.614   0.900   3.419 -2.9497  0.2816  1.4451
 3672TIP3   OH232430   1.163   1.314   0.615  0.1183  0.3764 -0.3655
 3672TIP3    H132431   1.186   1.326   0.707  0.2683 -0.5138 -0.2704
 3672TIP3    H232432   1.247   1.304   0.571  0.0485  0.8688 -0.6083
 3673TIP3   OH232433   5.402   1.238   3.539 -0.0410 -0.0308  0.3622
 3673TIP3    H132434   5.468   1.209   3.601 -0.0929  0.6226  0.7288
 3673TIP3    H232435   5.388   1.162   3.482 -0.2812 -0.7658  1.3809
 3674TIP3   OH232436   3.141   6.399   5.901 -0.0624 -0.3093 -0.0362
 3674TIP3    H132437   3.175   6.336   5.965  0.9588  0.4858  0.2450
 3674TIP3    H232438   3.140   6.483   5.948 -0.6817  0.0215 -0.6220
 3675TIP3   OH232439   4.368   0.181  13.996  0.2106  0.7307 -0.1043
 3675TIP3    H132440   4.354   0.230  13.915 -0.3258  0.6688 -0.0527
 3675TIP3    H232441   4.361   0.247  14.066 -0.5530  0.5780 -0.0316
 3676TIP3   OH232442   4.045   4.908  12.587 -0.6361 -0.2605 -0.3460
 3676TIP3    H132443   3.985   4.939  12.519 -0.4061  0.9513 -0.0097
 3676TIP3    H232444   4.100   4.983  12.606 -0.7502 -0.5609  1.2519
 3677TIP3   OH232445   0.115   4.870   4.162  0.1954 -0.6741 -0.1070
 3677TIP3    H132446   0.025   4.902   4.166  0.5687  0.2945  1.6181
 3677TIP3    H232447   0.117   4.797   4.224  0.7549 -0.2508  0.3813
 3678TIP3   OH232448   4.233   3.148  14.988  0.0754 -0.0022  0.4643
 3678TIP3    H132449   4.156   3.100  15.017 -1.2577  0.6060 -1.8152
 3678TIP3    H232450   4.281   3.086  14.934 -1.6123  0.9877 -2.4249
 3679TIP3   OH232451   2.341   2.570   1.650  0.2842  0.3499  0.3154
 3679TIP3    H132452   2.260   2.602   1.689 -0.6317 -0.7848 -0.5838
 3679TIP3    H232453   2.358   2.487   1.695  0.4804  0.1786 -0.0698
 3680TIP3   OH232454   4.865   1.547  11.470  0.8662 -0.7510 -0.0916
 3680TIP3    H132455   4.892   1.639  11.475 -1.2703 -0.1133  0.6203
 3680TIP3    H232456   4.777   1.550  11.434  0.5293 -2.4997  0.5005
 3681TIP3   OH232457   1.366   2.381  12.174 -0.3225 -0.5223  0.7917
 3681TIP3    H132458   1.437   2.409  12.117 -0.9636  0.6737  0.5570
 3681TIP3    H232459   1.405   2.376  12.261  0.0364  0.2066  0.6779
 3682TIP3   OH232460   5.072   6.357  12.444  0.1117  0.4255 -0.0450
 3682TIP3    H132461   5.044   6.276  12.402  0.1823 -0.0254  0.7760
 3682TIP3    H232462   5.141   6.391  12.386  1.6067 -1.1976  0.6821
 3683TIP3   OH232463   0.318   3.687   3.716 -0.3052  0.2289  0.0640
 3683TIP3    H132464   0.328   3.722   3.628 -0.3390  1.0943  0.4004
 3683TIP3    H232465   0.227   3.658   3.720 -1.0764  2.5724  0.6445
 3684TIP3   OH232466   5.446   6.183   5.096 -0.9816  0.0403  0.9683
 3684TIP3    H132467   5.362   6.170   5.052 -0.1808 -1.0811 -0.3063
 3684TIP3    H232468   5.433   6.149   5.185 -1.6859 -0.7280  0.5768
 3685TIP3   OH232469   4.884   5.658  10.946 -0.1288 -0.1816  0.2887
 3685TIP3    H132470   4.980   5.663  10.946 -0.1087 -0.3296 -0.4908
 3685TIP3    H232471   4.858   5.716  10.874 -0.6292 -0.0389  0.5883
 3686TIP3   OH232472   6.176   1.548   4.151  0.5557  0.1816  0.4000
 3686TIP3    H132473   6.144   1.635   4.177  0.3536  0.0435  0.6127
 3686TIP3    H232474   6.129   1.487   4.207  0.4456 -0.0901  0.0171
 3687TIP3   OH232475   5.540   2.521   3.904  0.2332 -0.3577  0.0026
 3687TIP3    H132476   5.540   2.581   3.978 -1.2718  1.1186 -1.1447
 3687TIP3    H232477   5.581   2.441   3.939 -0.0037  0.4365  2.2696
 3688TIP3   OH232478   4.945   2.086  15.703  0.2320 -0.3638 -0.6508
 3688TIP3    H132479   4.967   2.078  15.796 -0.9925  0.4434 -0.2707
 3688TIP3    H232480   4.850   2.076  15.700 -0.0590  2.0732 -1.4933
 3689TIP3   OH232481   6.736   6.394   1.111  0.0313  0.5839 -0.0644
 3689TIP3    H132482   6.780   6.403   1.026  1.4615 -1.1714  0.4107
 3689TIP3    H232483   6.736   6.482   1.148  1.0266  1.0628 -1.1337
 3690TIP3   OH232484   3.233   0.819   4.790  0.5084  0.0782 -0.0559
 3690TIP3    H132485   3.150   0.783   4.820  0.9463  0.0531  1.2091
 3690TIP3    H232486   3.214   0.911   4.771  0.3352  0.2727  0.9642
 3691TIP3   OH232487   5.015   0.946  11.093  0.2260  0.1845 -0.0294
 3691TIP3    H132488   5.037   0.881  11.025  0.2288  1.3637 -1.1890
 3691TIP3    H232489   5.098   0.992  11.109 -0.1381  1.0034 -0.4416
 3692TIP3   OH232490   6.241   3.232   5.772 -0.4709 -0.4203 -0.2298
 3692TIP3    H132491   6.203   3.169   5.834  0.6034 -1.7998 -0.9231
 3692TIP3    H232492   6.184   3.227   5.695 -1.1051  0.3932  0.1803
 3693TIP3   OH232493   0.308   4.636  13.165 -0.4393  0.1540 -0.0614
 3693TIP3    H132494   0.245   4.707  13.171 -1.5897 -0.8577  0.2940
 3693TIP3    H232495   0.288   4.593  13.082  0.0656  0.0815 -0.1469
 3694TIP3   OH232496   5.324   1.587   5.150 -0.8302  0.0908  0.7570
 3694TIP3    H132497   5.265   1.573   5.076 -0.1906 -1.0255  0.4403
 3694TIP3    H232498   5.265   1.602   5.225 -1.4914  0.1553  0.2354
 3695TIP3   OH232499   1.663   3.003  15.811  0.0264 -0.0982 -0.0555
 3695TIP3    H132500   1.743   2.953  15.793  1.2738  1.3891  1.1239
 3695TIP3    H232501   1.632   3.030  15.725 -0.2664 -2.2068 -0.6665
 3696TIP3   OH232502   3.804   1.272   4.220  0.1935 -0.8371  0.2483
 3696TIP3    H132503   3.771   1.202   4.164  0.3603 -0.0737 -0.8456
 3696TIP3    H232504   3.726   1.317   4.251  0.0957  0.5681 -1.8163
 3697TIP3   OH232505   6.748   3.443   5.049  0.0072 -0.0557 -0.2232
 3697TIP3    H132506   6.807   3.385   5.097  0.2487  0.5687  0.2336
 3697TIP3    H232507   6.687   3.476   5.115 -0.2857  0.0270 -0.5288
 3698TIP3   OH232508   6.450   5.255   3.244 -0.2406  0.0967  0.1560
 3698TIP3    H132509   6.473   5.241   3.335  1.9881 -2.7132 -0.6977
 3698TIP3    H232510   6.534   5.257   3.197 -1.3386  0.2992 -1.9555
 3699TIP3   OH232511   0.696   0.588  11.654  0.3543  0.4088 -0.1161
 3699TIP3    H132512   0.660   0.544  11.731  0.5568  2.2602  1.1122
 3699TIP3    H232513   0.788   0.564  11.653  0.0697 -0.7130 -0.6071
 3700TIP3   OH232514   4.317   1.337  16.020  0.5586  0.2980 -0.4916
 3700TIP3    H132515   4.351   1.297  16.100  0.5158 -0.2811 -0.7603
 3700TIP3    H232516   4.304   1.264  15.959 -2.6272  0.2557  0.0941
 3701TIP3   OH232517   5.186   5.279  12.664  0.1812  0.0011  0.0869
 3701TIP3    H132518   5.192   5.272  12.569  0.3650  2.4892 -0.1504
 3701TIP3    H232519   5.255   5.221  12.697 -1.2050 -2.5375 -1.1382
 3702TIP3   OH232520   4.597   2.345  14.316  0.2788 -0.2830 -0.0039
 3702TIP3    H132521   4.646   2.302  14.385  0.7703 -0.3980 -0.4205
 3702TIP3    H232522   4.513   2.368  14.357  0.4164 -0.6893  0.5142
 3703TIP3   OH232523   0.587   1.685  16.811  0.1113 -0.3303  0.1827
 3703TIP3    H132524   0.500   1.698  16.771  0.5952 -0.3848 -0.9292
 3703TIP3    H232525   0.647   1.688  16.737  0.9714 -1.2581  0.8292
 3704TIP3   OH232526   0.157   4.932  17.166  0.3588 -0.7400 -0.3725
 3704TIP3    H132527   0.248   4.917  17.143 -0.0256 -2.0204 -1.1768
 3704TIP3    H232528   0.108   4.908  17.087 -0.5783  1.6649 -0.5906
 3705TIP3   OH232529   1.341   2.910   2.180  0.0555  0.1763  0.2250
 3705TIP3    H132530   1.417   2.883   2.129 -0.4672  2.0569 -1.7242
 3705TIP3    H232531   1.363   2.889   2.271  0.9527 -3.5081 -0.7048
 3706TIP3   OH232532   2.603   1.725  14.001  0.0393 -0.8486  0.1151
 3706TIP3    H132533   2.644   1.790  14.058  0.1321 -0.2871 -0.5754
 3706TIP3    H232534   2.640   1.641  14.028  0.1576 -0.5767  0.8045
 3707TIP3   OH232535   0.396   2.555   1.119  0.3040 -0.6326 -0.1197
 3707TIP3    H132536   0.461   2.624   1.110  0.3063 -0.8012 -1.6346
 3707TIP3    H232537   0.444   2.474   1.104 -0.0784 -0.8233 -0.3311
 3708TIP3   OH232538   0.845   5.736   2.168 -0.1842  0.3284 -0.1168
 3708TIP3    H132539   0.866   5.643   2.178  1.5002  0.8303  1.6706
 3708TIP3    H232540   0.865   5.756   2.076  2.3221 -0.4652  0.1888
 3709TIP3   OH232541   2.555   5.134  13.524  0.1671 -0.1460 -0.2552
 3709TIP3    H132542   2.648   5.113  13.534  0.5647  1.3350 -0.6173
 3709TIP3    H232543   2.538   5.121  13.431  0.8704  2.6525 -0.8582
 3710TIP3   OH232544   4.657   1.617   1.603  0.6218 -0.1471 -0.4745
 3710TIP3    H132545   4.577   1.576   1.572  0.4588  0.3894 -0.7786
 3710TIP3    H232546   4.727   1.576   1.551  0.4290  0.1714 -0.9964
 3711TIP3   OH232547   2.980   1.109   1.157 -0.2845  0.3336  0.1681
 3711TIP3    H132548   3.005   1.038   1.216  0.1673 -0.3345 -0.8219
 3711TIP3    H232549   2.971   1.068   1.071 -0.0798  1.4573 -0.4062
 3712TIP3   OH232550   3.199   1.042   2.800  0.3020  0.4160  0.1938
 3712TIP3    H132551   3.268   1.090   2.754  0.6320 -0.4840 -0.2792
 3712TIP3    H232552   3.119   1.067   2.755  0.4330  0.7560  0.1460
 3713TIP3   OH232553   2.185   1.039  13.340  0.3216  0.6787 -0.1102
 3713TIP3    H132554   2.191   1.131  13.314  0.7301  0.1431 -2.0707
 3713TIP3    H232555   2.125   1.000  13.277  2.2613 -0.9403 -1.0579
 3714TIP3   OH232556   3.678   6.136   2.335 -0.0911  0.1094 -0.0294
 3714TIP3    H132557   3.714   6.070   2.396  0.0220  1.2169  1.1438
 3714TIP3    H232558   3.668   6.215   2.389 -1.7922  0.5944 -0.9874
 3715TIP3   OH232559   1.087   5.261   2.636  0.9138 -0.0137 -0.2670
 3715TIP3    H132560   1.026   5.197   2.598  1.2367  0.5466 -1.7983
 3715TIP3    H232561   1.168   5.212   2.650 -0.1777 -1.1136  3.0195
 3716TIP3   OH232562   0.487   1.460  16.502  0.2872 -0.1842 -0.2480
 3716TIP3    H132563   0.525   1.548  16.509 -1.4000  0.4847  0.9818
 3716TIP3    H232564   0.415   1.470  16.440 -1.8323  0.0555  2.1310
 3717TIP3   OH232565   2.953   4.778   3.633 -1.2420 -0.1870  0.5250
 3717TIP3    H132566   2.868   4.821   3.643 -1.6068 -0.4569 -1.1198
 3717TIP3    H232567   2.940   4.717   3.560  0.3418 -0.2948  0.3067
 3718TIP3   OH232568   3.087   3.137   3.046  0.3742 -0.1238  0.3401
 3718TIP3    H132569   3.034   3.078   3.101  1.5528 -0.7761  0.8187
 3718TIP3    H232570   3.076   3.103   2.957 -0.1484 -0.1472  0.4112
 3719TIP3   OH232571   5.392   5.310   3.034  0.1851  0.4876 -0.4064
 3719TIP3    H132572   5.352   5.396   3.047  0.9091  0.9292 -1.0223
 3719TIP3    H232573   5.482   5.321   3.067  0.5495  0.2323 -1.2955
 3720TIP3   OH232574   0.662   4.045   5.559  0.0817 -0.3395 -0.6348
 3720TIP3    H132575   0.740   4.054   5.505  0.7455 -0.7176  0.2437
 3720TIP3    H232576   0.687   3.985   5.629 -0.6739  0.3253  0.2418
 3721TIP3   OH232577   0.613   5.141  11.401 -0.1544  1.0094 -0.3150
 3721TIP3    H132578   0.575   5.142  11.489  1.2354 -0.7590  0.3597
 3721TIP3    H232579   0.627   5.049  11.382  2.7398  1.4863 -0.9410
 3722TIP3   OH232580   4.525   6.023  13.499 -0.0976 -0.1285 -0.4148
 3722TIP3    H132581   4.609   6.016  13.544  0.1595  1.6365 -0.5345
 3722TIP3    H232582   4.548   6.040  13.408 -0.5785 -0.0266 -0.5204
 3723TIP3   OH232583   4.989   1.189  14.338 -0.3068  0.2461 -0.2775
 3723TIP3    H132584   5.029   1.177  14.424 -0.8926 -2.3514 -0.2646
 3723TIP3    H232585   4.905   1.231  14.356  0.0180  0.6496  0.2992
 3724TIP3   OH232586   3.174   2.802   2.954 -0.0475  0.0281 -0.3243
 3724TIP3    H132587   3.120   2.724   2.968 -0.3855  0.0036 -1.6101
 3724TIP3    H232588   3.260   2.778   2.989 -0.6342 -0.2186  1.0208
 3725TIP3   OH232589   6.614   6.670   2.950 -0.5201  0.3780  0.2553
 3725TIP3    H132590   6.568   6.589   2.972  1.2641 -0.5616  0.7480
 3725TIP3    H232591   6.580   6.694   2.864 -0.8375 -1.1053 -0.0736
 3726TIP3   OH232592   1.303   5.732   5.821 -0.3846 -0.2349 -0.8360
 3726TIP3    H132593   1.362   5.695   5.755 -0.3812 -1.6517 -0.0730
 3726TIP3    H232594   1.268   5.656   5.867 -0.5328  0.7218  0.6830
 3727TIP3   OH232595   4.830   3.717   5.663  0.2359 -0.1891  0.7991
 3727TIP3    H132596   4.803   3.806   5.687 -1.0222 -0.4372  0.3910
 3727TIP3    H232597   4.813   3.711   5.569  0.4118 -0.8360  0.8033
 3728TIP3   OH232598   1.766   3.068   5.488 -0.2469 -0.8299 -0.7840
 3728TIP3    H132599   1.773   3.129   5.414 -1.1378 -0.3533 -0.4846
 3728TIP3    H232600   1.800   2.985   5.453  2.5305  0.1694 -0.7180
 3729TIP3   OH232601   1.659   0.780   1.891  0.7796  0.1357  0.0083
 3729TIP3    H132602   1.608   0.703   1.918  1.1433 -0.7872 -1.7625
 3729TIP3    H232603   1.750   0.757   1.912  0.9750 -0.2663 -1.1998
 3730TIP3   OH232604   3.258   2.591  12.368 -0.0161 -0.9880 -0.2096
 3730TIP3    H132605   3.327   2.589  12.301  0.8838 -2.2407  0.7209
 3730TIP3    H232606   3.250   2.501  12.397  0.2442 -0.3617  1.9891
 3731TIP3   OH232607   0.565   0.861  15.035 -0.1461  0.3417 -0.3238
 3731TIP3    H132608   0.510   0.922  14.986  1.4585  1.8746 -0.3320
 3731TIP3    H232609   0.637   0.841  14.975  0.1393 -0.3684  0.2489
 3732TIP3   OH232610   6.016   6.404   2.425 -0.3367  0.4678  0.1428
 3732TIP3    H132611   5.945   6.340   2.433  2.3661 -2.8293  0.0704
 3732TIP3    H232612   6.096   6.352   2.435  2.1154  4.0224  0.7505
 3733TIP3   OH232613   0.270   4.500  12.008  0.6023 -0.1841 -0.1974
 3733TIP3    H132614   0.263   4.591  12.037  0.5230  0.2759 -1.5659
 3733TIP3    H232615   0.343   4.500  11.945  0.1440 -0.9020 -0.7559
 3734TIP3   OH232616   0.924   5.129   2.388  0.0962 -0.0750 -0.1581
 3734TIP3    H132617   1.001   5.095   2.343 -0.2346 -0.9707 -0.0656
 3734TIP3    H232618   0.873   5.051   2.412 -1.1176  0.5184 -0.7101
 3735TIP3   OH232619   2.365   4.789  16.832  0.0962 -0.2208 -0.8608
 3735TIP3    H132620   2.338   4.810  16.742 -0.3707  0.8213 -0.5018
 3735TIP3    H232621   2.294   4.824  16.886  1.0445  0.4495 -0.0130
 3736TIP3   OH232622   2.213   4.455   0.758 -0.1204 -0.0921  0.1793
 3736TIP3    H132623   2.158   4.529   0.785 -0.4517  0.1787 -1.1591
 3736TIP3    H232624   2.151   4.385   0.738  0.0258  0.0491 -0.8375
 3737TIP3   OH232625   0.732   4.551  12.132 -0.2516 -0.5697 -0.2462
 3737TIP3    H132626   0.795   4.549  12.205  0.5458 -0.6444 -0.9188
 3737TIP3    H232627   0.672   4.479  12.149  0.1385 -0.8017  0.1579
 3738TIP3   OH232628   2.223   5.251   2.672 -0.5432 -0.5916 -0.4848
 3738TIP3    H132629   2.192   5.318   2.611  1.7275  0.5398 -0.4924
 3738TIP3    H232630   2.231   5.172   2.618  3.1110  0.7795 -2.3179
 3739TIP3   OH232631   4.880   3.703  15.866 -0.6792 -0.7578  0.4839
 3739TIP3    H132632   4.870   3.731  15.774  1.4523  2.7231  1.1014
 3739TIP3    H232633   4.950   3.637  15.863 -1.5258 -1.6396 -0.4899
 3740TIP3   OH232634   2.015   2.222   1.532  0.2719 -0.2380 -0.3571
 3740TIP3    H132635   1.971   2.243   1.450 -0.5769  0.5449  0.2848
 3740TIP3    H232636   2.108   2.214   1.508  0.3365  1.9962 -1.0654
 3741TIP3   OH232637   2.332   6.252   2.192  0.0096  0.3178 -0.2290
 3741TIP3    H132638   2.265   6.318   2.210  2.0166  2.3666  0.0817
 3741TIP3    H232639   2.361   6.224   2.279  1.2176  1.2506 -0.3080
 3742TIP3   OH232640   2.919   1.725  13.249 -0.1499 -0.8389 -0.2955
 3742TIP3    H132641   3.011   1.720  13.276 -0.0743 -0.0495 -0.3811
 3742TIP3    H232642   2.921   1.761  13.161 -0.5084 -1.4385 -0.5508
 3743TIP3   OH232643   2.103   5.617  15.948 -0.0387 -0.3289  0.2922
 3743TIP3    H132644   2.146   5.672  16.014 -1.8060  0.1028  1.1475
 3743TIP3    H232645   2.098   5.530  15.989  1.0476 -0.6770 -0.2876
 3744TIP3   OH232646   5.694   0.004  12.560 -0.3082  0.0398 -0.1163
 3744TIP3    H132647   5.788  -0.008  12.544 -0.2434 -1.5646  1.2825
 3744TIP3    H232648   5.652  -0.069  12.515 -0.9507  0.8683 -0.9199
 3745TIP3   OH232649   0.553   4.109   2.366 -0.3035  0.1481  0.5086
 3745TIP3    H132650   0.569   4.113   2.460 -1.9271  0.0615  0.8137
 3745TIP3    H232651   0.480   4.047   2.356 -0.5915  0.6526 -0.7403
 3746TIP3   OH232652   6.428   4.165   0.479  0.6254 -0.5783 -0.0561
 3746TIP3    H132653   6.514   4.149   0.441  1.3151  0.8773  0.8204
 3746TIP3    H232654   6.438   4.246   0.530 -1.4393  0.0699 -0.5543
 3747TIP3   OH232655   4.141   4.839   2.071  0.6441 -0.1971  0.4090
 3747TIP3    H132656   4.185   4.903   2.014  0.2684  0.6617  1.0683
 3747TIP3    H232657   4.163   4.866   2.160  0.6760 -1.1373  0.7049
 3748TIP3   OH232658   0.830   2.399   5.382 -0.5705 -0.2987  0.1384
 3748TIP3    H132659   0.860   2.482   5.417 -1.1806  0.2704 -0.6689
 3748TIP3    H232660   0.744   2.386   5.422 -1.6328  0.7481 -1.7028
 3749TIP3   OH232661   1.749   1.847  14.836  0.0965  0.5930 -0.3856
 3749TIP3    H132662   1.686   1.830  14.906 -0.7923  0.6878 -1.1572
 3749TIP3    H232663   1.817   1.781  14.849 -0.0856  0.5612  0.5194
 3750TIP3   OH232664   3.583   5.625   3.473  0.3617  0.0079  0.2046
 3750TIP3    H132665   3.636   5.600   3.549  0.4893  0.4051  0.2468
 3750TIP3    H232666   3.545   5.543   3.442  0.7242 -0.2287  0.3859
 3751TIP3   OH232667   1.141   2.578   3.299  0.0746  0.5987 -0.2329
 3751TIP3    H132668   1.217   2.525   3.326  0.6379  0.4607 -1.9832
 3751TIP3    H232669   1.078   2.566   3.371  1.5659  0.4790  1.1286
 3752TIP3   OH232670   1.246   5.295  15.826  0.3593  0.4778 -0.3294
 3752TIP3    H132671   1.336   5.264  15.832 -0.4161 -1.8608  1.0176
 3752TIP3    H232672   1.239   5.362  15.894  1.1243  0.8481 -0.6063
 3753TIP3   OH232673   2.628   4.750  11.880 -0.0480  0.4946 -0.2029
 3753TIP3    H132674   2.631   4.758  11.975 -0.1180  0.9784 -0.2356
 3753TIP3    H232675   2.720   4.740  11.854 -0.0337  0.3116 -0.0825
 3754TIP3   OH232676   6.170   4.788  15.218 -0.0333 -0.5740  0.7137
 3754TIP3    H132677   6.167   4.706  15.169  0.2406 -0.0698 -0.1793
 3754TIP3    H232678   6.085   4.795  15.260 -0.5821 -0.6313 -0.3679
 3755TIP3   OH232679   0.219   3.506  16.659  0.1005  0.6382 -0.3837
 3755TIP3    H132680   0.167   3.449  16.715  2.8950  0.1479  1.9384
 3755TIP3    H232681   0.199   3.478  16.570 -2.6108 -0.2720  0.4204
 3756TIP3   OH232682   3.274   6.597   2.067 -0.5914  0.1277  0.0397
 3756TIP3    H132683   3.229   6.595   2.152 -1.8444  2.4606 -0.4827
 3756TIP3    H232684   3.367   6.595   2.089 -0.8299  2.4170  1.6719
 3757TIP3   OH232685   3.046   6.734   1.315 -0.0458 -0.1512 -0.4368
 3757TIP3    H132686   2.984   6.803   1.291 -0.9092 -0.2766  1.2963
 3757TIP3    H232687   2.991   6.657   1.327  0.3228 -0.1365  1.6407
 3758TIP3   OH232688   5.306   5.300   0.599 -0.0350  0.1118  0.1865
 3758TIP3    H132689   5.272   5.212   0.587  2.3362 -1.0168  1.0082
 3758TIP3    H232690   5.297   5.317   0.693  0.1955  0.4175  0.1575
 3759TIP3   OH232691   1.396   1.513   0.237  0.4672 -0.2304  0.6453
 3759TIP3    H132692   1.402   1.461   0.318  1.4081  0.1366  0.8211
 3759TIP3    H232693   1.474   1.568   0.238  0.0987  0.3215 -0.1490
 3760TIP3   OH232694   5.748   1.820   0.764  0.3736  0.1544 -0.7414
 3760TIP3    H132695   5.815   1.786   0.704  1.7037 -1.0107  1.2717
 3760TIP3    H232696   5.756   1.915   0.758  1.4823  0.0376 -1.3550
 3761TIP3   OH232697   1.064   6.645   1.033  0.6314  0.4310 -0.2779
 3761TIP3    H132698   1.046   6.736   1.009  1.3907  0.8217  0.5589
 3761TIP3    H232699   1.128   6.651   1.105 -0.5015 -0.7044  0.8972
 3762TIP3   OH232700   6.253   6.566  15.336 -0.0720 -0.2243  0.1603
 3762TIP3    H132701   6.165   6.583  15.302 -0.0891 -0.6849 -0.0359
 3762TIP3    H232702   6.264   6.629  15.407 -0.4102  0.0985 -0.0698
 3763TIP3   OH232703   5.287   0.233  14.981  0.0274  0.1892 -0.1608
 3763TIP3    H132704   5.292   0.188  15.066  1.1694  1.5047  0.5066
 3763TIP3    H232705   5.218   0.299  14.993 -0.1134  0.0866 -0.4033
 3764TIP3   OH232706   0.332   5.825  11.606  0.0718  0.1915 -0.1075
 3764TIP3    H132707   0.237   5.817  11.600  0.0982  0.2780 -0.6941
 3764TIP3    H232708   0.347   5.907  11.653 -0.1405  0.3017 -0.2331
 3765TIP3   OH232709   6.320   5.352   1.354 -0.0030  0.3465 -0.2054
 3765TIP3    H132710   6.388   5.327   1.416  0.3687  1.1515 -0.2748
 3765TIP3    H232711   6.249   5.290   1.369  0.5118 -0.1330  0.2772
 3766TIP3   OH232712   1.063   3.759   5.060 -0.2368  0.5238  0.0835
 3766TIP3    H132713   1.053   3.671   5.097 -0.4278 -0.6305 -2.4669
 3766TIP3    H232714   0.990   3.809   5.097 -1.1503 -0.9040  0.3009
 3767TIP3   OH232715   0.523   3.699   1.827 -0.0573  0.0543  0.6255
 3767TIP3    H132716   0.481   3.701   1.914  1.1256  0.7828  1.1988
 3767TIP3    H232717   0.605   3.746   1.839  0.9602 -1.3437 -0.4643
 3768TIP3   OH232718   4.246   5.521  16.414  0.2137  0.5073 -0.2529
 3768TIP3    H132719   4.195   5.574  16.476  1.6122  3.3946 -1.3603
 3768TIP3    H232720   4.181   5.479  16.358 -1.0043 -0.4236  1.7589
 3769TIP3   OH232721   5.127   4.743  12.504  0.6477  0.0498 -0.6926
 3769TIP3    H132722   5.079   4.780  12.578 -0.3653  0.0418 -1.3234
 3769TIP3    H232723   5.119   4.648  12.516  0.9482  0.0463 -0.5190
 3770TIP3   OH232724   4.667   5.761  12.919 -0.1202  0.0295 -0.0234
 3770TIP3    H132725   4.738   5.768  12.856 -0.0426 -1.1373 -0.0848
 3770TIP3    H232726   4.694   5.816  12.992  1.0259 -0.6713  0.1109
 3771TIP3   OH232727   2.818   6.673  12.439 -0.3840  0.0166 -0.0338
 3771TIP3    H132728   2.837   6.579  12.441  2.2967  0.4884  0.9865
 3771TIP3    H232729   2.788   6.690  12.350 -1.8008 -1.9124  0.0137
 3772TIP3   OH232730   1.182   4.690  13.279  0.1164  0.1095 -0.6143
 3772TIP3    H132731   1.174   4.603  13.239  0.2364 -0.0844 -0.2262
 3772TIP3    H232732   1.273   4.716  13.262 -0.0492  0.3614 -1.1283
 3773TIP3   OH232733   6.741   3.044  13.440  0.1319 -0.2472 -0.6022
 3773TIP3    H132734   6.715   2.955  13.416  1.7442 -0.9763  0.2122
 3773TIP3    H232735   6.755   3.041  13.534  1.1195  0.6191 -0.7047
 3774TIP3   OH232736   2.684   3.610   1.464  0.8741  0.1661  0.2992
 3774TIP3    H132737   2.617   3.556   1.422 -0.5517  0.5563  1.9203
 3774TIP3    H232738   2.741   3.639   1.393 -1.9044  1.5236 -1.5481
 3775TIP3   OH232739   3.244   1.730   0.466 -0.0083 -0.6933 -0.0128
 3775TIP3    H132740   3.276   1.775   0.388  0.2456 -0.2301  0.3519
 3775TIP3    H232741   3.269   1.639   0.454  0.0795 -0.6119 -0.4450
 3776TIP3   OH232742   0.074   5.860  16.153 -0.2015 -0.5781 -0.4934
 3776TIP3    H132743  -0.010   5.832  16.118 -0.4917  0.1199 -0.3709
 3776TIP3    H232744   0.095   5.795  16.221 -0.6333 -0.7509 -0.5250
 3777TIP3   OH232745   0.444   2.553   0.415 -0.6514  0.4289 -0.3636
 3777TIP3    H132746   0.420   2.645   0.428 -2.0408  0.3717 -2.0557
 3777TIP3    H232747   0.539   2.550   0.427 -0.7858  1.7359  1.3730
 3778TIP3   OH232748   3.298   5.761  10.816  0.4955 -0.3617  0.0109
 3778TIP3    H132749   3.362   5.696  10.788 -0.5120 -1.1451 -0.5458
 3778TIP3    H232750   3.342   5.845  10.806  0.5230 -0.6550 -3.0420
 3779TIP3   OH232751   1.031   0.684   5.410 -0.7073 -0.3172 -0.2450
 3779TIP3    H132752   1.109   0.647   5.369  0.0765  1.3466 -0.3409
 3779TIP3    H232753   0.974   0.609   5.426 -0.0726 -1.2893 -2.2605
 3780TIP3   OH232754   5.334   2.077  14.765 -0.6183  0.3027  0.2307
 3780TIP3    H132755   5.413   2.116  14.730  0.0969 -1.1080  0.1824
 3780TIP3    H232756   5.265   2.104  14.705 -0.1625  1.4462  0.2045
 3781TIP3   OH232757   6.548   3.482  11.949 -0.5053  0.0900  0.1255
 3781TIP3    H132758   6.600   3.512  12.024 -0.2057 -2.5561  1.0697
 3781TIP3    H232759   6.607   3.423  11.902 -1.3636  0.1722 -1.0834
 3782TIP3   OH232760   3.427   3.014   3.323 -0.3794  0.0032  0.3435
 3782TIP3    H132761   3.428   3.086   3.386  0.0482  1.5048 -1.2909
 3782TIP3    H232762   3.343   2.970   3.337 -0.9459  1.2375  0.9323
 3783TIP3   OH232763   6.430   2.849   6.472 -0.4294 -0.0409  0.2982
 3783TIP3    H132764   6.373   2.842   6.549  0.3045 -1.9797  0.7315
 3783TIP3    H232765   6.399   2.778   6.414  2.0991 -1.8387  0.9859
 3784TIP3   OH232766   0.711   2.511  10.768 -0.6660  0.5104 -0.5177
 3784TIP3    H132767   0.778   2.446  10.790 -0.1176  1.6579  1.5214
 3784TIP3    H232768   0.638   2.460  10.734  1.1233 -0.8092 -2.6120
 3785TIP3   OH232769   3.340   4.890  16.568 -0.2357  0.7245  0.0923
 3785TIP3    H132770   3.304   4.839  16.641  0.2977  0.8056  0.4175
 3785TIP3    H232771   3.435   4.881  16.578 -0.1352  1.6627  0.0694
 3786TIP3   OH232772   4.363   5.223   2.700  0.4486 -0.1030 -0.2101
 3786TIP3    H132773   4.301   5.174   2.753  0.4263  0.1845  0.0363
 3786TIP3    H232774   4.332   5.212   2.610 -0.3887  0.6326 -0.0237
 3787TIP3   OH232775   5.604   5.596   2.234 -0.0334 -0.0495  0.6148
 3787TIP3    H132776   5.574   5.525   2.290  2.0270  0.0585  1.9691
 3787TIP3    H232777   5.630   5.553   2.152  0.0870 -0.6773  0.9794
 3788TIP3   OH232778   4.201   4.784   3.944 -0.4662  0.2213 -0.5165
 3788TIP3    H132779   4.259   4.842   3.995  2.8714 -3.0285 -0.1956
 3788TIP3    H232780   4.235   4.790   3.854 -1.6081  0.4437 -0.9487
 3789TIP3   OH232781   3.493   2.081   5.904  0.2301 -0.6205  0.1303
 3789TIP3    H132782   3.536   2.164   5.926 -0.1851 -0.1805 -0.6982
 3789TIP3    H232783   3.474   2.041   5.989 -1.1433  0.9514  0.5963
 3790TIP3   OH232784   2.528   6.362  12.347  0.1108 -0.4095 -0.1124
 3790TIP3    H132785   2.543   6.419  12.271  1.3665  0.4906  0.7780
 3790TIP3    H232786   2.594   6.293  12.338 -0.1366 -0.6422 -0.1542
 3791TIP3   OH232787   2.278   5.522   0.818  0.1317 -0.3581  0.4235
 3791TIP3    H132788   2.362   5.515   0.863 -0.4852  0.1129  1.7100
 3791TIP3    H232789   2.300   5.552   0.729  1.3335 -0.5898  0.6340
 3792TIP3   OH232790   5.609   3.113   0.500 -0.1620  0.1928 -0.0820
 3792TIP3    H132791   5.675   3.170   0.460 -1.0172 -0.5402 -2.7730
 3792TIP3    H232792   5.647   3.025   0.494 -0.4418  0.0327  0.4783
 3793TIP3   OH232793   1.678   6.197  12.727 -0.0799  0.1889  0.2805
 3793TIP3    H132794   1.690   6.113  12.684 -1.1735  0.2535 -0.1876
 3793TIP3    H232795   1.754   6.206  12.784 -0.0638 -1.2285  0.5222
 3794TIP3   OH232796   1.668   0.369  16.386  0.3837  0.7637 -0.2149
 3794TIP3    H132797   1.605   0.406  16.447 -2.5822 -0.4552 -2.2903
 3794TIP3    H232798   1.662   0.424  16.308  0.1670 -0.6677 -1.2481
 3795TIP3   OH232799   4.349   4.920   1.312  1.0707  0.1435 -0.0620
 3795TIP3    H132800   4.442   4.904   1.324  0.6968 -1.9838  0.3200
 3795TIP3    H232801   4.322   4.859   1.243 -0.1787  0.1899  0.3508
 3796TIP3   OH232802   2.471   4.951   6.152  0.1797 -0.3483  0.5216
 3796TIP3    H132803   2.468   4.872   6.098  1.4141 -0.0757  0.0277
 3796TIP3    H232804   2.409   5.011   6.111  0.1471 -0.6229  0.1699
 3797TIP3   OH232805   0.994   4.784  15.300 -0.0423 -0.3061 -0.2269
 3797TIP3    H132806   0.954   4.728  15.234 -0.8292 -0.6542  0.5275
 3797TIP3    H232807   0.925   4.798  15.365  1.0840 -1.0444  1.1922
 3798TIP3   OH232808   2.736   6.232  15.120 -0.1053  0.1391  0.0097
 3798TIP3    H132809   2.794   6.293  15.166 -0.8896  0.3225  0.7669
 3798TIP3    H232810   2.749   6.252  15.027 -0.0286  1.1605  0.2352
 3799TIP3   OH232811   1.461   6.630  12.009  0.2694  0.0226 -0.1456
 3799TIP3    H132812   1.376   6.617  12.052 -0.5946  0.4730 -1.6336
 3799TIP3    H232813   1.494   6.713  12.044  0.7460 -0.7893  1.4131
 3800TIP3   OH232814   1.513   6.621   5.822  0.3502 -0.0577  0.1916
 3800TIP3    H132815   1.461   6.685   5.869 -0.9305 -0.1050 -1.0972
 3800TIP3    H232816   1.495   6.538   5.866  1.1140  0.2717  1.1433
 3801TIP3   OH232817   4.134   6.442   2.576  0.3130 -0.4919 -0.0685
 3801TIP3    H132818   4.119   6.393   2.495  1.0618 -0.5352 -0.1836
 3801TIP3    H232819   4.118   6.533   2.552  1.8023 -0.3506 -0.6102
 3802TIP3   OH232820   3.393   5.395  15.850 -0.1200  0.4351  0.0575
 3802TIP3    H132821   3.465   5.395  15.788  0.8196  1.4231  1.1074
 3802TIP3    H232822   3.396   5.308  15.889 -0.0355  0.1817 -0.5020
 3803TIP3   OH232823   0.275   5.799   6.376 -0.1718  0.3762  0.2581
 3803TIP3    H132824   0.229   5.716   6.393 -0.8103  1.0468  2.1006
 3803TIP3    H232825   0.215   5.866   6.408  1.4140  1.3759  1.2633
 3804TIP3   OH232826   3.129   3.774   5.528  0.3269  0.2425  0.5221
 3804TIP3    H132827   3.176   3.805   5.606  1.2683 -0.2721  0.1795
 3804TIP3    H232828   3.198   3.753   5.466 -0.4368  1.1423 -0.6653
 3805TIP3   OH232829   1.221   4.006   4.963 -0.3098  0.0828  0.0714
 3805TIP3    H132830   1.286   4.015   5.033 -0.5333  2.2698  0.0615
 3805TIP3    H232831   1.172   3.927   4.986  2.6229 -1.9921 -0.2101
 3806TIP3   OH232832   2.843   4.079  10.803 -0.3005 -0.0863  0.5131
 3806TIP3    H132833   2.806   4.034  10.880  0.2077 -1.3008  0.0703
 3806TIP3    H232834   2.852   4.170  10.831 -2.2506 -0.0234  1.1272
 3807TIP3   OH232835   0.957   0.309   5.283  0.1045  0.2374 -0.1311
 3807TIP3    H132836   0.990   0.223   5.258  1.1714 -0.0303  1.9350
 3807TIP3    H232837   0.866   0.310   5.254  0.1373 -1.5146 -0.3915
 3808TIP3   OH232838   1.285   6.351   0.337 -0.0397  0.3065  0.1302
 3808TIP3    H132839   1.345   6.398   0.279  0.2723  0.6084  0.6868
 3808TIP3    H232840   1.198   6.385   0.314 -0.2535 -1.3755 -1.8889
 3809TIP3   OH232841   3.929   4.588  16.623  0.1717  0.1482  0.5626
 3809TIP3    H132842   3.933   4.555  16.534  1.2426  1.4166  0.1169
 3809TIP3    H232843   3.839   4.570  16.651 -0.6458  1.0692 -1.3036
 3810TIP3   OH232844   5.559   0.188   2.062  0.2647  0.0402  0.4040
 3810TIP3    H132845   5.496   0.214   2.128  2.4603  1.1537  2.1994
 3810TIP3    H232846   5.528   0.229   1.981 -1.9514 -0.5376  0.9087
 3811TIP3   OH232847   0.177   6.593  14.608 -0.3006  0.4281 -0.6274
 3811TIP3    H132848   0.156   6.536  14.535 -0.3041  0.3908 -0.5976
 3811TIP3    H232849   0.238   6.658  14.573 -0.3296  0.4313 -0.6712
 3812TIP3   OH232850   4.269   1.967  16.506 -0.4377 -0.3661  0.1143
 3812TIP3    H132851   4.184   1.964  16.461 -0.9327  1.0094  0.8978
 3812TIP3    H232852   4.283   2.060  16.525  1.4811 -0.5002 -0.4022
 3813TIP3   OH232853   2.518   6.095  16.088  0.0061  0.0701  0.4726
 3813TIP3    H132854   2.612   6.115  16.078 -0.1912  1.1296  0.6306
 3813TIP3    H232855   2.475   6.148  16.021 -0.4775 -0.4810  0.3467
 3814TIP3   OH232856   0.748   0.396  12.490  0.1522  0.6591  0.3656
 3814TIP3    H132857   0.800   0.317  12.502 -1.8853 -0.7474  0.4768
 3814TIP3    H232858   0.783   0.458  12.554  1.8954 -0.0707  0.1688
 3815TIP3   OH232859   5.720   1.871   5.108  0.7341  0.2111  0.5119
 3815TIP3    H132860   5.669   1.915   5.176  1.2377 -1.0366  1.7581
 3815TIP3    H232861   5.676   1.786   5.097  1.3854 -0.0933  0.2066
 3816TIP3   OH232862   1.187   2.547  16.818  0.2748  0.7304 -0.2843
 3816TIP3    H132863   1.154   2.598  16.892  1.0248  3.6898 -1.8358
 3816TIP3    H232864   1.282   2.547  16.830  0.4511  1.7622 -1.5086
 3817TIP3   OH232865   6.272   2.755  11.165  0.4067 -0.2263  0.4821
 3817TIP3    H132866   6.196   2.811  11.156  1.1779  0.7228 -0.3940
 3817TIP3    H232867   6.238   2.672  11.199 -0.9066  0.3923  0.7000
 3818TIP3   OH232868   1.667   5.568   0.512  0.8181 -0.4656  0.4006
 3818TIP3    H132869   1.620   5.488   0.489 -0.2204  0.1193  0.4312
 3818TIP3    H232870   1.629   5.636   0.456  2.1119 -0.0934 -0.0629
 3819TIP3   OH232871   2.373   6.391  14.719  0.2086  0.0149 -0.4169
 3819TIP3    H132872   2.318   6.401  14.642  0.0416  0.2381 -0.2704
 3819TIP3    H232873   2.416   6.306  14.707 -0.1041 -0.1235 -0.5733
 3820TIP3   OH232874   2.666   2.653   6.158 -1.0867 -0.2660  0.3217
 3820TIP3    H132875   2.679   2.558   6.155 -0.1820 -0.1747  0.9179
 3820TIP3    H232876   2.572   2.665   6.147 -1.0961 -1.1789 -0.6559
 3821TIP3   OH232877   0.198   3.153   1.380 -0.5282 -0.0485 -0.2653
 3821TIP3    H132878   0.120   3.178   1.331  0.0235 -0.1312 -1.1948
 3821TIP3    H232879   0.172   3.163   1.472 -2.1763 -1.7036 -0.4895
 3822TIP3   OH232880   4.373   2.642   5.340 -0.5808 -0.0090 -0.0995
 3822TIP3    H132881   4.383   2.700   5.265 -0.1566  0.6199  0.4337
 3822TIP3    H232882   4.346   2.699   5.412 -0.9786 -0.6021  0.2309
 3823TIP3   OH232883   3.551   1.079  16.347  0.2738 -0.2644  0.4397
 3823TIP3    H132884   3.552   1.057  16.254  1.3556 -1.4846  0.7082
 3823TIP3    H232885   3.460   1.105  16.365 -0.1387 -0.8194 -0.7767
 3824TIP3   OH232886   3.522   3.760  11.581  0.5284 -0.0136  0.0472
 3824TIP3    H132887   3.475   3.730  11.659  1.4182  0.0536  0.6151
 3824TIP3    H232888   3.606   3.714  11.583  0.1688 -0.8373 -1.4542
 3825TIP3   OH232889   3.476   2.665   4.006 -0.6727  0.1109  0.3423
 3825TIP3    H132890   3.440   2.707   3.928 -1.1451 -0.5540  0.1974
 3825TIP3    H232891   3.412   2.598   4.029  0.7637 -1.5224 -0.2561
 3826TIP3   OH232892   6.553   0.446  10.338  0.0972  0.1205  0.4616
 3826TIP3    H132893   6.461   0.463  10.321 -0.2517 -2.0534 -0.1252
 3826TIP3    H232894   6.564   0.352  10.323  2.6873  0.5215 -0.8358
 3827TIP3   OH232895   2.223   2.930  15.259  0.2399  0.4850  0.0790
 3827TIP3    H132896   2.191   2.950  15.171 -1.2916 -0.6166  0.3273
 3827TIP3    H232897   2.304   2.881  15.245  1.2823  2.3332 -0.6269
 3828TIP3   OH232898   6.122   5.348  17.261 -0.0977  0.2104 -0.0254
 3828TIP3    H132899   6.048   5.297  17.293  0.6419 -1.2526 -0.5697
 3828TIP3    H232900   6.104   5.363  17.169 -0.9027  2.0541  0.3883
 3829TIP3   OH232901   2.075   1.732  13.560  0.5339 -0.0134  0.8487
 3829TIP3    H132902   2.137   1.806  13.561  1.4247 -0.5013 -2.9196
 3829TIP3    H232903   2.131   1.655  13.550 -0.5388 -0.6260 -0.8584
 3830TIP3   OH232904   2.081   2.603   0.688 -0.4159  0.5078  0.2259
 3830TIP3    H132905   2.086   2.682   0.742 -0.0204  0.1456  0.7290
 3830TIP3    H232906   2.046   2.536   0.746  2.0622 -0.4504  0.7201
 3831TIP3   OH232907   1.056   2.998   2.169  0.6024  0.5636  0.2044
 3831TIP3    H132908   1.027   3.031   2.254  1.6306  1.1523  0.3455
 3831TIP3    H232909   1.139   2.954   2.187 -0.6231 -2.0083 -0.0086
 3832TIP3   OH232910   4.900   3.899   6.620  0.4845  0.1336  0.0152
 3832TIP3    H132911   4.992   3.923   6.625  0.3856  0.2659  2.2635
 3832TIP3    H232912   4.891   3.828   6.684 -0.9541  0.0979 -0.2034
 3833TIP3   OH232913   1.078   0.781   4.347  0.3665  0.9727  0.5068
 3833TIP3    H132914   1.119   0.816   4.268 -0.4967 -1.1951 -1.0071
 3833TIP3    H232915   1.005   0.840   4.365 -0.0973  0.8992 -1.0219
 3834TIP3   OH232916   6.250   1.390   5.474 -0.2247  1.0760  0.1489
 3834TIP3    H132917   6.192   1.375   5.400 -0.6308  1.9484  0.2717
 3834TIP3    H232918   6.328   1.338   5.455 -1.7835 -1.7626  0.9430
 3835TIP3   OH232919   6.168   3.664   4.392 -0.5696 -0.4005 -0.2482
 3835TIP3    H132920   6.237   3.705   4.442  0.1493 -0.6006 -1.0591
 3835TIP3    H232921   6.092   3.721   4.403  0.3280  1.0141 -1.1397
 3836TIP3   OH232922   3.365   3.013   5.707  0.3030 -0.3951 -0.0840
 3836TIP3    H132923   3.303   3.072   5.663 -2.8186 -2.3489  1.3779
 3836TIP3    H232924   3.342   2.926   5.676  1.9057 -1.2733  1.0580
 3837TIP3   OH232925   6.723   2.015   2.235 -0.1739 -0.2135  0.0322
 3837TIP3    H132926   6.793   2.012   2.171  0.5140 -0.8188  0.7934
 3837TIP3    H232927   6.765   2.045   2.316 -0.9009 -0.0449  0.3598
 3838TIP3   OH232928   2.474   5.880   2.744  0.2992  0.7261  0.7763
 3838TIP3    H132929   2.566   5.884   2.717  0.4657  0.0943  1.2449
 3838TIP3    H232930   2.468   5.943   2.816  0.5409  0.2357  1.2348
 3839TIP3   OH232931   5.307   1.838   3.272  0.0914  0.2842  0.5621
 3839TIP3    H132932   5.229   1.799   3.313  0.2940  0.3586  1.0267
 3839TIP3    H232933   5.372   1.768   3.275  0.3163  0.5057  0.9892
 3840TIP3   OH232934   3.754   5.281  15.910 -0.2493 -0.0150  0.4957
 3840TIP3    H132935   3.801   5.235  15.979 -0.1345  0.1722  0.5428
 3840TIP3    H232936   3.684   5.329  15.955 -0.5026 -0.3108  0.4241
 3841TIP3   OH232937   2.310   2.269  16.262 -0.3867  0.3483  0.0953
 3841TIP3    H132938   2.254   2.257  16.185 -1.3036 -0.8346  0.9083
 3841TIP3    H232939   2.368   2.193  16.262  0.1832  0.7724  0.1318
 3842TIP3   OH232940   1.739   6.144  16.407 -0.3025 -0.0679 -0.3455
 3842TIP3    H132941   1.731   6.059  16.451 -2.2697  0.5333  0.5863
 3842TIP3    H232942   1.682   6.137  16.331  0.8166 -0.1033 -1.2112
 3843TIP3   OH232943   4.690   1.407  12.810 -0.1510 -0.2213  0.2601
 3843TIP3    H132944   4.712   1.315  12.825 -0.9151 -0.4022  0.3573
 3843TIP3    H232945   4.728   1.428  12.725 -0.6482 -0.8657 -0.1299
 3844TIP3   OH232946   4.996   6.081  13.105  0.7125 -0.2392  0.4238
 3844TIP3    H132947   4.993   6.175  13.088 -0.5444 -0.1932  0.8171
 3844TIP3    H232948   4.905   6.057  13.121  1.2090 -1.2314  1.9213
 3845TIP3   OH232949   1.804   1.618   1.235  0.1239 -0.1544 -0.2049
 3845TIP3    H132950   1.772   1.528   1.240 -0.0192 -0.0859  0.1390
 3845TIP3    H232951   1.817   1.634   1.142 -1.5734  0.0766 -0.4288
 3846TIP3   OH232952   5.194   1.220  11.902  0.4055  0.2468 -0.6939
 3846TIP3    H132953   5.272   1.276  11.908 -0.9427  2.1434  0.0723
 3846TIP3    H232954   5.121   1.281  11.902 -1.1130 -1.4764 -1.6411
 3847TIP3   OH232955   2.851   2.239   4.255 -0.5021  0.6274  0.0596
 3847TIP3    H132956   2.889   2.291   4.326 -0.3189  2.7036 -1.4761
 3847TIP3    H232957   2.923   2.228   4.193 -0.5215 -1.6011  0.3490
 3848TIP3   OH232958   6.256   6.422   4.330 -0.0755  0.3834 -0.0528
 3848TIP3    H132959   6.307   6.393   4.406 -0.8240 -1.0082 -0.0410
 3848TIP3    H232960   6.281   6.513   4.317  0.0983  0.6426  1.8414
 3849TIP3   OH232961   5.124   0.832   6.149  0.0623 -0.0947  0.2994
 3849TIP3    H132962   5.099   0.894   6.081 -0.1362 -1.0102 -0.5005
 3849TIP3    H232963   5.186   0.879   6.204 -0.1959  0.8450 -0.1998
 3850TIP3   OH232964   0.443   2.888   3.034  0.1394  0.2613 -0.2373
 3850TIP3    H132965   0.422   2.926   2.949 -0.1215 -0.4145 -0.4832
 3850TIP3    H232966   0.401   2.802   3.033 -0.2140  0.4064  0.7365
 3851TIP3   OH232967   4.864   1.322   0.754  0.4739 -0.2490 -0.3941
 3851TIP3    H132968   4.826   1.366   0.830  0.9169  0.4448 -0.5699
 3851TIP3    H232969   4.826   1.234   0.756 -0.1572  0.0274  0.1567
 3852TIP3   OH232970   2.006   2.703   0.441 -0.1347  0.3342  0.1614
 3852TIP3    H132971   2.056   2.680   0.520  0.5472 -1.3294 -0.7011
 3852TIP3    H232972   1.996   2.798   0.446 -1.8700  0.1248  3.2577
 3853TIP3   OH232973   4.128   1.517   2.307 -0.5091 -0.3529 -0.3055
 3853TIP3    H132974   4.135   1.523   2.211 -1.1114  0.3601 -0.3145
 3853TIP3    H232975   4.139   1.607   2.337 -0.4262 -0.5587  0.2930
 3854TIP3   OH232976   5.236   4.958  15.314  0.4386 -0.1355  0.5650
 3854TIP3    H132977   5.227   5.008  15.395 -0.3286 -2.5046  2.0331
 3854TIP3    H232978   5.195   4.874  15.333 -0.8807 -0.3758 -2.7047
 3855TIP3   OH232979   1.435   3.663   4.422 -0.1707  0.3299 -0.4607
 3855TIP3    H132980   1.486   3.590   4.457 -1.7678 -0.8420 -0.4630
 3855TIP3    H232981   1.359   3.668   4.480  0.5466  2.9509  0.4142
 3856TIP3   OH232982   4.299   4.301  14.123  0.3894  0.3791 -0.0704
 3856TIP3    H132983   4.251   4.292  14.205  1.7324 -0.6919  0.6280
 3856TIP3    H232984   4.325   4.393  14.120  1.0743  0.2340  1.1414
 3857TIP3   OH232985   1.375   1.168  14.715  0.3654  0.1963 -0.9837
 3857TIP3    H132986   1.448   1.161  14.653 -0.6584 -0.6435 -2.1594
 3857TIP3    H232987   1.314   1.099  14.688 -0.5976  0.4804  0.3402
 3858TIP3   OH232988   1.631   3.862  14.097 -0.2943 -0.7621  0.8256
 3858TIP3    H132989   1.706   3.878  14.040 -1.3968  1.5104 -0.1371
 3858TIP3    H232990   1.616   3.947  14.140 -2.3422 -1.1109  0.9022
 3859TIP3   OH232991   4.245   3.011   6.050 -0.3685  0.6665  0.3329
 3859TIP3    H132992   4.256   3.046   6.138  1.4101 -1.0159  0.8481
 3859TIP3    H232993   4.196   3.079   6.003 -1.0707  1.7410  2.4938
 3860TIP3   OH232994   2.766   5.048  13.196  0.5910  0.6333 -0.2941
 3860TIP3    H132995   2.686   4.995  13.194 -0.0651  1.5921 -0.1716
 3860TIP3    H232996   2.737   5.135  13.168  1.6887  0.8841 -0.6864
 3861TIP3   OH232997   1.653   4.894  16.711  0.3782  0.0508  0.5783
 3861TIP3    H132998   1.603   4.813  16.715  1.1458 -0.3865  1.6279
 3861TIP3    H232999   1.604   4.955  16.767 -0.0754  0.2599 -0.0307
 3862TIP3   OH233000   5.778   0.925   2.530 -0.5716 -0.4538 -0.2132
 3862TIP3    H133001   5.768   1.004   2.583  1.0273 -0.2389 -0.1772
 3862TIP3    H233002   5.689   0.905   2.500 -1.4488 -0.2589  2.0364
 3863TIP3   OH233003   6.545   1.438  15.798 -0.1094 -0.2885 -0.3989
 3863TIP3    H133004   6.490   1.513  15.821  0.9036  0.2595  0.3075
 3863TIP3    H233005   6.483   1.371  15.769 -1.0666  0.6844 -0.7015
 3864TIP3   OH233006   3.631   6.181  11.449 -0.1809  0.2367 -0.1130
 3864TIP3    H133007   3.607   6.154  11.538  0.2298  1.0836  0.2590
 3864TIP3    H233008   3.587   6.265  11.437  1.8551  1.4169  0.2699
 3865TIP3   OH233009   0.015   2.492   5.140 -0.0221 -0.4008 -0.1687
 3865TIP3    H133010  -0.072   2.530   5.150  1.0075  2.2169 -0.3081
 3865TIP3    H233011   0.030   2.493   5.045  0.9387  1.2575 -0.0450
 3866TIP3   OH233012   0.372   2.627  15.887  0.6153 -0.2018 -0.0127
 3866TIP3    H133013   0.428   2.628  15.809  0.7883  1.5618  0.0838
 3866TIP3    H233014   0.428   2.661  15.957  0.4838 -1.8394  0.9321
 3867TIP3   OH233015   0.612   2.577  11.540 -0.2087  0.1819 -0.2004
 3867TIP3    H133016   0.543   2.523  11.579  2.2806 -2.1261  1.3589
 3867TIP3    H233017   0.584   2.667  11.557 -1.2735 -0.6522  3.4298
 3868TIP3   OH233018   5.564   0.086  10.247 -0.2506 -0.4373  0.5546
 3868TIP3    H133019   5.474   0.101  10.274  0.1594 -1.1015  2.4816
 3868TIP3    H233020   5.563  -0.001  10.206 -0.3882 -0.7434  1.1916
 3869TIP3   OH233021   5.534   4.732   3.179  0.6085  0.7085 -0.1015
 3869TIP3    H133022   5.551   4.825   3.195  0.3117  0.6373  0.6416
 3869TIP3    H233023   5.619   4.690   3.190  0.2644  0.5155  2.4377
 3870TIP3   OH233024   3.959   0.691  11.498 -0.5114  0.4848 -0.1971
 3870TIP3    H133025   3.988   0.601  11.515 -1.8047  0.1093  0.1559
 3870TIP3    H233026   4.017   0.723  11.429  0.5265 -0.3091  0.2685
 3871TIP3   OH233027   4.781   5.460   4.055  0.4723  0.3874  0.1118
 3871TIP3    H133028   4.862   5.510   4.045  1.9025 -1.7108  0.7884
 3871TIP3    H233029   4.764   5.460   4.149  0.4663 -0.3373  0.1166
 3872TIP3   OH233030   3.871   1.920   0.065  0.2313  0.4725 -0.2840
 3872TIP3    H133031   3.882   1.910   0.159  2.1972 -0.2247 -0.5417
 3872TIP3    H233032   3.779   1.945   0.054 -0.4873 -1.0517  1.6831
 3873TIP3   OH233033   1.098   4.994  11.066 -0.1219  0.3031 -0.1525
 3873TIP3    H133034   1.180   4.971  11.109  0.2034 -0.2033 -1.0218
 3873TIP3    H233035   1.031   4.949  11.118  0.3543 -1.1811 -0.7637
 3874TIP3   OH233036   5.948   3.100   4.588  0.1365  0.0205 -0.0856
 3874TIP3    H133037   5.983   3.028   4.535  3.5197  1.3907  0.0502
 3874TIP3    H233038   5.912   3.161   4.524  0.7355 -0.0665 -0.5138
 3875TIP3   OH233039   6.326   1.011   4.543 -0.5555 -0.4092  0.2766
 3875TIP3    H133040   6.266   1.075   4.581 -0.6393 -1.2987  1.7082
 3875TIP3    H233041   6.328   0.939   4.606 -0.3450 -1.7601 -1.2236
 3876TIP3   OH233042   4.232   2.788   6.410 -0.5416  0.2742  0.1453
 3876TIP3    H133043   4.165   2.720   6.416 -1.1170  0.8102 -0.1014
 3876TIP3    H233044   4.188   2.868   6.438  0.3658  0.4000  1.2814
 3877TIP3   OH233045   5.001   3.420  11.636 -0.0860 -0.2032  0.2725
 3877TIP3    H133046   4.973   3.336  11.598  0.4798 -0.3166  0.0947
 3877TIP3    H233047   4.993   3.406  11.731  0.1021 -0.4913  0.2477
 3878TIP3   OH233048   4.304   0.017   4.673 -0.1681  0.1165 -0.0630
 3878TIP3    H133049   4.323  -0.065   4.718 -0.5652  0.3825  0.6075
 3878TIP3    H233050   4.357   0.014   4.594 -1.3475 -1.5003 -0.8680
 3879TIP3   OH233051   4.374   0.659  14.477 -0.2691  0.2855 -0.3317
 3879TIP3    H133052   4.329   0.665  14.561 -1.9096 -1.0687 -1.0475
 3879TIP3    H233053   4.460   0.699  14.492 -0.8704  0.9193  1.7074
 3880TIP3   OH233054   1.461   6.716  12.832 -0.4919  0.1913  0.5787
 3880TIP3    H133055   1.421   6.657  12.896 -1.2531 -0.8063 -0.7864
 3880TIP3    H233056   1.527   6.663  12.788  1.3075  1.3672  1.6894
 3881TIP3   OH233057   0.043   6.626   5.658  0.4589  0.0255  0.4374
 3881TIP3    H133058   0.019   6.617   5.566 -1.2638  0.0276  0.8415
 3881TIP3    H233059   0.048   6.721   5.672  0.3059  0.0333  0.4396
 3882TIP3   OH233060   0.364   6.181  17.173 -0.7908 -0.1074 -0.1706
 3882TIP3    H133061   0.403   6.094  17.180 -1.1531 -0.2701 -0.1386
 3882TIP3    H233062   0.434   6.237  17.138 -0.9300 -0.6834 -1.4310
 3883TIP3   OH233063   3.030   3.652   0.656  0.5491  0.3408  0.0826
 3883TIP3    H133064   2.978   3.594   0.600  0.7156 -0.3054  0.5846
 3883TIP3    H233065   3.074   3.711   0.595  1.1896 -0.7295 -0.5160
 3884TIP3   OH233066   0.436   4.593  14.295  0.5388 -0.4754  0.1934
 3884TIP3    H133067   0.484   4.675  14.283  2.0815 -1.1892  1.2331
 3884TIP3    H233068   0.355   4.605  14.244  0.5791  1.7957  0.5645
 3885TIP3   OH233069   1.416   0.353  13.196  0.0511 -0.1884  0.1295
 3885TIP3    H133070   1.322   0.366  13.184 -0.2285  0.5403  2.5254
 3885TIP3    H233071   1.442   0.296  13.124 -2.0833  0.1421 -0.9754
 3886TIP3   OH233072   3.933   1.427  17.115 -0.6036 -0.5026  0.0137
 3886TIP3    H133073   3.923   1.352  17.174  0.4190 -1.0623 -0.4999
 3886TIP3    H233074   3.909   1.503  17.169  1.6633 -0.8190  1.6437
 3887TIP3   OH233075   1.378   4.141   0.762 -0.0971 -0.0986  0.0945
 3887TIP3    H133076   1.462   4.098   0.750  0.0832 -1.1127  3.8249
 3887TIP3    H233077   1.325   4.078   0.811 -2.7086  0.9257 -1.1826
 3888TIP3   OH233078   3.173   3.324  15.464  0.2351  0.3509  0.1487
 3888TIP3    H133079   3.160   3.240  15.421  1.0724  0.9767 -1.3810
 3888TIP3    H233080   3.228   3.303  15.540 -0.6405 -0.6554  0.5312
 3889TIP3   OH233081   0.896   2.552  16.919  0.1961  0.3231 -0.1905
 3889TIP3    H133082   0.948   2.473  16.907 -0.3967 -0.1400  0.2165
 3889TIP3    H233083   0.872   2.551  17.011  3.4625  3.0604  0.8833
 3890TIP3   OH233084   1.015   6.080   1.270  0.0264  0.0086 -0.3271
 3890TIP3    H133085   0.968   6.033   1.201  1.6634  0.3173 -1.7296
 3890TIP3    H233086   0.949   6.097   1.337 -1.0965 -2.3258 -0.7556
 3891TIP3   OH233087   5.205   2.565  13.415  0.9901 -0.1405 -0.3157
 3891TIP3    H133088   5.161   2.647  13.391 -0.3327 -0.8750 -0.5205
 3891TIP3    H233089   5.294   2.574  13.380  0.6329  0.8940 -1.0168
 3892TIP3   OH233090   5.797   2.492   3.309 -0.8402  0.5711  0.4084
 3892TIP3    H133091   5.745   2.426   3.354 -0.6515  1.0894  1.4097
 3892TIP3    H233092   5.732   2.552   3.271 -1.1197 -1.3663 -2.4931
 3893TIP3   OH233093   2.180   5.945   4.313  0.0247  0.0833 -0.0544
 3893TIP3    H133094   2.104   5.999   4.335 -0.9802 -0.3211 -2.2556
 3893TIP3    H233095   2.225   5.931   4.396 -1.4406  1.6394  1.0618
 3894TIP3   OH233096   0.323   5.512  14.619  0.4271  0.2600 -0.3578
 3894TIP3    H133097   0.229   5.507  14.600  0.5019  0.7722 -0.9067
 3894TIP3    H233098   0.360   5.433  14.579  0.2903  0.2770 -0.5197
 3895TIP3   OH233099   4.699   6.017  11.297  0.1160 -0.1700 -0.6600
 3895TIP3    H133100   4.758   6.092  11.290 -0.6955  0.3772 -2.1584
 3895TIP3    H233101   4.617   6.054  11.329  0.4128 -0.8487  0.9629
 3896TIP3   OH233102   1.700   4.244  16.772 -0.1995 -0.1728 -0.7353
 3896TIP3    H133103   1.731   4.220  16.685  0.1266  1.6586 -1.1594
 3896TIP3    H233104   1.685   4.160  16.816  5.0722 -1.3942 -0.5424
 3897TIP3   OH233105   0.801   5.282   0.087 -0.3748  0.7652 -0.4821
 3897TIP3    H133106   0.828   5.363   0.044  0.2604  2.3647  2.6158
 3897TIP3    H233107   0.882   5.230   0.092 -0.0071  1.3946  0.3719
 3898TIP3   OH233108   4.055   4.609  14.248  0.0268  0.0825 -0.2261
 3898TIP3    H133109   4.022   4.699  14.246  0.6519  0.3395  0.5631
 3898TIP3    H233110   3.999   4.564  14.311 -1.1221 -0.4426 -1.5696
 3899TIP3   OH233111   1.803   0.295  14.712  0.4931  0.2084  0.0927
 3899TIP3    H133112   1.793   0.336  14.626 -0.5221 -2.5947 -1.2344
 3899TIP3    H233113   1.745   0.345  14.770  0.6185  1.6663 -0.9863
 3900TIP3   OH233114   2.481   2.207  14.220  0.1668 -0.3686 -0.3937
 3900TIP3    H133115   2.548   2.159  14.269 -1.5043 -0.3926  2.0757
 3900TIP3    H233116   2.516   2.296  14.213  0.6677 -0.4861  0.4686
 3901TIP3   OH233117   1.066   4.439   1.136  0.8114 -0.2911  0.7052
 3901TIP3    H133118   1.079   4.416   1.044  1.2074 -1.5583  1.0460
 3901TIP3    H233119   1.155   4.445   1.172  0.8471  3.3390  0.3646
 3902TIP3   OH233120   6.603   1.868   5.957  0.0594 -0.0040  0.6025
 3902TIP3    H133121   6.595   1.915   5.874 -2.1188 -1.1951  0.0561
 3902TIP3    H233122   6.614   1.937   6.022  1.6875  0.9690 -0.6121
 3903TIP3   OH233123   6.595   0.343  14.648  0.6374 -0.5887 -0.4939
 3903TIP3    H133124   6.529   0.337  14.579 -0.3998  1.6044  0.2039
 3903TIP3    H233125   6.636   0.257  14.650 -2.9765 -2.5001 -0.2179
 3904TIP3   OH233126   0.459   0.292  13.142 -0.1416  0.1383  0.6536
 3904TIP3    H133127   0.492   0.276  13.053  0.0310  1.8223  0.3899
 3904TIP3    H233128   0.513   0.235  13.198  0.4300 -0.1915 -0.2046
 3905TIP3   OH233129   1.124   6.646  13.847  0.3418  0.3567 -0.6063
 3905TIP3    H133130   1.125   6.701  13.768  0.3120  0.8763 -0.2478
 3905TIP3    H233131   1.099   6.560  13.815  0.5590  0.5068 -1.2043
 3906TIP3   OH233132   1.673   1.346  12.917  0.0443 -0.1896 -0.3267
 3906TIP3    H133133   1.660   1.439  12.937  0.9633  0.3738 -2.1808
 3906TIP3    H233134   1.597   1.322  12.865 -0.0099 -0.4004 -0.1517
 3907TIP3   OH233135   0.544   5.296   2.665  0.8317 -0.3927  0.3039
 3907TIP3    H133136   0.560   5.384   2.698  1.9296 -0.1474 -0.7907
 3907TIP3    H233137   0.621   5.276   2.611  0.1710 -1.6460 -0.2293
 3908TIP3   OH233138   5.984   1.360   5.354  0.4639  0.1005  0.3726
 3908TIP3    H133139   5.976   1.348   5.449 -1.2213 -2.4823  0.0155
 3908TIP3    H233140   5.947   1.448   5.339 -1.1220 -0.2126  1.9463
 3909TIP3   OH233141   0.657   4.092  15.444  0.5272  0.0355 -0.5399
 3909TIP3    H133142   0.641   3.998  15.442  1.1256 -0.1280  0.9692
 3909TIP3    H233143   0.608   4.123  15.520  0.5729  0.8950 -0.8495
 3910TIP3   OH233144   4.659   4.367  16.001  0.4866  1.0108 -0.0431
 3910TIP3    H133145   4.608   4.340  16.077 -1.6936 -0.9213 -2.0498
 3910TIP3    H233146   4.609   4.438  15.962  0.4532  0.5405 -0.8616
 3911TIP3   OH233147   5.141   3.121  17.135 -0.4084  0.2405 -0.2984
 3911TIP3    H133148   5.197   3.044  17.133 -1.4215 -0.5273 -0.3061
 3911TIP3    H233149   5.073   3.103  17.069 -0.1549  1.5449 -0.9518
 3912TIP3   OH233150   0.746   3.097  16.212  0.1555 -0.1706  0.3700
 3912TIP3    H133151   0.820   3.048  16.176 -0.0720 -0.8136  0.7575
 3912TIP3    H233152   0.688   3.113  16.137  0.0644 -0.8073  0.3017
 3913TIP3   OH233153   4.754   5.006   1.314  0.1606 -0.0517  0.4470
 3913TIP3    H133154   4.836   5.038   1.351 -0.8065 -0.5810  3.3283
 3913TIP3    H233155   4.692   5.079   1.328  0.2921  0.8532 -2.8347
 3914TIP3   OH233156   0.418   6.627  13.216 -0.3391  0.0331 -0.4800
 3914TIP3    H133157   0.425   6.554  13.277  0.1828  0.4618 -0.0199
 3914TIP3    H233158   0.328   6.622  13.183 -0.4700 -0.4958 -0.0573
 3915TIP3   OH233159   2.793   5.045   4.443 -0.6664  0.3079  0.1707
 3915TIP3    H133160   2.785   4.992   4.523 -0.2042 -1.3290 -0.8220
 3915TIP3    H233161   2.874   5.015   4.402 -0.7440  1.3314 -0.7851
 3916TIP3   OH233162   3.285   5.144  11.162  0.0325 -0.1710  0.0339
 3916TIP3    H133163   3.281   5.052  11.136 -2.9613 -0.0814 -0.1323
 3916TIP3    H233164   3.322   5.188  11.086  1.7569 -1.2138  0.2138
 3917TIP3   OH233165   3.867   0.539   3.084  0.0179 -0.2903 -0.7329
 3917TIP3    H133166   3.893   0.462   3.135 -0.3188 -0.3290 -0.6199
 3917TIP3    H233167   3.906   0.525   2.998 -0.2516 -0.7111 -0.7897
 3918TIP3   OH233168   5.782   6.637   1.294 -0.1244 -0.8961  0.0660
 3918TIP3    H133169   5.849   6.589   1.245  0.1022 -0.8925  0.3672
 3918TIP3    H233170   5.815   6.727   1.298  0.4841 -1.1506  1.3013
 3919TIP3   OH233171   2.361   0.471  17.120 -0.1235  0.1678  0.1227
 3919TIP3    H133172   2.316   0.547  17.156 -1.6002 -1.1529  1.1957
 3919TIP3    H233173   2.337   0.469  17.027 -0.7926  0.5044  0.2871
 3920TIP3   OH233174   2.295   0.529  12.868  0.4701  0.4575 -0.0031
 3920TIP3    H133175   2.322   0.548  12.779  2.1723 -0.8269  0.1981
 3920TIP3    H233176   2.309   0.434  12.878 -2.1837  0.0655  0.8200
 3921TIP3   OH233177   4.862   3.427   1.206 -0.0444 -0.4808 -0.2519
 3921TIP3    H133178   4.838   3.479   1.284  0.6162 -0.3204 -0.1498
 3921TIP3    H233179   4.809   3.464   1.136  0.8714  0.7689 -0.3168
 3922TIP3   OH233180   2.650   5.577   4.780  0.1198  0.8660 -0.4672
 3922TIP3    H133181   2.712   5.634   4.734 -0.7141  1.3302 -1.0551
 3922TIP3    H233182   2.573   5.633   4.795  0.7616  1.0912  2.5582
 3923TIP3   OH233183   2.005   0.846  14.793  0.1831  0.3219  0.5592
 3923TIP3    H133184   2.031   0.854  14.701 -0.4641  0.9947  0.4300
 3923TIP3    H233185   2.039   0.924  14.836  0.0021  0.2872  0.7731
 3924TIP3   OH233186   0.145   2.438  14.796  0.0116  0.2315  0.0649
 3924TIP3    H133187   0.137   2.360  14.851  1.3653 -0.6132 -0.8760
 3924TIP3    H233188   0.090   2.420  14.720  0.1049  0.3047 -0.0214
 3925TIP3   OH233189   2.605   6.757   0.516  0.1834 -0.3201  0.1960
 3925TIP3    H133190   2.679   6.696   0.509  1.0425  0.7466 -0.6033
 3925TIP3    H233191   2.548   6.733   0.443  0.5552 -0.1502 -0.1612
 3926TIP3   OH233192   4.111   5.085  16.059 -0.0018 -0.0478 -0.2115
 3926TIP3    H133193   4.055   5.068  16.134 -0.5618  0.0858 -0.5992
 3926TIP3    H233194   4.060   5.143  16.003  1.2253  1.5931  0.2938
 3927TIP3   OH233195   0.865   3.305  11.242 -0.3703 -0.2492  0.1893
 3927TIP3    H133196   0.887   3.213  11.228 -0.3166  0.0473 -2.1530
 3927TIP3    H233197   0.909   3.351  11.170  0.9876  1.8588  2.2095
 3928TIP3   OH233198   3.824   1.261  11.022  0.3007 -0.0599  0.1088
 3928TIP3    H133199   3.895   1.300  10.970  0.2717 -1.1087 -0.7383
 3928TIP3    H233200   3.752   1.250  10.961  0.0204 -0.6628  0.5421
 3929TIP3   OH233201   5.656   3.616  15.320  0.6426 -0.2579  0.1133
 3929TIP3    H133202   5.661   3.642  15.412 -1.3798  1.8602 -0.2718
 3929TIP3    H233203   5.722   3.669  15.276 -0.0054  0.5352  0.0593
 3930TIP3   OH233204   0.533   6.174  16.010 -0.0752 -0.7442  0.0922
 3930TIP3    H133205   0.469   6.122  15.962 -2.5763  1.0696  1.2565
 3930TIP3    H233206   0.579   6.224  15.942 -0.8563 -1.0568 -0.6799
 3931TIP3   OH233207   5.431   4.681   6.716  0.7402  0.8893  0.3264
 3931TIP3    H133208   5.453   4.612   6.653 -0.2132  0.4674  0.4304
 3931TIP3    H233209   5.395   4.634   6.791 -0.9433  1.5163 -0.0343
 3932TIP3   OH233210   0.024   5.203  14.970 -0.0636  0.1650  0.3010
 3932TIP3    H133211   0.075   5.282  14.949  1.2297 -0.9374 -0.9312
 3932TIP3    H233212  -0.043   5.200  14.901 -1.0260  0.9219  1.1760
 3933TIP3   OH233213   5.579   5.764  11.343  0.8159  0.0801  0.0695
 3933TIP3    H133214   5.532   5.823  11.284  0.0698 -2.1008 -1.6664
 3933TIP3    H233215   5.634   5.711  11.285  1.1771 -1.1584  1.4810
 3934TIP3   OH233216   2.601   6.233  14.419 -0.5679 -0.5477 -0.1816
 3934TIP3    H133217   2.628   6.320  14.446 -1.5234 -0.5820  0.9809
 3934TIP3    H233218   2.680   6.180  14.426  0.1489  0.3175 -1.4316
 3935TIP3   OH233219   0.333   0.644   0.969  0.0873  0.4280  0.2753
 3935TIP3    H133220   0.275   0.669   1.041  0.7839  2.0736  0.3142
 3935TIP3    H233221   0.273   0.611   0.901 -0.4948 -2.3756  1.9803
 3936TIP3   OH233222   1.402   5.854  12.783  0.1597 -0.4869  0.2186
 3936TIP3    H133223   1.324   5.822  12.828 -1.2911  0.5779 -1.4252
 3936TIP3    H233224   1.397   5.816  12.695  0.1736  1.4536 -0.6844
 3937TIP3   OH233225   6.530   2.293   0.161 -0.5530  0.4664 -0.2704
 3937TIP3    H133226   6.445   2.271   0.199 -0.5429  0.5380 -0.2051
 3937TIP3    H233227   6.593   2.244   0.214 -0.3925  1.9002  0.9366
 3938TIP3   OH233228   4.450   0.045   3.420 -0.1633 -0.3023  0.7981
 3938TIP3    H133229   4.496   0.126   3.398 -1.1769 -0.0166 -0.3924
 3938TIP3    H233230   4.444  -0.002   3.337  1.8479 -2.4153  1.7434
 3939TIP3   OH233231   5.973   5.317  11.734  0.4003 -0.2945 -0.1494
 3939TIP3    H133232   6.049   5.375  11.739 -0.0047  0.1520  1.3232
 3939TIP3    H233233   5.940   5.313  11.824 -1.5926 -0.1030 -0.8193
 3940TIP3   OH233234   2.829   0.563  12.090 -0.2634  0.0453  0.2874
 3940TIP3    H133235   2.862   0.477  12.115 -1.8734 -0.9949 -0.9300
 3940TIP3    H233236   2.734   0.557  12.103 -1.0010  0.1182 -3.7404
 3941TIP3   OH233237   2.731   4.061   5.774 -0.2310  0.1571  0.6223
 3941TIP3    H133238   2.798   4.089   5.711  0.5402  0.0654  1.3816
 3941TIP3    H233239   2.734   4.128   5.843 -0.7118 -0.0114  0.8082
 3942TIP3   OH233240   6.516   5.763   4.312 -0.0636  0.4847 -0.1388
 3942TIP3    H133241   6.471   5.714   4.381  0.6237  0.7921  0.5464
 3942TIP3    H233242   6.573   5.697   4.271 -1.0604  0.1095 -0.9702
 3943TIP3   OH233243   2.298   4.918   0.530  0.2113  0.3084 -0.4794
 3943TIP3    H133244   2.366   4.980   0.557  2.1115 -1.1785 -1.5909
 3943TIP3    H233245   2.273   4.948   0.443 -0.2091  0.5469 -0.2813
 3944TIP3   OH233246   1.132   4.960   2.331 -0.1220  0.6577 -0.4758
 3944TIP3    H133247   1.228   4.955   2.327 -0.1144 -0.7207  0.5545
 3944TIP3    H233248   1.106   4.875   2.366 -1.6371  1.5291  0.6054
 3945TIP3   OH233249   3.840   6.607   3.973 -0.4589 -0.1742  0.0871
 3945TIP3    H133250   3.764   6.624   3.918  0.8360  0.9173 -1.4496
 3945TIP3    H233251   3.812   6.634   4.061 -1.8550  0.1511 -0.4384
 3946TIP3   OH233252   5.105   5.113   1.656 -0.3708  0.5328 -0.0576
 3946TIP3    H133253   5.129   5.065   1.735 -0.1494 -1.0606 -1.0522
 3946TIP3    H233254   5.085   5.202   1.687 -1.0121 -0.2401  1.8729
 3947TIP3   OH233255   4.624   6.647   1.076  0.0334 -0.0224 -0.3689
 3947TIP3    H133256   4.613   6.662   1.170 -0.7929 -2.0983 -0.0733
 3947TIP3    H233257   4.630   6.735   1.038 -1.8033  0.9524  1.3682
 3948TIP3   OH233258   3.940   2.346  11.758 -0.0800  0.0970  0.0287
 3948TIP3    H133259   3.994   2.362  11.836 -0.1869 -2.5496  0.7316
 3948TIP3    H233260   4.003   2.339  11.687  0.1386  0.9968  0.1127
 3949TIP3   OH233261   4.524   6.100  17.184  0.2470  0.0745  0.7542
 3949TIP3    H133262   4.517   6.044  17.262  1.1187 -1.6928 -0.3747
 3949TIP3    H233263   4.618   6.120  17.179  0.0738  0.8591  0.5968
 3950TIP3   OH233264   3.370   0.266   1.961 -0.1120  0.1863  0.3589
 3950TIP3    H133265   3.405   0.237   1.877 -0.4747 -1.4672  0.7456
 3950TIP3    H233266   3.312   0.195   1.989 -1.3263  1.4521  1.2121
 3951TIP3   OH233267   3.905   5.102  16.586 -0.3692 -0.7099 -0.4136
 3951TIP3    H133268   3.856   5.096  16.668  0.5312 -0.9185  0.1260
 3951TIP3    H233269   3.893   5.017  16.545  1.1445 -1.4953  0.6756
 3952TIP3   OH233270   1.020   2.164  11.930 -0.2475  0.0808 -0.2151
 3952TIP3    H133271   1.045   2.137  12.018  0.5558 -1.4272 -0.8717
 3952TIP3    H233272   0.940   2.115  11.912  0.0816 -0.2916 -0.6582
 3953TIP3   OH233273   2.594   2.176   1.730  0.2965  0.2206  0.0258
 3953TIP3    H133274   2.683   2.168   1.698  0.4501  1.8931 -0.0829
 3953TIP3    H233275   2.544   2.108   1.684  1.2928 -0.0138 -0.7230
 3954TIP3   OH233276   5.938   5.835  14.011 -0.6836  0.2495 -0.3752
 3954TIP3    H133277   5.925   5.870  13.922 -1.9692 -1.4276 -0.9113
 3954TIP3    H233278   5.977   5.749  13.997 -1.1450 -0.1400  0.6761
 3955TIP3   OH233279   1.070   5.352   0.870 -0.1144 -0.3898  0.5650
 3955TIP3    H133280   1.131   5.281   0.848 -0.4272 -1.4351  2.7691
 3955TIP3    H233281   0.990   5.330   0.821  0.1419 -0.9657  0.3861
 3956TIP3   OH233282   3.846   1.720   3.482  0.3255 -0.3805  0.1095
 3956TIP3    H133283   3.803   1.735   3.398 -0.1110 -1.1113  0.1968
 3956TIP3    H233284   3.932   1.685   3.459  0.5921  0.3635 -0.0480
 3957TIP3   OH233285   5.916   1.617   0.071  0.1471 -0.9909 -0.9394
 3957TIP3    H133286   5.967   1.698   0.060 -0.0881 -0.9980 -2.3428
 3957TIP3    H233287   5.901   1.587  -0.019 -0.6215 -2.0630 -0.4653
 3958TIP3   OH233288   0.867   5.007  12.239 -0.2117  0.0260 -0.6838
 3958TIP3    H133289   0.790   5.060  12.261 -0.2340 -0.1941 -0.2119
 3958TIP3    H233290   0.861   4.931  12.298  1.3987  0.9421  0.7602
 3959TIP3   OH233291   3.939   2.512   2.947  0.1460  0.6935  0.4440
 3959TIP3    H133292   3.957   2.420   2.962  1.0032  0.8123  0.1823
 3959TIP3    H233293   3.995   2.558   3.009 -0.6230  1.0346  0.9044
 3960TIP3   OH233294   1.723   2.024  13.774 -0.1667  0.8655  0.1038
 3960TIP3    H133295   1.637   1.985  13.760  0.5930 -0.4036 -1.3341
 3960TIP3    H233296   1.757   2.042  13.686  2.3665 -1.7635  0.3874
 3961TIP3   OH233297   2.013   5.490  11.930  0.1891 -0.1313  0.7477
 3961TIP3    H133298   2.013   5.452  11.843  0.5985  1.7840 -0.1375
 3961TIP3    H233299   2.045   5.419  11.987 -1.8673 -2.0141 -0.3133
 3962TIP3   OH233300   4.795   1.832  16.141  0.3358  0.2280  0.0414
 3962TIP3    H133301   4.775   1.816  16.049  0.0437  0.6157  0.0374
 3962TIP3    H233302   4.774   1.750  16.185 -0.0310  0.2172 -0.1551
 3963TIP3   OH233303   3.147   4.782  15.792  0.6384 -1.2226 -0.8259
 3963TIP3    H133304   3.091   4.860  15.799  0.9716 -1.0222 -0.3448
 3963TIP3    H233305   3.233   4.817  15.766  1.8853 -0.9255  3.0651
 3964TIP3   OH233306   2.745   6.521   3.195  0.4565  0.3514 -0.1420
 3964TIP3    H133307   2.707   6.600   3.233  0.7515  0.1332  0.6370
 3964TIP3    H233308   2.729   6.529   3.101 -1.9181  0.0308  0.1924
 3965TIP3   OH233309   1.390   6.229   4.545  0.5206  0.2158  0.0172
 3965TIP3    H133310   1.361   6.300   4.488  0.3154 -1.5046 -2.1869
 3965TIP3    H233311   1.314   6.173   4.554  1.5863 -1.5888 -1.4057
 3966TIP3   OH233312   3.061   1.483   5.483 -0.3871  0.2296 -0.2192
 3966TIP3    H133313   3.029   1.573   5.483  0.6595  0.6176 -0.5584
 3966TIP3    H233314   3.086   1.467   5.392 -0.4651 -0.3709 -0.1391
 3967TIP3   OH233315   3.070   5.049  14.841  0.2257 -0.0699 -0.0685
 3967TIP3    H133316   3.037   4.978  14.897  0.0583 -0.2404 -0.3780
 3967TIP3    H233317   3.066   5.012  14.752  1.4519 -0.1733 -0.0880
 3968TIP3   OH233318   6.482   4.309  11.156  0.0749 -0.0572 -0.4985
 3968TIP3    H133319   6.473   4.372  11.084  2.0563  0.7984 -0.0698
 3968TIP3    H233320   6.560   4.258  11.134  0.4314 -0.1069  0.7708
 3969TIP3   OH233321   0.864   0.708   5.170  0.3512  0.0090 -0.4594
 3969TIP3    H133322   0.835   0.683   5.258  0.9477  0.0691 -0.2389
 3969TIP3    H233323   0.959   0.717   5.178  0.4311 -0.1589 -1.1525
 3970TIP3   OH233324   2.700   4.955   1.395  0.1186 -0.1488 -0.4415
 3970TIP3    H133325   2.678   5.031   1.450 -0.8956 -0.8521  0.1557
 3970TIP3    H233326   2.784   4.925   1.429 -0.3916 -0.4407  0.5990
 3971TIP3   OH233327   3.377   3.055  14.442  0.5759  0.0857  0.6067
 3971TIP3    H133328   3.428   2.976  14.458  0.6691  0.1302  0.5326
 3971TIP3    H233329   3.443   3.124  14.434  0.6259 -0.1551 -1.3498
 3972TIP3   OH233330   6.553   1.827  13.334 -0.4522 -0.5246  0.2513
 3972TIP3    H133331   6.531   1.887  13.263  1.4706  1.2923  1.0761
 3972TIP3    H233332   6.487   1.844  13.402  0.8869  1.8480  1.0701
 3973TIP3   OH233333   5.730   5.429   1.322  0.1064 -0.6142  0.0302
 3973TIP3    H133334   5.750   5.365   1.253 -0.9095 -1.1037  0.1643
 3973TIP3    H233335   5.810   5.480   1.331  0.5549 -1.1125 -0.9011
 3974TIP3   OH233336   0.951   6.429   4.257 -0.1989 -0.0849  0.1278
 3974TIP3    H133337   0.966   6.432   4.352  0.7115  1.9795 -0.0103
 3974TIP3    H233338   1.033   6.461   4.220 -0.1681 -1.8664 -1.4387
 3975TIP3   OH233339   6.313   4.046  14.661 -0.8014  0.1834  0.5453
 3975TIP3    H133340   6.291   4.007  14.746 -1.3846  2.1485  1.3459
 3975TIP3    H233341   6.399   4.084  14.674  1.0955 -3.0777 -1.0794
 3976TIP3   OH233342   5.028   3.638   6.286 -0.6256 -0.1048  0.6244
 3976TIP3    H133343   4.975   3.674   6.215 -0.3991  0.4947  0.7550
 3976TIP3    H233344   5.032   3.708   6.351 -0.7514 -0.6142  1.1902
 3977TIP3   OH233345   4.565   4.109   4.486 -0.1020 -0.0858  0.0191
 3977TIP3    H133346   4.581   4.200   4.459 -1.8641 -0.4484 -2.6505
 3977TIP3    H233347   4.572   4.059   4.405 -2.5314 -1.8218  0.7657
 3978TIP3   OH233348   0.788   0.501   0.662  0.7001 -0.1311  0.3989
 3978TIP3    H133349   0.806   0.431   0.599  0.9955  0.8808 -0.6910
 3978TIP3    H233350   0.705   0.538   0.632 -0.2422 -0.9712  1.8800
 3979TIP3   OH233351   3.373   6.106  13.129  0.2101  0.6083  0.7154
 3979TIP3    H133352   3.367   6.100  13.033  0.1509 -0.1577  0.7583
 3979TIP3    H233353   3.414   6.024  13.155  0.7185  1.0495  1.3127
 3980TIP3   OH233354   4.033   6.049   1.052  0.5982 -0.5195 -0.6687
 3980TIP3    H133355   3.972   6.120   1.030  0.0223 -1.0637 -0.8668
 3980TIP3    H233356   4.120   6.087   1.037  0.3265  0.3473 -0.1435
 3981TIP3   OH233357   0.737   1.661   4.408  0.2126  0.1110 -0.2874
 3981TIP3    H133358   0.790   1.695   4.337 -0.3353  1.9292  0.1152
 3981TIP3    H233359   0.678   1.733   4.431  0.5389 -0.3042  2.1601
 3982TIP3   OH233360   6.160   6.776   0.023  0.5745 -0.5071  0.0481
 3982TIP3    H133361   6.121   6.766   0.109  1.2772 -0.7723  0.3448
 3982TIP3    H233362   6.253   6.759   0.037  0.8878  0.6612 -0.5372
 3983TIP3   OH233363   3.988   6.467  13.235  0.0632 -0.2638  0.4378
 3983TIP3    H133364   3.999   6.387  13.183  0.7099  0.1730 -0.1311
 3983TIP3    H233365   3.902   6.459  13.274 -0.5783 -0.4951 -0.9459
 3984TIP3   OH233366   2.861   1.855  17.122 -0.8016  0.2400 -0.2706
 3984TIP3    H133367   2.881   1.928  17.179  0.1427 -0.9925  1.0452
 3984TIP3    H233368   2.943   1.805  17.117 -1.1585 -0.2360 -1.8791
 3985TIP3   OH233369   6.261   6.036  14.272  0.2834 -0.4103  0.6818
 3985TIP3    H133370   6.176   6.077  14.256 -1.1275 -2.1457  3.1116
 3985TIP3    H233371   6.268   5.967  14.207  0.6304  0.7527 -0.5587
 3986TIP3   OH233372   2.513   3.032  12.070  0.1692  0.2409  0.5813
 3986TIP3    H133373   2.527   3.065  11.981  1.5788 -1.4406  0.1124
 3986TIP3    H233374   2.477   2.944  12.057 -0.8164  0.4500  1.7186
 3987TIP3   OH233375   1.903   2.397   1.709  0.4307 -0.4626 -0.3113
 3987TIP3    H133376   1.950   2.335   1.654  0.4260 -0.1497 -0.6748
 3987TIP3    H233377   1.840   2.438   1.650 -3.5122 -3.9450  0.9778
 3988TIP3   OH233378   0.079   5.791   2.877  0.2102  0.8862  0.3169
 3988TIP3    H133379   0.147   5.729   2.852  0.3115  0.4073  1.6713
 3988TIP3    H233380   0.036   5.749   2.952 -2.0668  0.8328 -0.9372
 3989TIP3   OH233381   1.086   1.197  16.541 -0.1314  0.1501  0.1051
 3989TIP3    H133382   1.018   1.165  16.600  2.1000 -1.2832  2.0788
 3989TIP3    H233383   1.132   1.118  16.512  0.9035  1.0886 -0.9237
 3990TIP3   OH233384   0.529   2.817   1.460  0.6027 -0.0072  0.4858
 3990TIP3    H133385   0.470   2.838   1.387 -0.8718  1.8970  2.1078
 3990TIP3    H233386   0.591   2.755   1.423 -1.0141 -0.3258 -1.9709
 3991TIP3   OH233387   0.869   4.550   1.273 -0.3414 -0.5966  1.0119
 3991TIP3    H133388   0.827   4.609   1.210  0.7964 -0.9108 -0.0781
 3991TIP3    H233389   0.931   4.499   1.220  0.0159 -1.4810  2.2491
 3992TIP3   OH233390   3.044   1.219   4.464 -0.2852 -0.2780  0.5639
 3992TIP3    H133391   3.080   1.307   4.471  0.0605 -0.0238 -2.8201
 3992TIP3    H233392   2.953   1.228   4.492 -0.1377  1.0489  0.6645
 3993TIP3   OH233393   1.322   0.986  13.160 -0.0675  0.1172 -1.2261
 3993TIP3    H133394   1.341   1.032  13.241  1.6831 -2.3917 -0.0554
 3993TIP3    H233395   1.404   0.990  13.110 -0.3084 -0.5036 -1.6958
 3994TIP3   OH233396   4.938   6.251  16.420 -0.3767 -0.5362 -0.3378
 3994TIP3    H133397   4.883   6.299  16.483 -0.8895  0.1177 -1.2635
 3994TIP3    H233398   4.900   6.271  16.335  2.7301  2.0729 -1.3240
 3995TIP3   OH233399   5.655   2.879   5.161  0.3455 -0.1496  0.1359
 3995TIP3    H133400   5.715   2.835   5.221  0.1671  0.5977  0.8801
 3995TIP3    H233401   5.589   2.918   5.217 -0.6343 -0.6227 -0.6477
 3996TIP3   OH233402   2.753   4.610  15.676 -0.1171 -0.2798 -0.0481
 3996TIP3    H133403   2.733   4.703  15.673  0.1275 -0.1133  2.0896
 3996TIP3    H233404   2.669   4.566  15.660 -0.6532  0.3506  0.9055
 3997TIP3   OH233405   1.594   2.614   4.669 -0.1277  0.0533 -0.3007
 3997TIP3    H133406   1.647   2.566   4.733  1.8572  0.0467 -1.8356
 3997TIP3    H233407   1.592   2.557   4.592 -1.0621  0.7614 -0.8200
 3998TIP3   OH233408   6.679   5.226  11.952  0.0032 -0.3530  0.2033
 3998TIP3    H133409   6.587   5.252  11.948  0.0356 -0.3134 -0.3053
 3998TIP3    H233410   6.727   5.308  11.962  0.3412  0.2645 -4.3805
 3999TIP3   OH233411   0.197   2.442  13.601  0.4464  0.0208  0.5495
 3999TIP3    H133412   0.217   2.507  13.534  2.2528 -0.0218  0.9821
 3999TIP3    H233413   0.162   2.493  13.674 -1.7395  0.0448 -0.4307
 4000TIP3   OH233414   6.359   3.516   1.254 -0.0274  0.1088  0.0418
 4000TIP3    H133415   6.375   3.604   1.220 -0.3109 -0.5706 -1.9590
 4000TIP3    H233416   6.282   3.486   1.206  0.0754 -1.2496  0.6941
 4001TIP3   OH233417   5.694   1.851  11.484  0.6173 -0.3558  0.4904
 4001TIP3    H133418   5.712   1.818  11.396 -0.8006  0.9318 -0.3308
 4001TIP3    H233419   5.661   1.775  11.532 -0.3594 -0.6748 -0.6539
 4002TIP3   OH233420   0.590   2.026  11.945  0.1282  0.2129 -0.3757
 4002TIP3    H133421   0.597   1.950  11.886 -0.1611 -0.6708  0.6968
 4002TIP3    H233422   0.568   1.988  12.030 -1.5323  1.6420 -0.1372
 4003TIP3   OH233423   0.655   2.490  15.478 -0.1762 -0.0948 -0.6417
 4003TIP3    H133424   0.714   2.555  15.439 -0.1634 -0.3103 -0.9860
 4003TIP3    H233425   0.619   2.443  15.403 -1.0122  0.2270 -0.4578
 4004TIP3   OH233426   3.265   1.368  15.441 -0.3698 -0.4331 -0.1690
 4004TIP3    H133427   3.316   1.395  15.517 -2.0276  0.5955  0.6366
 4004TIP3    H233428   3.241   1.277  15.461 -0.5077 -0.2815  0.3811
 4005TIP3   OH233429   2.348   1.566  16.271  0.3427  0.1198  0.1709
 4005TIP3    H133430   2.379   1.655  16.258  1.4865 -0.3563 -0.5079
 4005TIP3    H233431   2.281   1.554  16.204 -1.5519  1.2080  1.7473
 4006TIP3   OH233432   3.477   0.682  12.920 -0.1188  0.1723  0.4692
 4006TIP3    H133433   3.567   0.656  12.941 -0.4145 -0.2262  1.2667
 4006TIP3    H233434   3.487   0.749  12.853  0.7832  0.3056  0.7233
 4007TIP3   OH233435   6.404   1.620  15.590 -0.3684  0.6156  0.1076
 4007TIP3    H133436   6.369   1.585  15.509  1.3459 -1.4157  0.1601
 4007TIP3    H233437   6.495   1.642  15.570  0.2454 -0.4086  1.5692
 4008TIP3   OH233438   6.319   6.121  12.706  0.4271  0.1911 -0.0109
 4008TIP3    H133439   6.249   6.136  12.769  0.1855  2.2093 -0.7025
 4008TIP3    H233440   6.301   6.181  12.635  2.8831  0.8364 -0.1855
 4009TIP3   OH233441   2.971   3.784  14.186 -0.2734  0.1889  0.0587
 4009TIP3    H133442   2.969   3.818  14.096 -0.1847  0.6254  0.2165
 4009TIP3    H233443   3.064   3.784  14.208 -0.2230 -0.7042 -0.1367
 4010TIP3   OH233444   4.169   1.381   2.011  0.9067 -0.1938 -0.3790
 4010TIP3    H133445   4.240   1.437   1.980  0.5193  0.0480 -0.8377
 4010TIP3    H233446   4.093   1.439   2.017  0.6354 -0.5503 -0.3351
 4011TIP3   OH233447   2.249   3.655   3.042  0.3552  0.2392  0.0431
 4011TIP3    H133448   2.305   3.699   2.978  1.6737 -0.7447  0.4800
 4011TIP3    H233449   2.201   3.589   2.991 -0.3510  1.0186 -0.3158
 4012TIP3   OH233450   4.151   0.759  15.881 -0.3203  0.0813  0.0948
 4012TIP3    H133451   4.174   0.677  15.837 -0.0217  0.7571 -1.0717
 4012TIP3    H233452   4.192   0.827  15.827 -2.5230  1.1525 -0.3357
 4013TIP3   OH233453   2.691   4.017   4.126  0.1312  0.2139 -0.0063
 4013TIP3    H133454   2.771   3.968   4.147 -1.1302 -1.2330  1.7344
 4013TIP3    H233455   2.651   3.967   4.055  0.2841  0.4049 -0.2301
 4014TIP3   OH233456   1.040   3.038  16.264  0.2187 -0.7758 -0.1210
 4014TIP3    H133457   1.116   3.064  16.315  0.4796  0.7088 -1.2230
 4014TIP3    H233458   0.966   3.050  16.323  0.6163 -0.1131  0.2459
 4015TIP3   OH233459   3.528   1.961  16.892  0.2803 -0.1214 -0.6934
 4015TIP3    H133460   3.548   1.879  16.936  1.9080  0.2651 -0.6587
 4015TIP3    H233461   3.497   1.936  16.805 -2.7085 -0.8867  0.4643
 4016TIP3   OH233462   5.106   6.538   2.050 -0.3866  0.6016  0.1722
 4016TIP3    H133463   5.133   6.446   2.056  4.5624  1.8877  2.3489
 4016TIP3    H233464   5.137   6.567   1.964 -0.9727  0.5291 -0.0687
 4017TIP3   OH233465   6.589   4.715  15.782  0.3467  0.3713 -0.0283
 4017TIP3    H133466   6.602   4.653  15.710 -0.0534  0.0858  0.1406
 4017TIP3    H233467   6.658   4.695  15.845 -0.0751 -0.2329  0.2500
 4018TIP3   OH233468   2.017   1.259   0.538  0.0780  0.0475 -0.1866
 4018TIP3    H133469   1.974   1.188   0.587  0.6668  0.8143  1.5385
 4018TIP3    H233470   1.946   1.320   0.516 -0.2137 -0.3613 -0.3942
 4019TIP3   OH233471   5.311   4.265  13.077  0.5151 -0.5510 -0.1715
 4019TIP3    H133472   5.295   4.222  13.161 -0.7296  0.5392  0.1915
 4019TIP3    H233473   5.364   4.342  13.098  1.7990 -1.2748 -0.6634
 4020TIP3   OH233474   5.165   3.159   0.297  0.6222  0.7755 -0.1082
 4020TIP3    H133475   5.248   3.115   0.279  0.4919  0.1660  0.7212
 4020TIP3    H233476   5.186   3.223   0.365  0.1787 -0.2554  1.0243
 4021TIP3   OH233477   4.834   6.697   0.108 -0.4484  0.1496  0.0195
 4021TIP3    H133478   4.872   6.610   0.119 -0.3823  0.1726 -0.0241
 4021TIP3    H233479   4.773   6.707   0.181  0.4394  0.5405  0.7220
 4022TIP3   OH233480   5.344   0.071   3.628 -0.6585  0.1708  0.0859
 4022TIP3    H133481   5.372   0.003   3.690 -0.4504 -0.3532 -0.5725
 4022TIP3    H233482   5.370   0.153   3.670 -0.6924 -0.1642  0.7819
 4023TIP3   OH233483   6.413   1.010  17.079  0.1045 -0.6968  0.1322
 4023TIP3    H133484   6.380   1.055  17.157  0.6128 -1.7453  0.9741
 4023TIP3    H233485   6.335   0.993  17.026 -0.0699  1.5153 -0.4267
 4024TIP3   OH233486   6.188   2.342   5.094 -0.5009 -0.0891  0.2184
 4024TIP3    H133487   6.123   2.408   5.070  0.4079  0.5886 -0.4465
 4024TIP3    H233488   6.161   2.263   5.047 -1.5057 -0.1718  0.8967
 4025TIP3   OH233489   2.609   0.747   1.322  0.1526  0.3826 -0.1953
 4025TIP3    H133490   2.591   0.659   1.291 -0.3859  0.8850 -1.3765
 4025TIP3    H233491   2.565   0.753   1.407  0.9455 -0.7505  0.3128
 4026TIP3   OH233492   3.633   5.035  17.265 -0.5437 -0.2911  0.3763
 4026TIP3    H133493   3.669   4.959  17.311 -0.0348  0.2670  0.9221
 4026TIP3    H233494   3.625   5.006  17.174  1.3289 -0.4430  0.2196
 4027TIP3   OH233495   3.459   6.003  17.076  0.0266 -0.0011 -0.3787
 4027TIP3    H133496   3.391   6.052  17.122 -0.2313 -2.1013  1.6724
 4027TIP3    H233497   3.413   5.929  17.036  0.8677 -0.6361 -0.2125
 4028TIP3   OH233498   1.889   2.923   5.883 -0.5049 -0.4094  0.0552
 4028TIP3    H133499   1.895   2.911   5.978  2.9779 -1.0554 -0.1492
 4028TIP3    H233500   1.856   2.839   5.850 -3.8196  0.4651  0.6893
 4029TIP3   OH233501   5.286   6.746  14.360 -0.5392  0.1770 -0.3013
 4029TIP3    H133502   5.199   6.709  14.343 -1.9678  2.7600  0.9239
 4029TIP3    H233503   5.309   6.790  14.279 -1.6185  1.6946  0.1674
 4030TIP3   OH233504   3.573   6.649  17.222 -0.3533  0.4562  0.1723
 4030TIP3    H133505   3.584   6.590  17.148  1.1728  0.2919  0.4811
 4030TIP3    H233506   3.479   6.667  17.225 -0.6637 -0.8062 -0.8083
 4031TIP3   OH233507   1.917   5.565   2.440 -0.6616 -0.2160 -0.6096
 4031TIP3    H133508   1.944   5.643   2.391  1.5915  0.1326  1.0366
 4031TIP3    H233509   1.825   5.580   2.461 -1.0152  0.7260 -2.5641
 4032TIP3   OH233510   3.092   4.967   1.265 -1.2293  0.4012 -0.3764
 4032TIP3    H133511   3.082   4.874   1.282 -1.9190  0.3786 -0.8665
 4032TIP3    H233512   3.181   4.976   1.231 -0.8956  0.0340  0.3764
 4033TIP3   OH233513   5.325   4.780  14.627  0.2146 -0.4785  0.1810
 4033TIP3    H133514   5.405   4.773  14.679 -0.1374 -2.4344  0.5160
 4033TIP3    H233515   5.306   4.874  14.627  1.8424 -0.1025  1.0977
 4034TIP3   OH233516   5.647   4.431   3.605  0.4775 -0.1180 -0.0348
 4034TIP3    H133517   5.634   4.439   3.510  2.3648  3.8816 -0.1453
 4034TIP3    H233518   5.732   4.389   3.614  0.9467  0.7910 -0.1739
 4035TIP3   OH233519   6.642   3.889  12.582 -0.5137  0.0224 -0.1720
 4035TIP3    H133520   6.572   3.843  12.629  1.1764 -1.1209  1.3603
 4035TIP3    H233521   6.596   3.956  12.531 -2.7581 -1.0483  0.2983
 4036TIP3   OH233522   1.691   3.208   1.048  0.0735  0.4042 -0.2159
 4036TIP3    H133523   1.606   3.252   1.049  0.4269  1.0890  1.3132
 4036TIP3    H233524   1.755   3.278   1.061  0.8146 -0.2373 -0.3383
 4037TIP3   OH233525   1.837   3.057   2.989 -0.2450 -0.8192  0.1800
 4037TIP3    H133526   1.741   3.047   2.993 -0.3743 -0.9715 -2.0536
 4037TIP3    H233527   1.860   3.099   3.073 -2.4129  0.3800  0.2621
 4038TIP3   OH233528   4.631   4.775   1.311 -0.2703 -0.2419  0.0329
 4038TIP3    H133529   4.635   4.726   1.394 -0.9844 -1.5565 -0.6715
 4038TIP3    H233530   4.698   4.842   1.320 -0.6250 -0.0805  1.8473
 4039TIP3   OH233531   4.836   5.129  15.573 -0.1890 -0.3662 -0.4017
 4039TIP3    H133532   4.767   5.181  15.532  0.8611  0.5186 -1.1021
 4039TIP3    H233533   4.849   5.169  15.659  0.5596  0.4995 -0.9062
 4040TIP3   OH233534   2.806   4.683   4.418  0.3924  0.0506  0.0599
 4040TIP3    H133535   2.719   4.675   4.380  0.9193  1.3913 -1.5582
 4040TIP3    H233536   2.848   4.599   4.399 -0.1699 -0.1691 -0.2224
 4041TIP3   OH233537   1.735   0.767   5.095 -0.2052 -0.2241 -0.7318
 4041TIP3    H133538   1.757   0.735   5.007 -0.4369  1.5053 -1.4503
 4041TIP3    H233539   1.664   0.829   5.081  0.3774  0.7727  0.5751
 4042TIP3   OH233540   1.688   2.629  13.791 -0.2997 -0.0599  0.0890
 4042TIP3    H133541   1.606   2.676  13.779 -1.6642 -2.1525  0.6771
 4042TIP3    H233542   1.742   2.653  13.715 -1.3379  1.5393 -0.1699
 4043TIP3   OH233543   6.385   0.096   3.028 -0.1196 -0.0446  0.0163
 4043TIP3    H133544   6.452   0.029   3.039  0.9671  0.6905 -1.6123
 4043TIP3    H233545   6.303   0.047   3.021  0.4859 -1.1083  0.1507
 4044TIP3   OH233546   5.887   5.978  12.489  0.3499  0.0555 -0.0435
 4044TIP3    H133547   5.811   6.032  12.511  1.3232  0.4297  2.8242
 4044TIP3    H233548   5.879   5.963  12.395 -3.2191  0.0859  0.1194
 4045TIP3   OH233549   3.120   6.198   2.953 -0.1247 -0.4062 -0.0281
 4045TIP3    H133550   3.074   6.119   2.925 -0.8810  0.0473 -0.0968
 4045TIP3    H233551   3.052   6.252   2.994  0.5251 -0.0949  0.6608
 4046TIP3   OH233552   5.140   0.441   5.553 -0.0511 -0.0731  0.1405
 4046TIP3    H133553   5.088   0.361   5.563 -0.6369  0.2143 -0.5751
 4046TIP3    H233554   5.087   0.498   5.498  1.1883  0.0674 -0.9519
 4047TIP3   OH233555   2.870   4.084  16.293 -0.1208  0.1196  0.3552
 4047TIP3    H133556   2.944   4.027  16.273 -0.0050  0.5071 -0.3521
 4047TIP3    H233557   2.854   4.133  16.212  0.5713  1.9849  1.2680
 4048TIP3   OH233558   5.930   5.148  13.003  0.0427 -0.3805 -0.0584
 4048TIP3    H133559   5.921   5.232  13.047  2.4406 -0.3298  0.4333
 4048TIP3    H233560   5.961   5.088  13.071 -1.3389 -1.6386 -0.4670
 4049TIP3   OH233561   6.738   5.281   4.853  0.8940 -0.1512 -0.1756
 4049TIP3    H133562   6.732   5.329   4.770 -0.1523 -0.9323 -0.5699
 4049TIP3    H233563   6.661   5.225   4.854 -0.1446  1.2005  2.2196
 4050TIP3   OH233564   1.386   6.192   2.483 -0.0600 -0.0958 -0.4100
 4050TIP3    H133565   1.396   6.104   2.448 -0.2183 -0.4455  0.4032
 4050TIP3    H233566   1.315   6.230   2.433 -1.2278 -1.0775  0.4328
 4051TIP3   OH233567   5.920   5.391  13.169 -0.2522 -0.3372 -0.3294
 4051TIP3    H133568   5.863   5.360  13.239 -1.5520  0.4241 -1.0235
 4051TIP3    H233569   5.896   5.483  13.157  0.5787 -0.2159 -1.1711
 4052TIP3   OH233570   2.205   2.100  14.930  0.5248  0.2209 -0.2396
 4052TIP3    H133571   2.173   2.175  14.879  1.5125  1.1893  0.5158
 4052TIP3    H233572   2.299   2.116  14.940  1.2125 -2.2611 -1.9318
 4053TIP3   OH233573   6.114   2.922  12.220  0.5193  0.1845 -0.0787
 4053TIP3    H133574   6.163   2.959  12.146 -1.3860  1.9692 -0.5013
 4053TIP3    H233575   6.048   2.866  12.179  0.0656  0.4294  0.3092
 4054TIP3   OH233576   4.900   4.093   1.580 -0.5497 -0.8516 -0.5923
 4054TIP3    H133577   4.979   4.080   1.527 -0.2661 -0.4189 -0.2829
 4054TIP3    H233578   4.930   4.086   1.670 -0.5096  1.0207 -0.4169
 4055TIP3   OH233579   1.078   1.965   0.629  0.0572 -0.5755 -0.3899
 4055TIP3    H133580   1.128   2.046   0.628  0.6039 -0.9034 -0.0840
 4055TIP3    H233581   1.027   1.969   0.710  0.2759 -0.6494 -0.2475
 4056TIP3   OH233582   6.729   5.714  14.377 -0.3197  0.5289 -0.9915
 4056TIP3    H133583   6.777   5.761  14.308  1.4023 -0.9881 -0.9202
 4056TIP3    H233584   6.642   5.701  14.341  0.1525  0.9271 -2.3498
 4057TIP3   OH233585   1.190   0.370  13.461 -0.0865  0.2753 -0.3909
 4057TIP3    H133586   1.159   0.387  13.372 -0.7115  0.3973 -0.1576
 4057TIP3    H233587   1.117   0.324  13.503  0.4198 -0.2726 -0.1031
 4058TIP3   OH233588   5.768   2.939  11.574 -0.0249  0.9480 -0.3672
 4058TIP3    H133589   5.798   2.967  11.487  0.6173  2.9789  0.4517
 4058TIP3    H233590   5.837   2.967  11.633 -0.5362 -0.2608  0.8586
 4059TIP3   OH233591   2.190   6.078  11.341  0.2978  0.5088  0.3189
 4059TIP3    H133592   2.244   6.007  11.374 -0.5969 -0.1176  0.4778
 4059TIP3    H233593   2.189   6.065  11.246 -0.8707 -0.4526  0.4444
 4060TIP3   OH233594   6.554   5.390  12.200  0.5226  0.2474 -0.3572
 4060TIP3    H133595   6.650   5.390  12.206  0.4447  0.4527  1.2408
 4060TIP3    H233596   6.531   5.481  12.183  0.5364  0.6276  1.4576
 4061TIP3   OH233597   1.667   6.185   6.045 -0.8205 -0.0152  0.0658
 4061TIP3    H133598   1.627   6.156   6.126 -2.3072 -0.6142 -0.8430
 4061TIP3    H233599   1.671   6.281   6.053 -1.3526 -0.0366  0.6524
 4062TIP3   OH233600   0.878   6.436   2.017 -0.0612  0.4031 -0.5217
 4062TIP3    H133601   0.884   6.361   2.077 -0.5519  1.6973  1.2185
 4062TIP3    H233602   0.932   6.411   1.942 -1.6516 -2.4400 -0.8585
 4063TIP3   OH233603   5.136   0.622   5.942  0.4414  0.4661 -0.0743
 4063TIP3    H133604   5.158   0.541   5.988  0.7657  0.2396 -0.6103
 4063TIP3    H233605   5.102   0.680   6.010 -0.0278 -0.2058  0.2769
 4064TIP3   OH233606   5.088   5.970  15.108  0.1409 -0.0731  0.1542
 4064TIP3    H133607   5.007   5.949  15.154 -0.6986  3.0280  0.2497
 4064TIP3    H233608   5.092   5.905  15.037 -0.6766 -2.3185  2.0318
 4065TIP3   OH233609   1.013   6.052   0.939  0.2522  0.1207  0.1575
 4065TIP3    H133610   0.959   6.106   0.880  2.3402 -0.7435 -2.7734
 4065TIP3    H233611   0.976   5.964   0.932  0.0785  0.1449  0.7263
 4066TIP3   OH233612   5.279   4.932   5.420 -0.1122 -0.0990 -0.3141
 4066TIP3    H133613   5.324   4.877   5.355 -1.2905 -0.0805 -1.1783
 4066TIP3    H233614   5.237   4.869   5.479  0.3971 -0.1123  0.0439
 4067TIP3   OH233615   1.345   2.383  10.893 -0.5508 -0.6145  0.2877
 4067TIP3    H133616   1.367   2.362  10.803  0.3429 -1.0576  0.5990
 4067TIP3    H233617   1.251   2.401  10.891 -0.3274  0.5391 -0.9312
 4068TIP3   OH233618   3.304   2.638  16.408 -0.4773  0.0640 -0.0648
 4068TIP3    H133619   3.227   2.655  16.354 -0.8023  1.7758  0.8815
 4068TIP3    H233620   3.268   2.599  16.489 -0.3607  0.8594  0.3757
 4069TIP3   OH233621   0.362   3.010   3.959 -0.6815 -0.0689  0.8274
 4069TIP3    H133622   0.422   3.075   3.924 -0.7757  0.5439  1.7657
 4069TIP3    H233623   0.275   3.045   3.939 -0.7345  0.2089  1.5130
 4070TIP3   OH233624   0.071   2.489   5.458 -0.2939  0.1516 -0.1045
 4070TIP3    H133625   0.033   2.497   5.370  0.5921  0.5845 -0.4572
 4070TIP3    H233626   0.081   2.394   5.470 -1.8401 -0.0070  0.1712
 4071TIP3   OH233627   3.227   3.949  12.473  0.1996  0.6642 -0.4442
 4071TIP3    H133628   3.289   3.926  12.404  1.9098 -0.9406  1.5070
 4071TIP3    H233629   3.274   4.011  12.529  0.0845 -0.4969  1.0145
 4072TIP3   OH233630   6.620   2.515  13.543  0.2496  0.2134  0.0637
 4072TIP3    H133631   6.583   2.585  13.596 -0.7662  0.0757 -0.4454
 4072TIP3    H233632   6.558   2.443  13.551 -0.7010  0.6534 -2.4125
 4073TIP3   OH233633   0.118   4.432   1.932  0.3658  0.4990 -0.3082
 4073TIP3    H133634   0.124   4.458   1.840  2.9709  0.5655 -0.1854
 4073TIP3    H233635   0.035   4.385   1.938 -0.3527  1.3701 -2.4471
 4074TIP3   OH233636   5.234   6.011   2.215 -0.4692 -1.0354  0.4985
 4074TIP3    H133637   5.297   5.941   2.228 -1.7892 -2.6037 -1.0566
 4074TIP3    H233638   5.196   5.994   2.129 -0.4001  1.9767 -0.2606
 4075TIP3   OH233639   0.596   3.449  13.386 -1.2615  0.1353 -0.4396
 4075TIP3    H133640   0.679   3.426  13.346 -0.3552  0.3968  1.2126
 4075TIP3    H233641   0.552   3.503  13.320  1.0851  2.3705 -0.3555
 4076TIP3   OH233642   2.024   0.470  13.847 -0.2135 -0.0204  0.0651
 4076TIP3    H133643   1.939   0.432  13.828  0.0157 -0.7768  0.5195
 4076TIP3    H233644   2.087   0.402  13.823  0.1590 -0.3348  1.8288
 4077TIP3   OH233645   4.493   6.689  12.308 -0.1809  0.6316  0.8239
 4077TIP3    H133646   4.427   6.696  12.240  1.0435 -1.6143 -0.7578
 4077TIP3    H233647   4.443   6.679  12.389 -1.9403 -2.0546 -0.4105
 4078TIP3   OH233648   6.329   4.419  12.144 -0.6602  0.0186  0.3540
 4078TIP3    H133649   6.339   4.404  12.050 -0.2306 -3.6397  0.8685
 4078TIP3    H233650   6.256   4.481  12.151 -3.6837 -2.8774 -2.3358
 4079TIP3   OH233651   2.572   1.810  15.469 -0.1104 -0.8190  0.1847
 4079TIP3    H133652   2.496   1.788  15.523 -0.9208 -0.8028 -0.9166
 4079TIP3    H233653   2.535   1.827  15.382  0.9179  1.1149  0.0753
 4080TIP3   OH233654   4.976   1.612  14.508 -0.6319 -0.2130  0.7445
 4080TIP3    H133655   4.905   1.661  14.549 -2.5026 -0.0460 -2.4201
 4080TIP3    H233656   4.963   1.624  14.414  2.4339 -1.8594 -0.0319
 4081TIP3   OH233657   5.927   2.711   2.662 -0.1680 -0.0233  0.1468
 4081TIP3    H133658   5.972   2.633   2.628  0.0309 -0.9068  2.3025
 4081TIP3    H233659   5.939   2.777   2.593  0.1258 -1.7068 -1.5144
 4082TIP3   OH233660   0.549   5.278   3.903 -0.6577  0.6903  0.4609
 4082TIP3    H133661   0.493   5.352   3.923  0.7936  1.5722  1.3830
 4082TIP3    H233662   0.585   5.251   3.987  3.0298  2.4208 -0.3610
 4083TIP3   OH233663   5.385   0.521  16.386 -0.2719  0.5099 -0.2500
 4083TIP3    H133664   5.441   0.469  16.443  0.0208 -1.4757 -2.1967
 4083TIP3    H233665   5.313   0.462  16.363 -0.5870  1.3581 -1.5813
 4084TIP3   OH233666   5.582   0.031  15.149  1.0710 -0.0069 -0.9507
 4084TIP3    H133667   5.655   0.078  15.109  0.9272  0.4631 -0.6616
 4084TIP3    H233668   5.515   0.097  15.162  1.5756  0.1490  1.2680
 4085TIP3   OH233669   4.338   1.987  13.258  0.2898  0.5026  0.0026
 4085TIP3    H133670   4.348   2.046  13.332 -2.3676  0.8183  0.2243
 4085TIP3    H233671   4.313   1.903  13.297 -1.2705  0.7057 -0.4612
 4086TIP3   OH233672   1.222   3.398   1.862 -0.1226 -0.3484 -0.4986
 4086TIP3    H133673   1.180   3.325   1.817 -2.1375 -0.5083  1.4483
 4086TIP3    H233674   1.152   3.462   1.875 -0.1214 -0.8806  3.4515
 4087TIP3   OH233675   0.115   2.549   3.481  0.6783  0.3515  0.1265
 4087TIP3    H133676   0.049   2.507   3.427  0.0070  2.0602 -0.4422
 4087TIP3    H233677   0.066   2.601   3.544  1.4740 -0.1920  1.2297
 4088TIP3   OH233678   0.125   1.093   0.429 -0.2273  0.3040 -0.3976
 4088TIP3    H133679   0.108   1.064   0.340  0.4635 -0.1258 -0.3964
 4088TIP3    H233680   0.216   1.122   0.429 -0.2040  0.2562  0.1729
 4089TIP3   OH233681   6.151   0.909   5.888  0.5163 -0.1688 -0.2194
 4089TIP3    H133682   6.148   0.861   5.971  2.4090 -0.8103 -0.4973
 4089TIP3    H233683   6.233   0.958   5.891 -0.2295  1.2079 -0.9856
 4090TIP3   OH233684   6.042   1.661   3.239 -0.2324  0.5447  0.0472
 4090TIP3    H133685   5.995   1.613   3.170  1.1198 -2.2524  0.9040
 4090TIP3    H233686   5.973   1.706   3.288 -1.1877  3.5011 -3.5355
 4091TIP3   OH233687   4.894   5.890  17.230 -0.0255 -0.7726 -0.4269
 4091TIP3    H133688   4.813   5.854  17.195  0.5693 -0.4407 -2.2185
 4091TIP3    H233689   4.868   5.971  17.273 -0.9198 -1.7215  0.9043
 4092TIP3   OH233690   0.455   5.378   4.249 -0.0702 -0.5691 -0.1190
 4092TIP3    H133691   0.493   5.434   4.317  0.0930 -1.2076  0.3241
 4092TIP3    H233692   0.421   5.440   4.184 -0.3715  0.0556  0.6143
 4093TIP3   OH233693   2.933   0.504   5.003 -0.5895  0.2633 -0.3240
 4093TIP3    H133694   3.004   0.527   5.063 -0.2511  1.0678 -1.0034
 4093TIP3    H233695   2.860   0.481   5.060  0.4801 -1.5456  0.4113
 4094TIP3   OH233696   1.252   6.195  14.642 -0.3075  0.1781 -0.3066
 4094TIP3    H133697   1.210   6.152  14.717  1.5191 -0.8759  0.1714
 4094TIP3    H233698   1.219   6.148  14.566 -1.9558  1.0633 -0.1827
 4095TIP3   OH233699   5.974   1.230  13.026  0.0761 -0.7303  0.3528
 4095TIP3    H133700   5.986   1.299  12.962  0.5414  0.8258  2.0238
 4095TIP3    H233701   5.923   1.270  13.096  3.2305 -0.8769  3.0138
 4096TIP3   OH233702   4.725   4.466  13.693 -0.0414  0.1366  0.2108
 4096TIP3    H133703   4.672   4.543  13.673  2.7343  2.4242  0.9326
 4096TIP3    H233704   4.808   4.482  13.648  0.6023 -2.5391  0.3151
 4097TIP3   OH233705   6.050   6.161   4.993 -0.0027  0.3883  0.4578
 4097TIP3    H133706   6.053   6.132   5.084 -1.0008  0.3277  0.4786
 4097TIP3    H233707   6.116   6.107   4.949 -0.8539 -0.9582  0.7743
 4098TIP3   OH233708   5.888   0.195   4.665  0.1041  0.3182 -0.2885
 4098TIP3    H133709   5.886   0.225   4.756  1.4877 -0.0104 -0.1185
 4098TIP3    H233710   5.891   0.099   4.672  0.1498  0.2919 -0.6729
 4099TIP3   OH233711   4.945   6.011   1.136 -0.5628 -0.4363  0.1043
 4099TIP3    H133712   5.027   6.022   1.088 -0.9427  0.5847 -0.3267
 4099TIP3    H233713   4.906   5.932   1.099 -0.5351 -0.0301 -0.8026
 4100TIP3   OH233714   1.244   3.342  15.626  0.5373 -0.3084 -0.1573
 4100TIP3    H133715   1.201   3.422  15.656  1.3510  0.3355 -0.6682
 4100TIP3    H233716   1.249   3.351  15.531 -0.5709 -1.5981 -0.3658
 4101TIP3   OH233717   1.909   4.361  11.188 -0.4354 -0.0733  0.1019
 4101TIP3    H133718   1.847   4.434  11.184  0.8962  1.1405  0.5862
 4101TIP3    H233719   1.906   4.323  11.100 -1.1446  0.5841 -0.1764
 4102TIP3   OH233720   4.064   2.852   6.164  0.2542  0.3340  0.0494
 4102TIP3    H133721   4.129   2.872   6.096 -0.0887 -0.5068 -0.5492
 4102TIP3    H233722   4.046   2.759   6.153  0.3275  0.1354  1.4340
 4103TIP3   OH233723   1.629   3.158  15.211  0.2674 -0.5472 -0.4025
 4103TIP3    H133724   1.683   3.091  15.253  0.0495 -1.1024 -1.0043
 4103TIP3    H233725   1.687   3.199  15.147  0.2458 -0.5251 -0.4078
 4104TIP3   OH233726   1.377   0.533   0.424  0.2180 -0.0300  0.6238
 4104TIP3    H133727   1.467   0.529   0.458  0.5071  0.2099 -0.1013
 4104TIP3    H233728   1.385   0.577   0.339 -0.5108 -0.4830  0.3086
 4105TIP3   OH233729   1.210   2.614  14.824  0.4325  0.1068 -0.4019
 4105TIP3    H133730   1.286   2.606  14.882 -0.1352 -0.6636  0.2488
 4105TIP3    H233731   1.135   2.612  14.882 -0.1106  0.6596 -1.0663
 4106TIP3   OH233732   6.130   6.664   4.955 -0.1505 -0.5650 -0.2312
 4106TIP3    H133733   6.174   6.582   4.932  1.3786  0.5627 -1.5829
 4106TIP3    H233734   6.199   6.717   4.994 -0.5006  0.9127 -1.5284
 4107TIP3   OH233735   3.996   2.719   5.237  0.4951 -0.5231 -0.0707
 4107TIP3    H133736   4.069   2.780   5.228  0.0860 -0.1339 -0.9040
 4107TIP3    H233737   3.974   2.721   5.330  1.0672 -0.0935  0.0610
 4108TIP3   OH233738   0.138   5.211   2.332  0.0441 -0.4714 -0.5915
 4108TIP3    H133739   0.084   5.225   2.410 -0.8809  1.0559 -1.4465
 4108TIP3    H233740   0.223   5.186   2.366 -0.8133 -1.5781  0.8502
 4109TIP3   OH233741   2.590   2.366  16.063  0.0767 -0.2648  0.4255
 4109TIP3    H133742   2.676   2.325  16.072  0.0126 -0.6678 -0.6497
 4109TIP3    H233743   2.539   2.305  16.010 -0.4309  0.6089 -0.1221
 4110TIP3   OH233744   2.751   4.832  11.506 -0.1590  0.2962  0.3856
 4110TIP3    H133745   2.843   4.817  11.527  0.0784 -0.8660 -1.2700
 4110TIP3    H233746   2.705   4.757  11.544 -0.0925 -0.3200 -0.6996
 4111TIP3   OH233747   0.565   1.857  16.137 -0.4703  0.4950  0.7534
 4111TIP3    H133748   0.539   1.949  16.133 -0.5817  0.4797  1.1504
 4111TIP3    H233749   0.487   1.809  16.108  0.4937  0.6395 -2.5022
 4112TIP3   OH233750   1.521   0.331   2.340  0.2874  0.1392  0.7251
 4112TIP3    H133751   1.431   0.337   2.373 -0.3397  1.0901 -0.9836
 4112TIP3    H233752   1.544   0.422   2.319  0.7085 -0.3480 -1.1222
 4113TIP3   OH233753   1.260   1.111  12.633  0.1893 -0.7438 -0.2945
 4113TIP3    H133754   1.251   1.039  12.570 -2.6361 -0.5360 -0.2599
 4113TIP3    H233755   1.243   1.071  12.718  3.5336 -0.9248  0.4103
 4114TIP3   OH233756   5.348   3.122   6.777  0.2306 -0.0637 -0.0313
 4114TIP3    H133757   5.288   3.176   6.725  0.4054  0.4698  0.3156
 4114TIP3    H233758   5.330   3.033   6.749 -1.2663  0.0105  0.5922
 4115TIP3   OH233759   2.638   2.252  11.516  0.0625 -0.2463 -0.4559
 4115TIP3    H133760   2.691   2.184  11.557  0.6915  0.0394 -0.7787
 4115TIP3    H233761   2.621   2.219  11.428  0.4198  0.0439 -0.6331
 4116TIP3   OH233762   0.708   2.575   2.205 -0.4151 -0.1943  0.1345
 4116TIP3    H133763   0.645   2.575   2.278 -0.1047 -0.1138  0.4080
 4116TIP3    H233764   0.657   2.604   2.130 -0.7117 -0.1463  0.3482
 4117TIP3   OH233765   2.074   4.271   4.157 -0.7064  0.3332  0.4368
 4117TIP3    H133766   2.012   4.206   4.123  0.1617  0.0695 -0.6911
 4117TIP3    H233767   2.117   4.227   4.230 -0.6786 -0.0907  0.1686
 4118TIP3   OH233768   1.864   3.121   1.447 -0.2325  0.2213  0.3806
 4118TIP3    H133769   1.778   3.163   1.453 -0.6232 -0.2842 -1.1236
 4118TIP3    H233770   1.852   3.034   1.485  0.3475  1.0938  2.6747
 4119TIP3   OH233771   3.265   4.534  14.414  0.1529 -0.6231  0.1585
 4119TIP3    H133772   3.360   4.522  14.422  0.0196 -1.5625  0.3295
 4119TIP3    H233773   3.229   4.497  14.494 -0.3052  0.5939  0.5417
 4120TIP3   OH233774   1.945   4.473   1.331  0.4843 -0.0982 -0.2513
 4120TIP3    H133775   1.979   4.445   1.416  0.0308 -1.3318 -0.4512
 4120TIP3    H233776   2.003   4.544   1.304  1.7732 -0.9183  0.2443
 4121TIP3   OH233777   3.414   6.154   6.487  0.8759  0.2744  0.2883
 4121TIP3    H133778   3.475   6.182   6.555  1.0258  1.0272 -0.1464
 4121TIP3    H233779   3.335   6.205   6.503  0.7431  0.1015  0.1873
 4122TIP3   OH233780   2.666   5.407   6.287  0.0947  0.0850  0.5481
 4122TIP3    H133781   2.630   5.489   6.322  1.4660  1.5601 -1.2864
 4122TIP3    H233782   2.729   5.378   6.353  0.7212  1.3729  0.5432
 4123TIP3   OH233783   6.391   2.770   2.259  0.2677  0.2840 -0.2703
 4123TIP3    H133784   6.447   2.693   2.254  1.0246  0.8391 -0.5819
 4123TIP3    H233785   6.401   2.813   2.174  0.8685  1.4101  0.3405
 4124TIP3   OH233786   5.796   1.853  12.199 -0.3419 -0.0166  0.2116
 4124TIP3    H133787   5.877   1.805  12.182  0.9525  2.4009 -1.1280
 4124TIP3    H233788   5.796   1.866  12.294  1.4541  0.8015  0.1560
 4125TIP3   OH233789   2.080   6.729  14.781 -0.2788  0.4583 -0.5104
 4125TIP3    H133790   2.081   6.701  14.873  0.1205 -3.3778 -1.5010
 4125TIP3    H233791   1.987   6.739  14.760 -0.5694 -1.5388 -0.3562
 4126TIP3   OH233792   6.665   0.104   5.732  0.1917  0.3222 -0.4489
 4126TIP3    H133793   6.677   0.166   5.803 -0.3347  0.1025 -0.1631
 4126TIP3    H233794   6.671   0.157   5.652  2.1143  0.3645 -0.3153
 4127TIP3   OH233795   4.419   3.450  13.775 -0.1777  0.7408  0.2853
 4127TIP3    H133796   4.431   3.530  13.725  1.3532  0.1982 -0.2824
 4127TIP3    H233797   4.324   3.439  13.780 -0.4454  2.8008  0.7690
 4128TIP3   OH233798   1.272   0.605   4.453  0.4067 -0.6139  0.4500
 4128TIP3    H133799   1.225   0.552   4.517 -2.6445 -1.4421 -2.2332
 4128TIP3    H233800   1.211   0.675   4.430  2.8123  1.8177  0.9557
 4129TIP3   OH233801   5.328   0.647  14.512 -0.0380  0.8394  0.4107
 4129TIP3    H133802   5.422   0.660  14.525  0.9369 -0.5253 -3.6951
 4129TIP3    H233803   5.304   0.582  14.578  3.4131 -3.1988 -1.7769
 4130TIP3   OH233804   2.433   0.938  13.311 -0.1324 -0.0720  0.0306
 4130TIP3    H133805   2.427   0.889  13.229  1.2226  2.2145 -1.5405
 4130TIP3    H233806   2.352   0.990  13.314 -0.1935 -0.1734  0.1712
 4131TIP3   OH233807   3.781   3.006   1.025  0.6692 -0.4268  0.3505
 4131TIP3    H133808   3.744   2.924   0.992 -0.1160  0.3702 -0.8123
 4131TIP3    H233809   3.711   3.046   1.076  1.1226 -0.5508  1.1022
 4132TIP3   OH233810   6.181   4.525  14.689 -0.4489  0.2548  0.3613
 4132TIP3    H133811   6.176   4.620  14.700  2.3417  0.5987 -0.6076
 4132TIP3    H233812   6.261   4.500  14.736 -1.4007 -1.7321  1.0224
 4133TIP3   OH233813   4.119   1.137   1.915 -0.9724 -0.7638  0.0129
 4133TIP3    H133814   4.104   1.167   1.825 -1.4370 -1.6858 -0.2292
 4133TIP3    H233815   4.156   1.214   1.960 -0.4250 -0.3861 -1.0408
 4134TIP3   OH233816   2.570   6.426   1.975 -0.3042  0.3337  0.0398
 4134TIP3    H133817   2.528   6.478   2.044 -0.3893  1.3849 -0.7903
 4134TIP3    H233818   2.647   6.477   1.950  0.3740 -0.6045  0.1335
 4135TIP3   OH233819   1.620   2.929  11.750  0.5238  0.6054 -0.1049
 4135TIP3    H133820   1.705   2.964  11.778  0.4497  1.8852 -1.3490
 4135TIP3    H233821   1.625   2.929  11.654  0.0419 -1.7349 -0.1874
 4136TIP3   OH233822   4.737   2.636  16.629  0.2661  0.6595 -0.3591
 4136TIP3    H133823   4.704   2.715  16.587  0.7228  0.9763 -0.1334
 4136TIP3    H233824   4.811   2.608  16.575 -1.1348 -0.7912 -1.6085
 4137TIP3   OH233825   5.306   5.652   1.436 -0.1213 -0.1260  0.2476
 4137TIP3    H133826   5.378   5.641   1.498  0.6473  1.2650 -0.3473
 4137TIP3    H233827   5.301   5.747   1.421  0.0955 -0.4281 -2.2232
 4138TIP3   OH233828   2.795   2.336   6.367  0.4116 -0.6088  0.5219
 4138TIP3    H133829   2.789   2.403   6.434 -0.1781 -0.1754  0.0412
 4138TIP3    H233830   2.753   2.259   6.406  1.6337 -0.9152  1.3083
 4139TIP3   OH233831   4.171   5.628   4.217  0.0895 -0.1270  0.1857
 4139TIP3    H133832   4.195   5.536   4.230 -0.1853 -0.4939 -1.6968
 4139TIP3    H233833   4.081   5.634   4.249 -0.5620 -0.9958 -1.3523
 4140TIP3   OH233834   6.260   2.767   4.469 -0.7005  0.1281 -0.4287
 4140TIP3    H133835   6.343   2.727   4.442 -0.7960  0.2277 -0.8693
 4140TIP3    H233836   6.249   2.739   4.560 -0.7824 -0.8731 -0.7383
 4141TIP3   OH233837   1.848   2.025  11.794  0.3138 -0.2867 -0.0016
 4141TIP3    H133838   1.905   2.016  11.718  0.4612 -1.8604  0.2606
 4141TIP3    H233839   1.760   2.009  11.761  0.3971 -1.1452  0.1810
 4142TIP3   OH233840   0.966   6.397  12.174 -0.8056  0.6021 -0.2737
 4142TIP3    H133841   0.920   6.415  12.092 -2.8416  3.3618  1.3037
 4142TIP3    H233842   0.899   6.358  12.231  0.0115  0.6142  0.7239
 4143TIP3   OH233843   5.010   5.508  13.540  0.3508 -0.0638 -0.6219
 4143TIP3    H133844   5.001   5.507  13.445  1.3452  1.3727 -0.7714
 4143TIP3    H233845   4.941   5.567  13.571  1.6974  1.6699 -0.7446
 4144TIP3   OH233846   3.558   2.724  11.222 -0.1140 -0.1541  0.1530
 4144TIP3    H133847   3.610   2.707  11.143 -3.1329 -0.2199 -2.0375
 4144TIP3    H233848   3.554   2.820  11.228 -2.2069 -0.0398 -1.6484
 4145TIP3   OH233849   2.741   2.182   0.641 -0.1261  0.0281 -0.1831
 4145TIP3    H133850   2.764   2.272   0.621 -1.1356  0.1643 -0.7915
 4145TIP3    H233851   2.649   2.174   0.614 -0.3334 -0.9080  0.7355
 4146TIP3   OH233852   4.586   3.696  15.831 -0.4256 -0.1672  0.1153
 4146TIP3    H133853   4.574   3.766  15.767 -0.1592 -0.1002  0.1394
 4146TIP3    H233854   4.678   3.672  15.824 -0.5371 -0.5828  0.0399
 4147TIP3   OH233855   0.058   0.927   4.889  0.0940 -0.2836  0.1911
 4147TIP3    H133856   0.048   0.977   4.808  1.2904  0.5696  0.5441
 4147TIP3    H233857   0.029   0.838   4.866 -1.4505  0.3888 -0.6197
 4148TIP3   OH233858   0.859   5.101   5.341  0.7983  0.9242  0.3282
 4148TIP3    H133859   0.781   5.090   5.396  0.0642  1.7414 -0.4928
 4148TIP3    H233860   0.883   5.012   5.314 -1.6868  0.7663 -1.8059
 4149TIP3   OH233861   4.560   4.699  17.088 -0.4245  0.2833 -0.1124
 4149TIP3    H133862   4.505   4.733  17.017 -0.0133 -0.8365 -1.0151
 4149TIP3    H233863   4.533   4.747  17.165 -1.7449  0.7004 -0.8026
 4150TIP3   OH233864   1.106   3.744   5.737  0.5231 -0.2175 -0.1323
 4150TIP3    H133865   1.189   3.697   5.728 -0.5704 -2.1018 -1.0008
 4150TIP3    H233866   1.076   3.723   5.825  0.1795 -0.9351 -0.4136
 4151TIP3   OH233867   4.752   0.434   0.916  0.2309 -1.1993  0.1342
 4151TIP3    H133868   4.683   0.393   0.864 -0.3466 -0.5242  0.3424
 4151TIP3    H233869   4.705   0.491   0.977  0.9035 -1.7807  1.2398
 4152TIP3   OH233870   2.654   0.929   4.642  0.1068  0.2961  0.2208
 4152TIP3    H133871   2.713   0.966   4.709  0.0072  0.4926  0.2018
 4152TIP3    H233872   2.576   0.903   4.690 -0.3549  1.3160  0.0511
 4153TIP3   OH233873   6.209   5.139  15.246 -0.0161 -0.1499  0.4728
 4153TIP3    H133874   6.227   5.111  15.157 -1.6176 -0.0554  0.0857
 4153TIP3    H233875   6.248   5.072  15.302  0.2151 -0.6825 -0.3226
 4154TIP3   OH233876   2.979   0.090  13.918  0.6554  0.1959  0.1052
 4154TIP3    H133877   2.962   0.153  13.848 -0.2677  0.1771  0.2959
 4154TIP3    H233878   3.056   0.124  13.963  1.7839 -0.2270 -1.4103
 4155TIP3   OH233879   3.145   2.048   3.996  0.3033  0.1241  0.5574
 4155TIP3    H133880   3.199   1.980   3.956 -1.8845 -0.7104 -1.1724
 4155TIP3    H233881   3.208   2.112   4.029  2.5300 -2.8811  2.7886
 4156TIP3   OH233882   3.661   5.727   5.640 -0.5075 -0.1655  0.4318
 4156TIP3    H133883   3.647   5.656   5.704 -0.8879  0.6644  1.3006
 4156TIP3    H233884   3.619   5.696   5.560 -0.4667 -1.0173  0.7278
 4157TIP3   OH233885   5.750   3.805  16.456  0.8537 -0.4381  0.8565
 4157TIP3    H133886   5.797   3.883  16.427  0.1482 -0.7334 -1.2573
 4157TIP3    H233887   5.818   3.738  16.463  0.8778 -0.8606 -2.1685
 4158TIP3   OH233888   0.633   1.068   0.181  0.5862 -0.0031  0.5956
 4158TIP3    H133889   0.671   1.143   0.225  0.9075 -0.7094  1.5570
 4158TIP3    H233890   0.642   0.996   0.243 -2.8269 -0.1255  1.1440
 4159TIP3   OH233891   1.167   0.606   3.526  0.1456 -0.5187  0.2419
 4159TIP3    H133892   1.117   0.687   3.512 -0.5859 -0.7105  1.6073
 4159TIP3    H233893   1.136   0.547   3.457  0.4657  0.2467 -0.5778
 4160TIP3   OH233894   6.727   4.105   0.880 -0.4287  0.1235 -0.0376
 4160TIP3    H133895   6.685   4.031   0.837 -0.3187 -0.2958  0.5816
 4160TIP3    H233896   6.772   4.151   0.809 -1.7534  0.4742 -0.6816
 4161TIP3   OH233897   0.629   1.380   3.796  0.0849 -0.3128 -0.4380
 4161TIP3    H133898   0.705   1.432   3.821 -0.6515  0.0123  1.2606
 4161TIP3    H233899   0.663   1.291   3.784  0.5905 -0.3672  1.2387
 4162TIP3   OH233900   2.995   2.092   0.601 -0.8396 -0.0994  0.2263
 4162TIP3    H133901   3.003   2.007   0.558 -1.0706 -0.0600  0.1004
 4162TIP3    H233902   2.900   2.106   0.608 -0.8217  0.9266 -1.2995
 4163TIP3   OH233903   0.962   6.375  15.952  0.5586  0.7089  0.2906
 4163TIP3    H133904   0.985   6.404  15.863 -2.1069  2.2110 -0.0270
 4163TIP3    H233905   1.017   6.428  16.009  1.4746  0.5776 -0.4516
 4164TIP3   OH233906   5.110   0.407   6.121  0.2758 -0.3513 -0.1575
 4164TIP3    H133907   5.133   0.435   6.209  0.8804  1.4303 -0.8442
 4164TIP3    H233908   5.179   0.346   6.096  1.3298  0.8331 -0.1968
 4165TIP3   OH233909   1.298   2.042  16.988  0.2325 -0.5273 -0.1959
 4165TIP3    H133910   1.358   1.975  17.022 -0.3024 -0.6347  0.5642
 4165TIP3    H233911   1.276   2.012  16.900  0.8701 -0.7683 -0.2744
 4166TIP3   OH233912   6.055   3.446  12.879 -0.3848  0.5102 -0.0812
 4166TIP3    H133913   6.057   3.458  12.974 -0.3922 -0.5900  0.0780
 4166TIP3    H233914   5.989   3.507  12.848 -0.4256  0.8399  0.6258
 4167TIP3   OH233915   0.120   5.021  16.146 -0.3697 -0.0552  0.5620
 4167TIP3    H133916   0.189   5.083  16.123 -0.9431  1.6900  3.0821
 4167TIP3    H233917   0.070   5.009  16.066  0.6568  1.6056 -0.3730
 4168TIP3   OH233918   2.200   0.585   5.378 -0.1576  0.4394  0.1979
 4168TIP3    H133919   2.252   0.662   5.402 -0.5690  0.8325 -0.1600
 4168TIP3    H233920   2.262   0.528   5.332  0.2731  0.3281  0.8843
 4169TIP3   OH233921   0.572   2.669   5.869  0.0659  0.1826 -0.1139
 4169TIP3    H133922   0.617   2.586   5.854 -0.5601 -0.0802 -0.6031
 4169TIP3    H233923   0.602   2.698   5.955  1.9662  0.5406 -0.8513
 4170TIP3   OH233924   3.399   5.613  13.804  0.5592  0.5186 -0.4179
 4170TIP3    H133925   3.476   5.557  13.816  1.3327  1.7453  0.6471
 4170TIP3    H233926   3.435   5.698  13.780 -0.4096  1.3343  0.9226
 4171TIP3   OH233927   4.387   6.349   3.492  0.1802  0.7049  0.1720
 4171TIP3    H133928   4.384   6.435   3.534 -0.6167  1.1351 -0.7436
 4171TIP3    H233929   4.360   6.365   3.402 -1.9198 -0.8056  0.4645
 4172TIP3   OH233930   5.746   2.839   5.459 -0.5612 -0.3740 -0.4334
 4172TIP3    H133931   5.831   2.858   5.419 -0.2849  0.7578  0.6383
 4172TIP3    H233932   5.767   2.809   5.547 -1.2852  1.3076  0.3616
 4173TIP3   OH233933   5.083   6.255  11.499  0.0816 -0.1178 -0.1662
 4173TIP3    H133934   5.101   6.347  11.512  0.3201 -0.0641 -0.8364
 4173TIP3    H233935   5.104   6.214  11.583  0.8269  0.3072 -0.1402
 4174TIP3   OH233936   4.222   2.562  14.893  0.6052  0.6265  0.8595
 4174TIP3    H133937   4.227   2.494  14.826 -1.9994  1.3748 -0.2420
 4174TIP3    H233938   4.307   2.606  14.889  2.3709 -2.4117  1.5819
 4175TIP3   OH233939   2.141   3.479  12.137 -0.1670  0.1321 -0.0218
 4175TIP3    H133940   2.113   3.430  12.214  0.2160  0.5389  0.3863
 4175TIP3    H233941   2.128   3.571  12.161 -0.4107  0.2482 -0.5902
 4176TIP3   OH233942   1.436   5.568  13.829  0.3606 -0.3551  0.1573
 4176TIP3    H133943   1.453   5.588  13.737 -1.5180 -1.7896 -0.5540
 4176TIP3    H233944   1.516   5.524  13.858  0.8896 -0.0930 -0.8334
 4177TIP3   OH233945   2.311   4.640  13.234 -0.0575  0.0440 -0.1537
 4177TIP3    H133946   2.390   4.658  13.285 -0.7486 -0.1294  1.0102
 4177TIP3    H233947   2.324   4.687  13.152  1.7425 -0.9088 -0.4443
 4178TIP3   OH233948   6.675   3.490  12.795 -0.0238 -0.0193  0.2597
 4178TIP3    H133949   6.759   3.509  12.754 -0.4068  0.1395 -0.4691
 4178TIP3    H233950   6.688   3.404  12.835  0.8944  0.5786  1.3269
 4179TIP3   OH233951   4.733   5.675   5.604  0.5460  0.3711  0.3275
 4179TIP3    H133952   4.650   5.629   5.591 -0.1543  0.5920  3.3201
 4179TIP3    H233953   4.709   5.767   5.616  1.2193  0.4647  1.0883
 4180TIP3   OH233954   5.564   5.621  13.016  0.2900  0.6312 -0.4148
 4180TIP3    H133955   5.478   5.649  13.048  0.4855  1.7585 -0.8323
 4180TIP3    H233956   5.551   5.604  12.923  0.1374 -0.9014 -0.1432
 4181TIP3   OH233957   5.469   5.232  14.995 -0.0336 -0.4432 -0.5747
 4181TIP3    H133958   5.430   5.314  14.963  1.3248 -0.3851 -2.2360
 4181TIP3    H233959   5.421   5.163  14.949 -0.6316 -0.5494  0.2010
 4182TIP3   OH233960   3.730   4.044   1.425 -0.0541  0.0205 -0.1273
 4182TIP3    H133961   3.726   3.997   1.509 -0.2210 -1.5249 -0.9706
 4182TIP3    H233962   3.644   4.085   1.417 -0.0332  0.1916  0.4581
 4183TIP3   OH233963   1.658   4.712  15.518  0.5510  0.1243  0.4635
 4183TIP3    H133964   1.696   4.626  15.502 -0.1843 -0.0995 -0.1401
 4183TIP3    H233965   1.630   4.742  15.432 -1.3727 -0.0804  0.9674
 4184TIP3   OH233966   4.564   6.283  16.321  0.0243  0.1756 -0.5253
 4184TIP3    H133967   4.598   6.194  16.330 -1.0167 -0.1088  0.7338
 4184TIP3    H233968   4.474   6.278  16.351 -0.1646  1.5951 -0.7903
 4185TIP3   OH233969   1.240   6.540   3.023 -0.1841 -0.2267 -0.0235
 4185TIP3    H133970   1.145   6.535   3.025 -0.1507 -0.8568  1.0260
 4185TIP3    H233971   1.269   6.456   3.060  0.8084 -0.7868 -1.9194
 4186TIP3   OH233972   2.989   2.322   0.411 -0.1276 -0.0119 -0.2988
 4186TIP3    H133973   2.903   2.360   0.427 -0.2478 -1.0501  1.8518
 4186TIP3    H233974   2.971   2.238   0.370 -0.1170 -0.0237 -0.2794
 4187TIP3   OH233975   0.472   2.856  17.066  0.0078  0.2283 -0.2998
 4187TIP3    H133976   0.411   2.801  17.017 -1.0866  1.1181  0.0231
 4187TIP3    H233977   0.546   2.870  17.006 -0.1845 -0.7002 -0.7648
 4188TIP3   OH233978   1.985   3.184  16.371 -0.1541  0.5430  0.5914
 4188TIP3    H133979   1.989   3.224  16.284  0.5584 -0.0874  0.3228
 4188TIP3    H233980   2.039   3.241  16.426 -0.5646  0.9135  0.6240
 4189TIP3   OH233981   3.985   3.395   3.944  0.1493  0.2680 -1.0894
 4189TIP3    H133982   4.000   3.323   3.883  0.5096 -0.3735 -0.2634
 4189TIP3    H233983   4.032   3.469   3.905 -1.9401  0.6992 -3.0316
 4190TIP3   OH233984   5.000   2.722   2.003  0.4964 -0.3007 -0.1280
 4190TIP3    H133985   4.942   2.750   2.075  0.5816  0.3700 -0.3122
 4190TIP3    H233986   4.941   2.707   1.929  0.3658 -1.3527  0.1719
 4191TIP3   OH233987   3.315   6.301  15.640  0.0786  0.2134  0.3374
 4191TIP3    H133988   3.407   6.278  15.625  0.1675  0.5169  0.4151
 4191TIP3    H233989   3.318   6.388  15.680 -0.2777  0.7518 -0.7393
 4192TIP3   OH233990   5.532   2.675  12.587 -0.0944  0.4522 -0.1693
 4192TIP3    H133991   5.603   2.691  12.526  0.2263 -1.0175 -0.2239
 4192TIP3    H233992   5.457   2.652  12.532 -0.5699  1.7563 -0.1009
 4193TIP3   OH233993   5.448   0.364   0.312 -0.2853  0.4890 -0.0906
 4193TIP3    H133994   5.404   0.307   0.249  0.3030 -1.4816  1.2143
 4193TIP3    H233995   5.467   0.444   0.262 -0.8261 -0.5580 -2.0792
 4194TIP3   OH233996   0.664   5.651  16.743  0.2931  0.3719  0.3614
 4194TIP3    H133997   0.638   5.693  16.825 -2.2287  0.2501 -0.3161
 4194TIP3    H233998   0.591   5.595  16.719  0.8974  0.4766 -2.0485
 4195TIP3   OH233999   0.455   6.337  11.956  0.5394  0.0268 -0.0903
 4195TIP3    H134000   0.492   6.282  12.025 -0.4416  0.2016  0.5934
 4195TIP3    H234001   0.529   6.390  11.926  1.0674 -0.3218  0.5540
 4196TIP3   OH234002   5.447   2.594  13.074  0.2286  0.0615 -0.3291
 4196TIP3    H134003   5.460   2.646  12.994 -1.6571  0.0707 -0.6736
 4196TIP3    H234004   5.398   2.517  13.045  1.8300 -1.2949  0.4077
 4197TIP3   OH234005   2.192   5.702   3.659  0.4625 -0.1551 -0.4491
 4197TIP3    H134006   2.197   5.608   3.641  0.0474  0.0361 -1.6938
 4197TIP3    H234007   2.173   5.741   3.574 -1.3024  0.8782  0.3561
 4198TIP3   OH234008   2.297   0.918   5.828 -0.4913 -0.3886 -0.1319
 4198TIP3    H134009   2.330   0.881   5.910 -0.8759  0.9689  0.6587
 4198TIP3    H234010   2.212   0.956   5.850 -0.0271  1.1479 -0.8298
 4199TIP3   OH234011   5.113   5.937  10.543  0.1857  0.2147 -0.2795
 4199TIP3    H134012   5.135   6.030  10.534 -0.5323  0.6493  1.7887
 4199TIP3    H234013   5.196   5.892  10.528  0.4398  1.1367 -1.8188
 4200TIP3   OH234014   5.429   1.565   5.727  0.4737  0.2683  0.4929
 4200TIP3    H134015   5.405   1.475   5.704  0.7903  0.4009 -0.4219
 4200TIP3    H234016   5.445   1.563   5.821  0.4114 -0.6191  0.4894
 4201TIP3   OH234017   1.141   0.025  17.084 -0.8413  0.2754 -0.1977
 4201TIP3    H134018   1.109   0.108  17.049 -1.6524  0.3460  0.6884
 4201TIP3    H234019   1.229   0.045  17.117 -1.2048  0.8954  0.4130
 4202TIP3   OH234020   0.480   4.173  12.351 -0.4218  0.7636  0.7561
 4202TIP3    H134021   0.389   4.186  12.378 -0.6178 -0.1894  0.6190
 4202TIP3    H234022   0.475   4.157  12.257  0.0573  2.1874  0.4747
 4203TIP3   OH234023   4.003   4.160   0.994 -0.3309  0.1245  0.1600
 4203TIP3    H134024   4.032   4.243   1.032 -1.5377  1.3629 -1.4785
 4203TIP3    H234025   4.022   4.167   0.901  0.3645 -1.8417  0.0976
 4204TIP3   OH234026   4.396   6.751  12.022  0.2525 -0.1732  0.5314
 4204TIP3    H134027   4.328   6.723  11.961 -0.7698  1.0761  1.0573
 4204TIP3    H234028   4.444   6.819  11.976  0.5549 -0.4025  0.5047
 4205TIP3   OH234029   2.609   3.877  10.614  0.5079 -0.2253 -0.3901
 4205TIP3    H134030   2.548   3.949  10.597  0.4873 -0.6604 -2.3410
 4205TIP3    H234031   2.553   3.799  10.621  0.7519 -0.5083 -1.4276
 4206TIP3   OH234032   4.152   1.327  10.576  0.2163 -0.1883 -0.0723
 4206TIP3    H134033   4.169   1.421  10.573  0.9082 -0.3280 -1.1590
 4206TIP3    H234034   4.239   1.286  10.572 -0.1371 -0.8816 -1.9918
 4207TIP3   OH234035   6.357   5.426  13.960  0.3894 -0.4030 -0.0881
 4207TIP3    H134036   6.441   5.402  13.921  0.6037  0.4689 -0.1813
 4207TIP3    H234037   6.295   5.361  13.926  0.2674  1.0894 -3.0148
 4208TIP3   OH234038   2.222   6.631  15.608 -0.2800  0.0071  0.3019
 4208TIP3    H134039   2.239   6.623  15.702 -0.4099  2.9095  0.6652
 4208TIP3    H234040   2.146   6.576  15.592  0.8118 -1.9552  1.4923
 4209TIP3   OH234041   4.397   3.257   0.878  0.3526  0.0231 -0.2145
 4209TIP3    H134042   4.404   3.317   0.804 -1.0524 -1.5999 -1.7752
 4209TIP3    H234043   4.303   3.250   0.894  0.6275  0.4564  1.8942
 4210TIP3   OH234044   6.458   5.473   3.554 -0.1021  0.2092 -0.5426
 4210TIP3    H134045   6.414   5.534   3.495 -0.0464  0.2956 -0.4968
 4210TIP3    H234046   6.424   5.497   3.641  1.5653  1.6758 -0.2324
 4211TIP3   OH234047   5.343   0.976   0.579 -0.2481 -0.3099  0.3465
 4211TIP3    H134048   5.364   1.057   0.626 -1.9475  1.7292 -2.1669
 4211TIP3    H234049   5.248   0.968   0.587 -0.1968 -1.5943 -0.1652
 4212TIP3   OH234050   4.547   0.122   3.845 -0.4536  0.3458 -0.2926
 4212TIP3    H134051   4.628   0.075   3.825 -0.3261 -0.0885  1.1591
 4212TIP3    H234052   4.542   0.190   3.777 -0.2904 -1.2763 -2.0192
 4213TIP3   OH234053   5.556   2.246   1.192 -0.1750 -0.3814 -0.0372
 4213TIP3    H134054   5.532   2.167   1.144  0.2816  0.4213 -1.6458
 4213TIP3    H234055   5.571   2.312   1.125  2.0225  0.3965  1.1051
 4214TIP3   OH234056   2.114   6.697   0.045  0.1982 -0.1987 -0.7055
 4214TIP3    H134057   2.100   6.769  -0.017 -2.5302  0.9044  1.0217
 4214TIP3    H234058   2.074   6.728   0.126  2.2599 -2.2070  1.2180
 4215TIP3   OH234059   0.450   5.687   5.871  0.4420 -0.2000 -0.1425
 4215TIP3    H134060   0.476   5.740   5.947 -0.1485 -0.8691  0.5456
 4215TIP3    H234061   0.372   5.640   5.901  1.0608 -1.6074 -0.6618
 4216TIP3   OH234062   4.549   2.821   0.680  0.3854 -0.4816 -0.3816
 4216TIP3    H134063   4.569   2.914   0.690 -0.1092 -0.4330  0.2095
 4216TIP3    H234064   4.614   2.777   0.735  1.5670 -0.5917 -1.8068
 4217TIP3   OH234065   1.608   2.570  13.041 -0.2694 -0.8372 -0.8306
 4217TIP3    H134066   1.678   2.516  13.077 -0.9051 -1.2706 -0.2346
 4217TIP3    H234067   1.580   2.524  12.963 -0.5318 -1.1563 -0.5484
 4218TIP3   OH234068   0.016   4.265   0.154  0.0266  0.3763  0.2361
 4218TIP3    H134069  -0.006   4.244   0.063 -1.3458  0.1328  0.6072
 4218TIP3    H234070   0.077   4.196   0.180  0.2413  0.3118 -0.4248
 4219TIP3   OH234071   1.661   3.388   1.747  0.1245 -0.0038 -0.3613
 4219TIP3    H134072   1.689   3.430   1.666  1.0441  1.6401  0.7567
 4219TIP3    H234073   1.707   3.304   1.748  2.2361  1.1026 -0.3033
 4220TIP3   OH234074   0.600   6.295  13.909  0.4157 -0.4108  0.7759
 4220TIP3    H134075   0.672   6.239  13.939  1.4221  1.0120  1.1595
 4220TIP3    H234076   0.609   6.375  13.962 -1.3167 -0.1087  0.6543
 4221TIP3   OH234077   3.993   5.793   1.729 -0.2449  0.2031 -0.1459
 4221TIP3    H134078   4.042   5.804   1.648  1.1864 -0.7664  0.5549
 4221TIP3    H234079   3.904   5.772   1.701 -0.2926  1.9351 -1.4449
 4222TIP3   OH234080   1.453   5.532   4.803  0.0056  0.5426 -0.8472
 4222TIP3    H134081   1.435   5.622   4.831 -1.6792  0.2176 -0.7988
 4222TIP3    H234082   1.548   5.528   4.795  0.0701  2.5218 -1.5127
 4223TIP3   OH234083   3.718   5.757  11.977 -0.5964  0.2337 -0.2378
 4223TIP3    H134084   3.800   5.723  12.012 -0.2674  0.7434 -0.5058
 4223TIP3    H234085   3.650   5.703  12.018 -0.1251 -0.2368 -0.0729
 4224TIP3   OH234086   3.748   4.316   5.334 -0.6668 -0.0853 -0.2270
 4224TIP3    H134087   3.805   4.256   5.287 -0.3090 -1.0088  1.3218
 4224TIP3    H234088   3.668   4.320   5.281 -0.4292 -1.3694 -0.7120
 4225TIP3   OH234089   4.916   2.797  10.951 -0.2124  0.6141  0.2528
 4225TIP3    H134090   4.949   2.814  10.863 -0.8490  1.8197  0.2295
 4225TIP3    H234091   4.920   2.702  10.960  3.7308  0.6191  0.4324
 4226TIP3   OH234092   0.632   3.200   0.798  0.0253 -0.4121 -0.8880
 4226TIP3    H134093   0.697   3.247   0.850  0.5391 -1.4567 -0.5499
 4226TIP3    H234094   0.576   3.268   0.762  0.7831  0.4518 -0.4715
 4227TIP3   OH234095   6.178   4.680  11.951  0.4966 -0.3499 -0.5273
 4227TIP3    H134096   6.107   4.616  11.952  0.8094 -0.8019  2.5305
 4227TIP3    H234097   6.236   4.650  11.881 -0.8784 -1.5799 -1.2109
 4228TIP3   OH234098   4.393   4.018   1.457  0.5625 -0.6299 -0.1766
 4228TIP3    H134099   4.413   3.937   1.412  0.2617 -0.6275 -0.3199
 4228TIP3    H234100   4.469   4.074   1.444  0.0485 -0.2230 -1.6020
 4229TIP3   OH234101   4.697   4.898   6.147 -0.3495 -0.1565  0.0293
 4229TIP3    H134102   4.656   4.969   6.098 -1.0609 -0.6174 -0.0670
 4229TIP3    H234103   4.663   4.908   6.236 -2.3731 -1.7621 -0.4946
 4230TIP3   OH234104   4.933   5.870   0.229 -0.2667  0.2496  0.2113
 4230TIP3    H134105   4.868   5.931   0.196 -1.4907 -0.2677  1.5582
 4230TIP3    H234106   4.903   5.847   0.317  2.1881  0.6385  1.2562
 4231TIP3   OH234107   6.775   2.971   3.538 -0.0742  0.2460 -0.1844
 4231TIP3    H134108   6.790   2.934   3.451 -0.2784  1.3252 -0.6975
 4231TIP3    H234109   6.682   2.990   3.540 -0.0340  0.4097  0.2038
 4232TIP3   OH234110   3.039   3.744  11.151  0.0528  0.5027  0.1966
 4232TIP3    H134111   3.077   3.787  11.228 -0.0297 -0.8637  1.0218
 4232TIP3    H234112   2.977   3.681  11.186 -0.5159  0.3487 -1.0304
 4233TIP3   OH234113   0.301   3.662   2.747  0.0595  0.0178  0.3280
 4233TIP3    H134114   0.387   3.702   2.730 -0.2904  0.3351 -0.8023
 4233TIP3    H234115   0.258   3.660   2.661 -1.4858  0.8593  1.0312
 4234TIP3   OH234116   2.710   0.875  13.298 -0.2662  0.5835 -0.0415
 4234TIP3    H134117   2.664   0.940  13.245  1.6971  0.0576 -2.5548
 4234TIP3    H234118   2.655   0.797  13.291 -0.9044  0.9974  0.1856
 4235TIP3   OH234119   0.820   1.530  16.656 -0.0025  0.1919  0.7110
 4235TIP3    H134120   0.881   1.592  16.616 -1.0423  1.4156  0.9814
 4235TIP3    H234121   0.791   1.475  16.582  0.7669  0.1477  0.4329
 4236TIP3   OH234122   1.260   3.176   5.833 -0.5262 -0.0391 -0.2859
 4236TIP3    H134123   1.261   3.085   5.862 -2.0283  0.1180  0.3625
 4236TIP3    H234124   1.306   3.224   5.902  2.9414 -0.5872 -2.0042
 4237TIP3   OH234125   1.079   1.119   5.093  0.1602  0.0737 -0.1439
 4237TIP3    H134126   1.048   1.108   5.182  0.0269  1.9255  0.0760
 4237TIP3    H234127   1.168   1.152   5.102  0.3108 -0.1583 -0.7032
 4238TIP3   OH234128   5.788   1.777  13.272  0.4634 -0.5390 -0.6630
 4238TIP3    H134129   5.813   1.850  13.215 -0.8758  0.4375 -0.0506
 4238TIP3    H234130   5.692   1.782  13.276  0.4051 -1.8832 -0.0073
 4239TIP3   OH234131   2.059   1.023  11.489  0.0883  0.6751  0.1180
 4239TIP3    H134132   2.084   1.100  11.540  0.7780  0.3049  0.3476
 4239TIP3    H234133   2.122   0.956  11.514  0.6241  0.5630 -1.4369
 4240TIP3   OH234134   3.967   3.166   4.437 -0.3179 -0.4701  0.2777
 4240TIP3    H134135   3.986   3.172   4.344  1.1861 -0.8581  0.5327
 4240TIP3    H234136   3.921   3.082   4.447 -0.3560 -0.4936 -0.0898
 4241TIP3   OH234137   2.226   0.388   0.367  0.5912 -0.0702 -1.0885
 4241TIP3    H134138   2.284   0.373   0.442  1.3982  0.5699 -1.5730
 4241TIP3    H234139   2.158   0.447   0.400 -1.3355 -2.7943  0.2107
 4242TIP3   OH234140   4.396   5.816  14.572  0.0053  0.4296 -0.2008
 4242TIP3    H134141   4.458   5.866  14.625  0.9588 -0.0803 -0.8118
 4242TIP3    H234142   4.422   5.834  14.481  1.8819 -2.8655 -0.5006
 4243TIP3   OH234143   6.669   5.271   3.057  0.3563  0.1659 -0.4717
 4243TIP3    H134144   6.706   5.352   3.021  0.2457  0.7989  0.7844
 4243TIP3    H234145   6.672   5.209   2.984  1.3295  1.0147 -1.1815
 4244TIP3   OH234146   3.414   2.805  15.348 -0.2512 -0.4078 -0.1024
 4244TIP3    H134147   3.458   2.721  15.360 -0.5146 -0.5410 -0.0756
 4244TIP3    H234148   3.395   2.809  15.254 -1.4602 -0.9874  0.1041
 4245TIP3   OH234149   1.735   4.908  15.710  0.0456  0.1561  0.0596
 4245TIP3    H134150   1.680   4.854  15.765 -0.0769  0.4353  0.2119
 4245TIP3    H234151   1.736   4.864  15.625  1.0155 -0.8036  0.5432
 4246TIP3   OH234152   3.990   6.033   2.296 -0.2652 -0.0402  0.2370
 4246TIP3    H134153   4.076   6.003   2.325 -0.2195  1.2183  1.5232
 4246TIP3    H234154   3.929   5.969   2.332 -0.0079  0.1587  1.0437
 4247TIP3   OH234155   2.552   2.458  14.140  0.7738 -0.1136  0.0222
 4247TIP3    H134156   2.550   2.457  14.044 -0.7609 -1.6154  0.0321
 4247TIP3    H234157   2.474   2.507  14.165  0.5227 -0.7506  0.5003
 4248TIP3   OH234158   2.076   2.001   2.096  0.8024 -0.5489 -0.6655
 4248TIP3    H134159   1.986   2.033   2.089  1.0783  0.4237 -0.0415
 4248TIP3    H234160   2.081   1.964   2.184  0.8588 -1.1288 -0.9103
 4249TIP3   OH234161   4.270   0.851   3.562  0.5633  0.3435  0.3637
 4249TIP3    H134162   4.360   0.883   3.571  0.3107  1.2140 -0.1199
 4249TIP3    H234163   4.258   0.840   3.468 -0.1701  1.2550  0.3377
 4250TIP3   OH234164   5.306   0.190   2.866  0.4737 -0.7370  0.0825
 4250TIP3    H134165   5.285   0.124   2.932 -0.5413 -1.8772 -1.3494
 4250TIP3    H234166   5.401   0.201   2.874  0.5522 -1.7917  0.8631
 4251TIP3   OH234167   3.317   2.821   3.847  0.2353 -0.5605  0.1308
 4251TIP3    H134168   3.275   2.829   3.933  0.2691  0.8736  0.0396
 4251TIP3    H234169   3.252   2.856   3.786  0.6178 -0.6187 -0.3115
 4252TIP3   OH234170   0.062   1.981   0.446 -0.2584 -0.8434  0.0754
 4252TIP3    H134171   0.085   1.891   0.423 -2.2709 -1.6423  0.9433
 4252TIP3    H234172   0.068   1.984   0.542 -1.2513 -0.3853  0.1325
 4253TIP3   OH234173   0.547   4.627  15.824  0.0802 -0.3669 -0.0133
 4253TIP3    H134174   0.584   4.595  15.742 -0.2462 -0.8837  0.0335
 4253TIP3    H234175   0.476   4.685  15.797 -0.0371 -0.5490 -0.1042
 4254TIP3   OH234176   5.499   5.067   5.553 -0.0265 -0.2878  0.4313
 4254TIP3    H134177   5.407   5.041   5.559 -0.5645  1.7229  2.0730
 4254TIP3    H234178   5.516   5.114   5.635  1.6475  1.8401 -1.0259
 4255TIP3   OH234179   4.399   4.913   1.626 -0.6089 -0.0498  0.1354
 4255TIP3    H134180   4.490   4.942   1.624 -1.0398  1.2977 -1.5476
 4255TIP3    H234181   4.398   4.833   1.573 -0.5134  0.2573 -0.3306
 4256TIP3   OH234182   0.600   2.749   2.024  0.6205 -0.2669  0.0897
 4256TIP3    H134183   0.611   2.838   2.058 -0.0116 -0.2374  0.2345
 4256TIP3    H234184   0.507   2.730   2.038  0.5985 -0.6829 -0.5918
 4257TIP3   OH234185   4.074   1.506  14.155 -0.2044 -0.3404  0.3564
 4257TIP3    H134186   4.017   1.430  14.164  0.4542 -0.9819 -0.6164
 4257TIP3    H234187   4.102   1.504  14.063 -1.0519  1.7344  0.0123
 4258TIP3   OH234188   3.511   4.860  11.419  0.0985 -0.2308  0.1118
 4258TIP3    H134189   3.535   4.864  11.327  0.1763  0.9752  0.1635
 4258TIP3    H234190   3.586   4.817  11.462 -0.2847 -1.5126 -0.4817
 4259TIP3   OH234191   6.428   3.488   1.800 -0.2997 -0.2915 -0.0061
 4259TIP3    H134192   6.464   3.529   1.722 -2.1747 -0.1797 -0.8517
 4259TIP3    H234193   6.444   3.394   1.786  1.2802 -0.1422  0.5271
 4260TIP3   OH234194   1.657   0.323  12.510  0.1331 -0.0003 -0.5079
 4260TIP3    H134195   1.590   0.389  12.490 -0.4713 -0.7762 -1.1598
 4260TIP3    H234196   1.607   0.245  12.533  0.8344  0.0422  1.3358
 4261TIP3   OH234197   4.749   2.804  14.575  0.1720 -0.2760  0.0084
 4261TIP3    H134198   4.746   2.899  14.590  0.1029 -0.6757  3.4377
 4261TIP3    H234199   4.662   2.782  14.543 -0.5550  0.6258  1.2383
 4262TIP3   OH234200   2.575   1.832  16.516 -0.7680  0.2189  0.4246
 4262TIP3    H134201   2.556   1.739  16.518 -1.1531  0.2926  0.2416
 4262TIP3    H234202   2.628   1.844  16.437 -0.6183  0.1367  0.5130
 4263TIP3   OH234203   2.633   4.256   1.722 -0.0820  0.4684 -0.0825
 4263TIP3    H134204   2.628   4.193   1.651  0.4515  1.0625 -0.6596
 4263TIP3    H234205   2.618   4.205   1.801  0.9420 -0.5040 -0.4876
 4264TIP3   OH234206   5.371   0.417  15.698  0.3030  0.1570 -0.0827
 4264TIP3    H134207   5.302   0.483  15.690 -2.0010 -1.8394  1.8075
 4264TIP3    H234208   5.397   0.421  15.790 -0.1475 -1.7920  0.1523
 4265TIP3   OH234209   1.062   6.131  15.097 -0.3694  0.2662 -0.3398
 4265TIP3    H134210   1.011   6.131  15.178 -0.2958  0.8499 -0.2889
 4265TIP3    H234211   1.146   6.172  15.121 -1.0520  2.2567 -1.1245
 4266TIP3   OH234212   3.828   1.532   0.075  0.4819  0.2357  0.1229
 4266TIP3    H134213   3.793   1.444   0.065 -2.6909  1.4813 -1.0897
 4266TIP3    H234214   3.832   1.546   0.169 -0.6196 -0.6253  0.3189
 4267TIP3   OH234215   2.775   3.832  12.087  0.5589 -0.1116  0.0510
 4267TIP3    H134216   2.816   3.759  12.132  0.3304 -0.0088  0.4326
 4267TIP3    H234217   2.839   3.903  12.092  0.7142 -0.2331 -0.1791
 4268TIP3   OH234218   1.272   4.461  11.549  0.5455 -0.0867 -0.0024
 4268TIP3    H134219   1.340   4.522  11.522  0.5957 -0.3693 -0.5466
 4268TIP3    H234220   1.190   4.504  11.523  0.4798  0.4595  1.0714
 4269TIP3   OH234221   5.296   0.131  10.269  0.7092  0.1199  0.1758
 4269TIP3    H134222   5.268   0.047  10.233  0.0127  0.0585  0.8485
 4269TIP3    H234223   5.216   0.172  10.300  1.2020  0.4716  1.0205
 4270TIP3   OH234224   1.457   1.292   3.465  0.2756  0.5041  0.3323
 4270TIP3    H134225   1.524   1.254   3.521 -0.6240  2.2394  2.7153
 4270TIP3    H234226   1.479   1.385   3.460 -1.2651  0.8848  0.1449
 4271TIP3   OH234227   5.948   1.815  11.579 -0.0137  0.4236  0.3426
 4271TIP3    H134228   5.860   1.843  11.555 -0.8362  0.1509  2.7788
 4271TIP3    H234229   5.942   1.793  11.672  2.4740 -0.2669  0.4164
 4272TIP3   OH234230   4.960   6.547   5.274  0.3822 -0.0062  0.4644
 4272TIP3    H134231   4.894   6.480   5.257 -0.2433  0.7527 -0.1459
 4272TIP3    H234232   4.970   6.592   5.190  2.9028 -1.1636  0.0233
 4273TIP3   OH234233   3.837   6.203   3.288  0.2208  0.9944  0.3447
 4273TIP3    H134234   3.828   6.297   3.270 -2.0108  0.8550  0.4431
 4273TIP3    H234235   3.761   6.182   3.342  0.0850 -1.0908 -0.5799
 4274TIP3   OH234236   6.155   0.041  12.556  0.5864 -0.5545 -0.0903
 4274TIP3    H134237   6.232   0.012  12.508 -0.0585 -0.2198 -1.3706
 4274TIP3    H234238   6.081   0.005  12.507 -0.1917  2.0389 -0.9822
 4275TIP3   OH234239   1.474   2.422  17.272  0.2409 -0.6352  0.4231
 4275TIP3    H134240   1.426   2.504  17.287 -1.1798 -1.5704  1.2863
 4275TIP3    H234241   1.464   2.406  17.178 -0.7450 -0.5627  0.5055
 4276TIP3   OH234242   5.721   6.520   2.514  0.3646 -0.0393 -0.1879
 4276TIP3    H134243   5.719   6.615   2.504  0.2020 -0.0434 -0.2054
 4276TIP3    H234244   5.634   6.498   2.546 -0.2459 -0.3726 -1.9558
 4277TIP3   OH234245   3.866   3.756   3.572  0.5667  0.4721  0.3728
 4277TIP3    H134246   3.845   3.752   3.479 -0.6121  2.7306  0.4721
 4277TIP3    H234247   3.828   3.676   3.609  0.2659 -0.0158 -0.9366
 4278TIP3   OH234248   0.545   2.037  14.604  0.3171 -0.1623 -0.1335
 4278TIP3    H134249   0.532   2.010  14.695 -0.0946 -0.4782 -0.2843
 4278TIP3    H234250   0.629   2.084  14.605  0.6754 -0.7881  0.2772
 4279TIP3   OH234251   3.340   6.599  11.863  0.3266  0.1778  0.1259
 4279TIP3    H134252   3.265   6.582  11.806 -1.0454  1.6244  1.4036
 4279TIP3    H234253   3.316   6.559  11.946  0.9788  0.6379  0.5434
 4280TIP3   OH234254   3.268   4.785  16.811  0.0391  0.3090  0.1074
 4280TIP3    H134255   3.316   4.711  16.775  1.0022  0.8730  0.1930
 4280TIP3    H234256   3.194   4.746  16.858  0.1837 -0.5538 -0.3647
 4281TIP3   OH234257   3.445   4.361  14.756 -0.0535 -0.1560 -0.0919
 4281TIP3    H134258   3.506   4.401  14.694 -0.0845  0.2608  0.1440
 4281TIP3    H234259   3.501   4.309  14.813  0.0079 -0.3089 -0.2888
 4282TIP3   OH234260   6.369   2.460  13.887  0.5100 -0.4105 -0.3954
 4282TIP3    H134261   6.422   2.412  13.823  2.7613  0.7674  0.4784
 4282TIP3    H234262   6.427   2.472  13.962 -0.2157  2.8002 -0.2080
 4283TIP3   OH234263   3.249   1.915  13.424  0.6301 -0.1654  0.1878
 4283TIP3    H134264   3.253   1.963  13.507  1.0428  1.2817 -0.6348
 4283TIP3    H234265   3.337   1.920  13.389  0.6677 -1.5240  0.0513
 4284TIP3   OH234266   3.605   3.657  15.739 -0.1604 -0.1110 -1.0046
 4284TIP3    H134267   3.542   3.625  15.804  1.2056 -0.8209  0.0129
 4284TIP3    H234268   3.676   3.695  15.790  0.3826  0.4328 -2.1186
 4285TIP3   OH234269   3.888   1.661   3.799 -0.2342 -0.2860 -0.1199
 4285TIP3    H134270   3.892   1.569   3.774 -0.2986 -0.5056  0.6601
 4285TIP3    H234271   3.928   1.708   3.725  1.2250 -1.0664  0.1400
 4286TIP3   OH234272   4.962   6.170   5.151 -0.5779  0.1720 -0.1490
 4286TIP3    H134273   4.993   6.116   5.223 -1.6919 -0.3048 -0.0028
 4286TIP3    H234274   4.898   6.230   5.191 -0.0150  1.0019 -0.4624
 4287TIP3   OH234275   2.360   6.098  11.915 -0.1108 -0.6461 -0.5150
 4287TIP3    H134276   2.276   6.103  11.870 -1.3614  1.7549  1.8510
 4287TIP3    H234277   2.343   6.048  11.994 -0.2912  2.5134  1.6245
 4288TIP3   OH234278   5.257   4.276   5.495  0.6118  0.0842  0.7434
 4288TIP3    H134279   5.304   4.358   5.489  0.2320  0.2333 -0.4707
 4288TIP3    H234280   5.322   4.208   5.476  1.0495  0.0499  2.2931
 4289TIP3   OH234281   4.083   2.655  16.379  0.0503 -0.3510  0.0498
 4289TIP3    H134282   4.171   2.618  16.379  0.2332  0.0724 -0.1174
 4289TIP3    H234283   4.060   2.663  16.286 -0.0170 -0.1267  0.0842
 4290TIP3   OH234284   5.080   1.361   0.115 -0.0676  0.4492  0.1874
 4290TIP3    H134285   5.012   1.426   0.130  0.7293  0.9783  1.7519
 4290TIP3    H234286   5.113   1.340   0.203  0.9361 -0.7152 -0.4302
 4291TIP3   OH234287   2.773   5.774  14.036 -0.1965 -0.0496 -0.2514
 4291TIP3    H134288   2.782   5.757  13.943  0.0932 -0.7402 -0.1057
 4291TIP3    H234289   2.734   5.861  14.041  0.1753  0.1701 -1.0068
 4292TIP3   OH234290   2.765   0.406   5.938  0.4518 -0.1969  0.2027
 4292TIP3    H134291   2.697   0.474   5.944  0.6232  0.3152 -2.5102
 4292TIP3    H234292   2.833   0.435   6.000 -0.7430  0.5158  1.2392
 4293TIP3   OH234293   2.517   0.453  14.423 -0.1022 -0.1149  0.3011
 4293TIP3    H134294   2.547   0.366  14.397 -1.2708 -0.4058 -0.1252
 4293TIP3    H234295   2.586   0.512  14.392 -0.6095 -0.6136 -1.9545
 4294TIP3   OH234296   3.545   4.635   4.261 -0.7818  0.0465  0.4820
 4294TIP3    H134297   3.513   4.723   4.282 -0.2405 -0.0318  1.7574
 4294TIP3    H234298   3.592   4.646   4.178 -1.3067  0.8181  0.2734
 4295TIP3   OH234299   2.037   3.355  11.895  0.2532  0.0153 -0.2472
 4295TIP3    H134300   1.946   3.327  11.880  0.1883 -0.1752  0.4533
 4295TIP3    H234301   2.036   3.391  11.983  0.7922  0.3216 -0.3672
 4296TIP3   OH234302   2.146   3.930   1.556  0.3092 -0.0336  0.0470
 4296TIP3    H134303   2.057   3.896   1.551 -0.0189 -0.2248  4.1729
 4296TIP3    H234304   2.202   3.857   1.529 -0.6927 -0.8423  0.1141
 4297TIP3   OH234305   6.422   5.392  13.461 -0.0489 -0.4039 -0.0158
 4297TIP3    H134306   6.332   5.424  13.465 -0.2351 -1.0189  3.4853
 4297TIP3    H234307   6.472   5.454  13.515  1.2866 -1.1021 -0.4068
 4298TIP3   OH234308   1.240   3.550   5.504 -0.1562  0.2285 -0.5055
 4298TIP3    H134309   1.157   3.509   5.526 -0.8246  1.8201  0.0636
 4298TIP3    H234310   1.306   3.495   5.545 -1.0086 -0.3357  0.1291
 4299TIP3   OH234311   5.584   3.509   4.262 -0.5827  0.0011 -0.4046
 4299TIP3    H134312   5.567   3.472   4.349  0.8372  0.1543 -0.0342
 4299TIP3    H234313   5.509   3.566   4.245 -1.8736 -1.5613 -0.1722
 4300TIP3   OH234314   1.813   3.660  12.661  0.3181 -0.2915  0.5086
 4300TIP3    H134315   1.736   3.694  12.706  0.4230 -0.5830  0.9190
 4300TIP3    H234316   1.832   3.577  12.706 -0.8074 -1.6493 -1.4040
 4301TIP3   OH234317   2.147   5.220   3.741 -0.3503  0.9583  0.7661
 4301TIP3    H134318   2.134   5.301   3.692 -1.7978  1.0166  1.1828
 4301TIP3    H234319   2.065   5.171   3.729  0.4936 -0.4577  0.5199
 4302TIP3   OH234320   3.845   1.933  16.808 -0.1055  0.1641  0.2667
 4302TIP3    H134321   3.787   1.957  16.736 -2.0046 -0.1507  1.6322
 4302TIP3    H234322   3.823   1.993  16.878  0.9666 -0.2219  0.9613
 4303TIP3   OH234323   3.005   3.999  12.215 -0.2597 -0.0366 -0.0576
 4303TIP3    H134324   3.080   3.969  12.267 -0.1556  0.9881  0.4056
 4303TIP3    H234325   2.945   4.036  12.279 -1.6802 -1.8149 -0.2937
 4304TIP3   OH234326   6.743   3.049   0.908 -0.0031 -0.1592 -0.6031
 4304TIP3    H134327   6.656   3.018   0.882 -0.3189  1.3867 -1.5339
 4304TIP3    H234328   6.802   3.012   0.843 -0.0066 -0.8946 -0.1971
 4305TIP3   OH234329   0.927   3.711   4.580  0.1521 -0.1953 -0.0068
 4305TIP3    H134330   0.867   3.649   4.539  0.2875  0.8641 -1.9136
 4305TIP3    H234331   0.878   3.744   4.656 -0.6047 -1.2826  0.0144
 4306TIP3   OH234332   0.626   4.059   2.028 -0.0692  0.1427  0.0124
 4306TIP3    H134333   0.593   4.146   2.005 -0.2370  0.1888  0.4300
 4306TIP3    H234334   0.548   4.004   2.031 -0.4021  0.6194  2.7634
 4307TIP3   OH234335   0.511   5.084  11.662  0.0080  0.1254  0.9791
 4307TIP3    H134336   0.591   5.108  11.709  0.5828 -1.6149  0.9842
 4307TIP3    H234337   0.482   5.004  11.705 -0.9161 -0.0729  0.0173
 4308TIP3   OH234338   5.187   4.953  14.078 -0.2104  0.1285 -0.1869
 4308TIP3    H134339   5.145   4.883  14.027 -0.5811 -1.0144  1.5959
 4308TIP3    H234340   5.142   5.033  14.050  0.3168 -0.2549 -2.3796
 4309TIP3   OH234341   6.498   3.908  14.936  0.0983  0.4298  0.5365
 4309TIP3    H134342   6.402   3.905  14.936  0.0984 -0.0694 -0.1585
 4309TIP3    H234343   6.521   3.968  15.007 -0.7124  0.1050  1.0893
 4310TIP3   OH234344   6.525   2.842   1.350 -0.0568  0.0015  0.0840
 4310TIP3    H134345   6.480   2.820   1.269  0.5365 -1.6335  0.1515
 4310TIP3    H234346   6.597   2.899   1.323  1.0964 -1.7951 -0.8146
 4311TIP3   OH234347   6.098   6.018   3.855 -0.0396 -0.1652  0.0092
 4311TIP3    H134348   6.192   5.998   3.855  0.3422  1.4475  0.6344
 4311TIP3    H234349   6.070   6.002   3.765  0.8398 -0.5869 -0.2077
 4312TIP3   OH234350   0.222   5.261   0.308  0.2174 -0.3625  0.6343
 4312TIP3    H134351   0.144   5.228   0.351  0.7402  2.5461  4.3011
 4312TIP3    H234352   0.294   5.214   0.350  0.6147  0.0639  0.4369
 4313TIP3   OH234353   6.772   5.625  11.705 -0.1600 -0.0468  0.4206
 4313TIP3    H134354   6.795   5.591  11.619 -4.5601 -0.6467 -0.7443
 4313TIP3    H234355   6.753   5.718  11.690  0.2377  0.1459  1.0542
 4314TIP3   OH234356   5.972   5.880   2.536 -0.9059 -0.0674 -1.0359
 4314TIP3    H134357   5.887   5.906   2.499 -0.4994 -0.6619 -2.4393
 4314TIP3    H234358   6.035   5.896   2.466  0.0161 -0.4932 -0.3222
 4315TIP3   OH234359   3.151   3.967  10.508 -0.1392 -0.5559 -0.5751
 4315TIP3    H134360   3.239   4.005  10.504 -0.0046 -0.9329 -1.6075
 4315TIP3    H234361   3.093   4.042  10.521  0.4684 -0.5128  2.4947
 4316TIP3   OH234362   1.035   2.830   0.410 -0.1237  0.3348  0.0447
 4316TIP3    H134363   1.064   2.921   0.412 -0.4557  0.4393  1.4187
 4316TIP3    H234364   1.006   2.812   0.500  0.9832 -1.4550  0.1028
 4317TIP3   OH234365   1.261   0.870  17.079 -0.4718 -0.5740  0.2539
 4317TIP3    H134366   1.220   0.895  16.996  1.7727 -2.5132 -1.5710
 4317TIP3    H234367   1.341   0.923  17.083  0.1478 -1.5075  0.4595
 4318TIP3   OH234368   0.828   2.744  12.424  0.5512 -0.0741 -0.2292
 4318TIP3    H134369   0.756   2.684  12.405 -0.0911  0.5249  0.2281
 4318TIP3    H234370   0.907   2.697  12.398  0.0521 -1.0442 -0.0347
 4319TIP3   OH234371   0.525   4.390  15.964 -0.3047 -0.4793  0.4578
 4319TIP3    H134372   0.483   4.429  16.041  0.2766 -0.3147  0.6971
 4319TIP3    H234373   0.546   4.465  15.908 -0.8831 -0.6126  0.0553
 4320TIP3   OH234374   6.251   2.160   0.107 -0.0198  0.1209  0.5004
 4320TIP3    H134375   6.279   2.228   0.169 -0.3090  0.1568  0.5904
 4320TIP3    H234376   6.216   2.090   0.163  0.5342 -0.2238  0.4262
 4321TIP3   OH234377   3.467   5.574  14.443 -0.7892  0.3695 -0.3982
 4321TIP3    H134378   3.436   5.560  14.533 -1.2587  0.8222 -0.4833
 4321TIP3    H234379   3.410   5.643  14.409  1.4574  2.5445  0.0104
 4322TIP3   OH234380   1.042   4.461  15.632 -0.2088  0.3314  0.0105
 4322TIP3    H134381   0.975   4.444  15.566  0.6115 -0.8959 -0.5546
 4322TIP3    H234382   1.084   4.376  15.645  1.3772  1.1049  0.1848
 4323TIP3   OH234383   3.489   6.404   1.518  0.3521  0.3150 -0.2459
 4323TIP3    H134384   3.402   6.389   1.554 -0.0988  2.0460 -0.5272
 4323TIP3    H234385   3.489   6.496   1.491  1.2776 -0.3739 -2.9508
 4324TIP3   OH234386   2.542   3.200  11.809 -0.4800 -0.1323  0.5641
 4324TIP3    H134387   2.458   3.195  11.764 -1.2611  0.4584  1.9122
 4324TIP3    H234388   2.539   3.283  11.857  1.5330  0.6796 -0.6035
 4325TIP3   OH234389   0.724   2.206  15.515  0.2999  0.6536  0.0474
 4325TIP3    H134390   0.764   2.286  15.549  0.2235  0.8479 -0.3021
 4325TIP3    H234391   0.658   2.182  15.580 -1.0179  1.9659 -0.7361
 4326TIP3   OH234392   0.274   0.998   6.572 -0.7314  0.5383 -0.6401
 4326TIP3    H134393   0.224   0.917   6.586 -0.6583  0.4747 -0.7525
 4326TIP3    H234394   0.211   1.058   6.532 -1.0220  0.8096  0.1895
 4327TIP3   OH234395   4.351   1.689  14.560  0.1350  0.1601  0.1607
 4327TIP3    H134396   4.293   1.672  14.486 -0.9221  1.1369  0.7148
 4327TIP3    H234397   4.291   1.713  14.631  1.2138  0.9297  0.8370
 4328TIP3   OH234398   3.684   3.318  11.193  0.1023  0.1023  0.6773
 4328TIP3    H134399   3.622   3.347  11.260  1.6049  0.0169  2.1843
 4328TIP3    H234400   3.632   3.312  11.113 -1.6211  0.8636  1.6780
 4329TIP3   OH234401   1.243   6.439  11.451  0.6088  0.0617 -0.2829
 4329TIP3    H134402   1.294   6.405  11.525 -0.9032  0.3907  0.9710
 4329TIP3    H234403   1.308   6.466  11.387  2.2084  2.4919  2.1191
 4330TIP3   OH234404   4.183   0.590   1.111  0.0357  0.0033  0.3701
 4330TIP3    H134405   4.223   0.641   1.040 -0.3472  1.1617  0.9578
 4330TIP3    H234406   4.216   0.631   1.191  0.6797 -1.4554  0.9002
 4331TIP3   OH234407   4.002   0.850   6.132  0.4461 -0.1337  0.5858
 4331TIP3    H134408   3.981   0.767   6.175  1.1081 -0.6446 -0.0573
 4331TIP3    H234409   3.948   0.850   6.053  0.9536 -0.2668  0.2389
 4332TIP3   OH234410   3.394   4.615   0.492 -0.6538  0.6185 -0.0322
 4332TIP3    H134411   3.308   4.631   0.531 -0.5410  1.8593 -0.2407
 4332TIP3    H234412   3.403   4.682   0.425  0.3127  0.2517 -0.2922
 4333TIP3   OH234413   6.496   1.530   4.853  0.4581  0.1361 -0.0165
 4333TIP3    H134414   6.459   1.617   4.869 -0.1605 -0.2703  0.8954
 4333TIP3    H234415   6.559   1.518   4.924 -0.0060 -0.4406  0.3094
 4334TIP3   OH234416   3.530   2.551   2.882  0.0054  0.0117  0.3506
 4334TIP3    H134417   3.487   2.488   2.824 -1.5768  1.1888  0.1547
 4334TIP3    H234418   3.556   2.623   2.825 -1.4688  1.1339  1.0036
 4335TIP3   OH234419   2.843   3.136  12.137  0.0483  0.2934 -0.0876
 4335TIP3    H134420   2.871   3.163  12.050  0.1585 -0.9706 -0.4734
 4335TIP3    H234421   2.796   3.211  12.173 -2.2697  0.0061 -2.2418
 4336TIP3   OH234422   3.603   4.389  11.650  0.0570 -0.2943  0.0663
 4336TIP3    H134423   3.690   4.386  11.610 -0.3446  2.5709 -1.3451
 4336TIP3    H234424   3.545   4.354  11.582 -0.1288  0.2449 -0.0638
 4337TIP3   OH234425   3.465   2.855   0.213  0.2475  0.7641 -0.1170
 4337TIP3    H134426   3.426   2.877   0.298 -2.4545 -0.9708 -0.7959
 4337TIP3    H234427   3.474   2.760   0.214  0.7562  0.7662 -1.5641
 4338TIP3   OH234428   2.306   5.017   5.790 -0.6191  0.1657  0.0217
 4338TIP3    H134429   2.240   5.000   5.722 -0.5696  0.3851 -0.0814
 4338TIP3    H234430   2.339   5.105   5.770 -0.1108 -0.0450 -0.0785
 4339TIP3   OH234431   4.977   1.521   2.829 -0.2548 -0.4832  0.3781
 4339TIP3    H134432   5.072   1.534   2.822 -0.3942  0.4103  0.0569
 4339TIP3    H234433   4.968   1.431   2.861  0.6693 -0.9333 -0.5677
 4340TIP3   OH234434   4.877   1.758   4.499  0.0739 -0.5171  0.0575
 4340TIP3    H134435   4.844   1.824   4.437 -1.1276 -0.1299  1.0744
 4340TIP3    H234436   4.865   1.675   4.453  0.9305 -0.1101 -0.9547
 4341TIP3   OH234437   3.936   5.763   3.097  0.0171 -0.1225 -0.4905
 4341TIP3    H134438   3.930   5.707   3.174  0.7092 -1.4797 -1.3690
 4341TIP3    H234439   3.851   5.806   3.091 -0.9382 -1.8903 -0.3385
 4342TIP3   OH234440   4.613   2.373  11.201  0.2498  0.2877 -0.1305
 4342TIP3    H134441   4.576   2.333  11.122  2.8801  0.2587 -1.4443
 4342TIP3    H234442   4.652   2.455  11.170  1.3829  0.2550  1.1092
 4343TIP3   OH234443   5.507   3.940  16.451 -0.1066  0.3490  0.0354
 4343TIP3    H134444   5.513   3.965  16.359  1.1239 -3.1972 -0.9806
 4343TIP3    H234445   5.589   3.894  16.469 -0.7008  0.1707  2.6917
 4344TIP3   OH234446   4.451   5.582  11.290 -0.3166 -0.0848  0.5806
 4344TIP3    H134447   4.359   5.599  11.312 -0.3554 -0.4373  0.6948
 4344TIP3    H234448   4.457   5.601  11.197 -1.4913 -4.0043 -0.4745
 4345TIP3   OH234449   6.163   6.005   0.370 -0.1192 -0.3406 -0.1096
 4345TIP3    H134450   6.222   5.979   0.299 -1.4832 -0.9594 -1.0613
 4345TIP3    H234451   6.123   6.086   0.340  0.6946  0.4399  0.8280
 4346TIP3   OH234452   1.130   4.839  12.397  0.9533  0.3227 -0.0696
 4346TIP3    H134453   1.099   4.877  12.479  1.7096  1.3028 -0.2120
 4346TIP3    H234454   1.055   4.842  12.339  0.1590 -1.1875  0.8379
 4347TIP3   OH234455   0.019   1.374   4.981  0.1359 -0.1328 -0.7004
 4347TIP3    H134456   0.058   1.332   5.058 -0.2011 -0.1813 -0.5507
 4347TIP3    H234457  -0.051   1.315   4.954 -2.0470  1.4602  1.0443
 4348TIP3   OH234458   2.890   2.405   1.706  0.5773  0.5345 -0.6246
 4348TIP3    H134459   2.949   2.350   1.758 -2.2093  0.2855  2.5498
 4348TIP3    H234460   2.854   2.346   1.641  1.7267  0.0320 -0.8355
 4349TIP3   OH234461   5.126   1.049   5.438 -0.6237 -0.3155  0.4961
 4349TIP3    H134462   5.113   1.138   5.472 -0.4938  0.0359 -0.3385
 4349TIP3    H234463   5.041   1.007   5.446 -0.7712 -0.0025  0.5875
 4350TIP3   OH234464   0.414   3.681   2.083 -0.0993  0.1915 -0.1630
 4350TIP3    H134465   0.366   3.612   2.037 -1.1278  0.4896  0.4362
 4350TIP3    H234466   0.370   3.762   2.057 -0.2399  0.4244  0.7568
 4351TIP3   OH234467   3.531   0.407   4.456 -0.4757  0.0846 -0.5042
 4351TIP3    H134468   3.470   0.394   4.384 -0.8195  0.0661 -0.2118
 4351TIP3    H234469   3.480   0.388   4.535 -0.3219  0.8597 -0.2057
 4352TIP3   OH234470   0.223   5.210  17.068  0.3778  0.3850  0.4372
 4352TIP3    H134471   0.133   5.200  17.098 -0.0465  2.7414  0.1652
 4352TIP3    H234472   0.271   5.237  17.145  0.8005 -0.5008  0.4971
 4353TIP3   OH234473   4.529   0.461  14.278  0.0670  0.2021 -0.2937
 4353TIP3    H134474   4.454   0.410  14.248 -0.7361  0.9011  0.4729
 4353TIP3    H234475   4.490   0.535  14.325  1.2127 -0.7931  2.4258
 4354TIP3   OH234476   4.183   1.290   1.654  0.3264  0.3408 -0.0281
 4354TIP3    H134477   4.269   1.309   1.691 -0.6906  2.6034  1.3845
 4354TIP3    H234478   4.128   1.364   1.681 -1.9752 -0.8213 -1.2128
 4355TIP3   OH234479   2.724   4.030   0.974  0.6081  0.5272 -0.4765
 4355TIP3    H134480   2.639   4.013   0.934  0.1824  0.1997  0.5285
 4355TIP3    H234481   2.778   3.955   0.950  0.5873  0.6973 -1.0539
 4356TIP3   OH234482   0.870   5.865  11.269  0.0725 -0.0278  0.3852
 4356TIP3    H134483   0.896   5.856  11.177 -0.3833  0.4394  0.2052
 4356TIP3    H234484   0.906   5.787  11.312 -0.1974 -0.5368 -0.3005
 4357TIP3   OH234485   3.897   2.655   4.418  0.7292  0.2309 -0.0045
 4357TIP3    H134486   3.878   2.749   4.414  1.0392  0.2641 -0.9868
 4357TIP3    H234487   3.953   2.639   4.342  0.1830 -0.8684 -0.1877
 4358TIP3   OH234488   2.257   6.617   3.241  0.1617 -0.0023 -0.4693
 4358TIP3    H134489   2.239   6.533   3.283 -0.5813  1.2446  1.8760
 4358TIP3    H234490   2.187   6.627   3.177  0.2059 -1.0993 -0.7115
 4359TIP3   OH234491   3.592   1.075  15.347 -0.1362  0.9538 -0.4243
 4359TIP3    H134492   3.606   1.005  15.283 -2.6863  0.7274 -0.8396
 4359TIP3    H234493   3.629   1.040  15.428  0.5542  0.0250 -1.1068
 4360TIP3   OH234494   0.325   2.327   2.146 -0.3344  0.1611 -0.0868
 4360TIP3    H134495   0.319   2.416   2.179 -2.2396  0.4002 -0.9788
 4360TIP3    H234496   0.415   2.300   2.167  0.5832  2.5765 -0.5819
 4361TIP3   OH234497   6.059   0.622   4.584  0.2075  0.2855  0.0406
 4361TIP3    H134498   6.119   0.618   4.659  1.3290  0.4174 -0.8200
 4361TIP3    H234499   6.078   0.542   4.535  0.0983  0.6172 -0.5488
 4362TIP3   OH234500   2.966   2.455   4.115  0.3948 -0.0836 -0.5885
 4362TIP3    H134501   2.987   2.478   4.024 -1.2118 -1.4192 -1.3573
 4362TIP3    H234502   2.913   2.529   4.146 -0.7797 -0.5294 -1.4561
 4363TIP3   OH234503   5.288   0.187  10.535 -0.2893  0.0535 -0.2281
 4363TIP3    H134504   5.303   0.102  10.495  0.8523  0.2596 -0.2621
 4363TIP3    H234505   5.349   0.246  10.492  0.0885  0.5437  0.9261
 4364TIP3   OH234506   4.789   3.155   3.781  0.1915  0.0353  0.2695
 4364TIP3    H134507   4.858   3.220   3.765  0.2865 -0.3843 -1.2422
 4364TIP3    H234508   4.822   3.103   3.855 -0.3287  2.2341  2.1406
 4365TIP3   OH234509   4.475   4.726  15.508 -0.5393 -0.0338 -0.5721
 4365TIP3    H134510   4.470   4.817  15.480 -1.7726  0.7538  1.8829
 4365TIP3    H234511   4.542   4.725  15.576  0.0630 -1.1674 -1.1492
 4366TIP3   OH234512   2.949   5.209   2.153 -0.5389 -0.0206 -0.0569
 4366TIP3    H134513   2.875   5.162   2.191 -1.3575  1.2239 -0.0333
 4366TIP3    H234514   3.026   5.167   2.190 -1.2478 -0.8695  0.4970
 4367TIP3   OH234515   3.354   0.244   3.673 -0.0077  0.4617 -0.1656
 4367TIP3    H134516   3.279   0.188   3.692 -0.0770  0.2248 -1.1095
 4367TIP3    H234517   3.418   0.223   3.741 -1.7695  2.6131  2.3454
 4368TIP3   OH234518   1.154   6.596  15.546  0.2615  0.0786  0.6802
 4368TIP3    H134519   1.240   6.596  15.505 -0.9539 -1.7721 -2.1908
 4368TIP3    H234520   1.110   6.672  15.509 -0.4389 -0.9277 -0.6384
 4369TIP3   OH234521   2.675   4.370  16.304  0.2898 -0.3607 -0.5012
 4369TIP3    H134522   2.704   4.426  16.232  0.5833 -1.3359 -1.1563
 4369TIP3    H234523   2.753   4.358  16.358  0.7832 -1.7967 -1.4797
 4370TIP3   OH234524   4.765   4.399   4.184 -0.2237 -0.1345 -0.4166
 4370TIP3    H134525   4.763   4.439   4.098  1.1110 -2.9552 -1.9049
 4370TIP3    H234526   4.683   4.350   4.189  1.0158 -2.5102 -1.5498
 4371TIP3   OH234527   4.628   6.045   1.615  0.6862  0.3452  0.3498
 4371TIP3    H134528   4.637   5.976   1.681 -2.1887  0.1611  0.6731
 4371TIP3    H234529   4.577   6.113   1.659  0.3013  1.0348 -1.1116
 4372TIP3   OH234530   4.425   2.912   1.393 -0.0511  0.4997 -0.3994
 4372TIP3    H134531   4.335   2.881   1.396  0.0064  0.3776  0.3627
 4372TIP3    H234532   4.418   3.001   1.360 -0.3177  0.0427 -1.6030
 4373TIP3   OH234533   3.998   3.697  16.048 -0.2237 -0.0085  0.6555
 4373TIP3    H134534   4.032   3.778  16.011 -0.2274  0.5451  1.8003
 4373TIP3    H234535   4.066   3.668  16.109 -0.1670 -0.9403  0.1676
 4374TIP3   OH234536   0.360   3.938  12.610  0.5933 -0.4069  0.1238
 4374TIP3    H134537   0.275   3.961  12.574 -0.2077  1.0920  2.6778
 4374TIP3    H234538   0.415   3.919  12.534 -1.5642  0.1468 -1.6624
 4375TIP3   OH234539   3.437   5.214   4.253  0.7807 -0.3248 -0.4759
 4375TIP3    H134540   3.427   5.177   4.341  1.2412 -0.5657 -0.5166
 4375TIP3    H234541   3.369   5.172   4.201 -0.3495  0.7902  0.0498
 4376TIP3   OH234542   1.152   5.636   4.740  0.9645 -0.3210  0.4872
 4376TIP3    H134543   1.159   5.703   4.809  0.7192 -1.4684  1.6566
 4376TIP3    H234544   1.180   5.682   4.661 -0.2624  1.5014  1.0273
 4377TIP3   OH234545   1.163   2.591  12.138 -0.2690 -0.8258 -0.1434
 4377TIP3    H134546   1.218   2.522  12.102 -0.0165  0.0214 -1.4399
 4377TIP3    H234547   1.073   2.562  12.120 -0.1770 -1.0166 -0.2948
 4378TIP3   OH234548   4.330   0.853  13.754  0.2467 -0.2425  0.1876
 4378TIP3    H134549   4.382   0.773  13.747 -1.7955 -1.5106 -1.8268
 4378TIP3    H234550   4.240   0.822  13.767 -0.7025  1.6895 -1.2934
 4379TIP3   OH234551   3.808   2.365   5.014 -0.5706 -0.0365 -0.1501
 4379TIP3    H134552   3.785   2.402   5.099 -0.6036 -0.6447  0.1125
 4379TIP3    H234553   3.896   2.330   5.026  0.4446  2.0669 -1.0851
 4380TIP3   OH234554   1.454   0.148  16.937  0.6046 -0.1143 -0.1856
 4380TIP3    H134555   1.529   0.090  16.946  0.1388 -0.6785  0.1980
 4380TIP3    H234556   1.387   0.109  16.993  0.4002  1.0211  0.3973
 4381TIP3   OH234557   1.110   2.027  14.009 -0.1900 -0.0376 -0.3090
 4381TIP3    H134558   1.134   2.068  14.092  0.1976  0.4724 -0.6599
 4381TIP3    H234559   1.192   2.027  13.958 -0.2851 -0.8834 -0.4679
 4382TIP3   OH234560   0.927   3.762   5.433 -0.2795 -0.0502 -0.0000
 4382TIP3    H134561   0.931   3.690   5.496 -1.5424  0.9667  1.3077
 4382TIP3    H234562   0.926   3.841   5.487 -2.9261  0.8153 -1.1369
 4383TIP3   OH234563   4.859   1.082   4.756 -0.5829 -0.6076 -0.4485
 4383TIP3    H134564   4.935   1.138   4.741 -0.4978 -0.0503  1.8078
 4383TIP3    H234565   4.882   0.999   4.713 -0.2981  0.6773 -2.9762
 4384TIP3   OH234566   3.955   5.595   4.630  0.5999  0.0342 -0.5285
 4384TIP3    H134567   4.043   5.566   4.608 -0.5298 -1.7396 -3.1715
 4384TIP3    H234568   3.910   5.517   4.661  0.6997  1.5121  4.1972
 4385TIP3   OH234569   4.349   5.684   2.824  0.1465 -0.3979 -0.1250
 4385TIP3    H134570   4.379   5.596   2.846  0.2972 -0.4259 -0.4374
 4385TIP3    H234571   4.272   5.697   2.879  0.9321 -0.1830  0.9567
 4386TIP3   OH234572   4.126   6.571   2.102 -0.9258 -0.8874  0.1352
 4386TIP3    H134573   4.189   6.593   2.170 -0.8361 -0.3935 -0.1019
 4386TIP3    H234574   4.047   6.619   2.125 -0.9889 -0.9497  0.0517
 4387TIP3   OH234575   4.512   5.009   3.429  0.0732 -0.7900  0.4520
 4387TIP3    H134576   4.559   5.042   3.353 -0.0652 -0.7943  0.3642
 4387TIP3    H234577   4.578   4.960   3.479  0.7257  1.0445  1.4711
 4388TIP3   OH234578   5.828   3.228   2.306  0.1050 -0.1661 -0.0432
 4388TIP3    H134579   5.883   3.257   2.379 -0.9720  0.6915  0.4556
 4388TIP3    H234580   5.753   3.186   2.348  0.0590 -0.7665 -0.7063
 4389TIP3   OH234581   1.479   0.132   0.924 -0.2941  0.4570 -0.0254
 4389TIP3    H134582   1.512   0.056   0.972  0.1824  0.9036  0.3663
 4389TIP3    H234583   1.550   0.196   0.929 -0.1491  0.4365 -1.5378
 4390TIP3   OH234584   0.041   1.436   1.454  0.3428  0.8606  0.3282
 4390TIP3    H134585  -0.041   1.390   1.436 -0.2896  2.7617 -2.3579
 4390TIP3    H234586   0.088   1.379   1.514 -1.7970 -1.5872 -0.1342
 4391TIP3   OH234587   1.809   2.787   4.578  0.8654 -0.6872  0.7282
 4391TIP3    H134588   1.766   2.724   4.635  0.4344  0.3557  1.5993
 4391TIP3    H234589   1.767   2.776   4.493  0.0947 -0.9033  1.1242
 4392TIP3   OH234590   0.386   2.539  11.214  0.5928  0.8848  0.7870
 4392TIP3    H134591   0.309   2.579  11.254  0.0890  0.3600  0.3681
 4392TIP3    H234592   0.392   2.452  11.254 -1.7835 -0.9601 -2.3395
 4393TIP3   OH234593   1.470   5.071   0.082 -0.1699 -0.2221 -0.1228
 4393TIP3    H134594   1.430   5.156   0.066 -0.9817 -0.3244  1.1791
 4393TIP3    H234595   1.560   5.091   0.108 -0.5985  0.3286  1.0106
 4394TIP3   OH234596   6.301   2.712   5.934 -0.1423 -0.2174  1.0644
 4394TIP3    H134597   6.219   2.749   5.900  0.3150  1.3918  1.6409
 4394TIP3    H234598   6.273   2.641   5.992 -1.0858 -0.2711  0.5632
 4395TIP3   OH234599   6.114   0.810  12.751 -0.3185 -0.0542 -0.1298
 4395TIP3    H134600   6.206   0.821  12.777 -0.5292 -1.0018  1.1379
 4395TIP3    H234601   6.068   0.881  12.796 -0.3931 -0.4588  0.4508
 4396TIP3   OH234602   6.098   0.988   2.447  0.2019 -0.3995  0.1600
 4396TIP3    H134603   6.165   1.056   2.446  1.4552 -1.5781  0.5089
 4396TIP3    H234604   6.092   0.957   2.357  1.7661 -1.7723  0.4664
 4397TIP3   OH234605   5.809   0.136   0.400 -0.5374 -0.1222  0.2261
 4397TIP3    H134606   5.722   0.106   0.375 -0.0103 -0.2958 -1.5528
 4397TIP3    H234607   5.819   0.220   0.354 -0.0765  0.3000  1.0820
 4398TIP3   OH234608   0.165   4.088   4.838 -1.0267  0.1240 -0.1799
 4398TIP3    H134609   0.119   4.025   4.893 -1.4271 -0.6136 -1.3302
 4398TIP3    H234610   0.140   4.174   4.874 -1.0308 -0.3447  0.9612
 4399TIP3   OH234611   4.372   4.008  10.573 -0.3088  0.6151 -0.3096
 4399TIP3    H134612   4.446   4.012  10.634 -0.7318 -1.0329  0.3618
 4399TIP3    H234613   4.301   4.052  10.620 -0.4740 -0.1394  0.1570
 4400TIP3   OH234614   2.350   6.390  11.223  0.5799  0.4477  0.0405
 4400TIP3    H134615   2.371   6.443  11.300  0.9702  1.3846 -0.6951
 4400TIP3    H234616   2.420   6.408  11.161 -0.3406  0.6135 -0.9831
 4401TIP3   OH234617   6.055   5.791  11.960  0.4449  0.2421 -0.8804
 4401TIP3    H134618   6.031   5.860  12.022  0.7692  2.5288 -3.1305
 4401TIP3    H234619   6.028   5.709  12.004 -0.3368  1.7692  1.7417
 4402TIP3   OH234620   1.915   4.265   1.173 -0.0543  0.6099  0.0029
 4402TIP3    H134621   2.000   4.231   1.200 -0.3629  0.0810  0.3277
 4402TIP3    H234622   1.908   4.350   1.216  0.7372  1.1174 -0.8341
 4403TIP3   OH234623   4.901   4.078  14.931  0.1256 -0.2903  0.2297
 4403TIP3    H134624   4.840   4.106  14.863  0.5438  1.5257  0.5347
 4403TIP3    H234625   4.863   3.998  14.966 -0.1777 -1.1932 -2.0194
 4404TIP3   OH234626   6.324   4.736   5.244 -0.3024  0.5003 -0.4520
 4404TIP3    H134627   6.347   4.661   5.190  1.9717  0.7022  0.1243
 4404TIP3    H234628   6.230   4.729   5.257 -0.6303 -0.5115 -2.9454
 4405TIP3   OH234629   6.292   4.158  12.287  0.8721  0.3332  0.1452
 4405TIP3    H134630   6.289   4.232  12.226 -0.2588 -1.1572 -1.7346
 4405TIP3    H234631   6.203   4.153  12.322  0.2076 -1.5088 -1.6007
 4406TIP3   OH234632   5.114   0.763  16.124 -0.3628 -0.1923  0.2104
 4406TIP3    H134633   5.114   0.857  16.106 -0.6503 -0.5431 -1.7807
 4406TIP3    H234634   5.066   0.755  16.207 -2.4798  1.2099 -0.7860
 4407TIP3   OH234635   4.494   3.736  14.394  0.7292 -0.4566 -0.1715
 4407TIP3    H134636   4.547   3.759  14.318 -1.1742  1.6264 -0.9999
 4407TIP3    H234637   4.530   3.788  14.465  1.0629 -0.6420 -0.2000
 4408TIP3   OH234638   3.770   1.570  13.205 -0.1246 -0.4880 -0.2771
 4408TIP3    H134639   3.848   1.561  13.149  0.3700  1.4804  0.0156
 4408TIP3    H234640   3.698   1.538  13.151  0.2648  1.7405 -2.3001
 4409TIP3   OH234641   5.311   2.253   4.640 -0.4630  0.1365  0.0454
 4409TIP3    H134642   5.261   2.209   4.709 -0.3234  0.4979  0.3828
 4409TIP3    H234643   5.247   2.312   4.599 -0.6396 -0.3430 -0.3806
 4410TIP3   OH234644   4.628   0.823  14.552  0.1357  0.2889  0.6116
 4410TIP3    H134645   4.711   0.779  14.537 -0.1557 -0.7133  1.6835
 4410TIP3    H234646   4.647   0.887  14.620  0.4717  1.5833 -0.6658
 4411TIP3   OH234647   3.020   0.429  15.591 -0.2121  0.3267 -0.4884
 4411TIP3    H134648   2.993   0.456  15.680 -1.1396  0.9215 -0.9283
 4411TIP3    H234649   2.971   0.348  15.575  0.1288  0.0976 -0.3721
 4412TIP3   OH234650   1.903   6.471   4.475  0.0061 -0.2857  0.3548
 4412TIP3    H134651   1.886   6.486   4.567 -0.5778  0.4390  0.1402
 4412TIP3    H234652   1.939   6.554   4.443 -2.0548  0.3026 -0.5772
 4413TIP3   OH234653   3.790   2.076   2.092  0.0022  0.6495  0.6085
 4413TIP3    H134654   3.709   2.025   2.098  0.8980 -0.8948  0.0504
 4413TIP3    H234655   3.798   2.098   2.000  1.5549 -1.5634  0.1380
 4414TIP3   OH234656   0.787   5.808   6.655 -0.6387 -0.2690  0.5671
 4414TIP3    H134657   0.861   5.832   6.600  0.2452 -0.1711  1.7565
 4414TIP3    H234658   0.777   5.714   6.642 -0.2962 -0.2852  0.4051
 4415TIP3   OH234659   0.565   0.100   5.482 -0.0150 -0.0826  0.4532
 4415TIP3    H134660   0.659   0.108   5.496  0.3539 -2.8573  0.0714
 4415TIP3    H234661   0.535   0.040   5.550 -1.0969 -0.9500 -0.7271
 4416TIP3   OH234662   4.444   2.456  15.649  0.1490 -0.1235  0.4521
 4416TIP3    H134663   4.363   2.496  15.681 -0.0961  0.5555 -0.9392
 4416TIP3    H234664   4.513   2.497  15.702 -0.3407 -0.1313  1.1170
 4417TIP3   OH234665   2.038   1.052   3.671  0.2327  1.2097  0.3995
 4417TIP3    H134666   2.131   1.040   3.652  0.0319 -0.7835  0.5288
 4417TIP3    H234667   2.034   1.066   3.765  0.2452 -1.2134  0.8122
 4418TIP3   OH234668   0.669   2.284  16.190  0.9391 -0.5005  0.1703
 4418TIP3    H134669   0.743   2.344  16.198  0.5739  0.2781 -1.8960
 4418TIP3    H234670   0.697   2.219  16.126 -0.8073  0.9158 -2.1612
 4419TIP3   OH234671   6.551   2.584  14.561  0.4190  0.4043 -0.8067
 4419TIP3    H134672   6.494   2.538  14.622  2.2932  0.5151  1.1233
 4419TIP3    H234673   6.620   2.522  14.540  0.5779  0.8632 -1.7086
 4420TIP3   OH234674   4.019   0.423   1.199  0.6330  0.4581  0.3983
 4420TIP3    H134675   3.938   0.468   1.223 -0.1368 -0.6630 -0.0348
 4420TIP3    H234676   4.061   0.483   1.137 -0.2587  0.7003  0.0126
 4421TIP3   OH234677   2.095   5.369  11.371  0.7730 -0.4959 -0.0692
 4421TIP3    H134678   2.083   5.451  11.323  0.8113  0.7543  1.9421
 4421TIP3    H234679   2.033   5.308  11.332  2.3295 -0.2695 -3.1534
 4422TIP3   OH234680   3.439   1.553  15.196 -0.4919  0.4303  0.0530
 4422TIP3    H134681   3.378   1.557  15.122 -0.2635  1.6848 -0.0984
 4422TIP3    H234682   3.476   1.465  15.192 -1.5162  0.0053 -0.4840
 4423TIP3   OH234683   5.240   3.880   2.236 -0.3952  0.1553  0.1121
 4423TIP3    H134684   5.274   3.791   2.231 -2.0170 -0.5709  1.0534
 4423TIP3    H234685   5.310   3.931   2.277  1.1434 -0.3156 -1.8149
 4424TIP3   OH234686   0.914   4.509  12.385 -0.5044 -0.4031 -0.5052
 4424TIP3    H134687   0.923   4.456  12.464  1.3844  0.6223  0.0491
 4424TIP3    H234688   0.946   4.452  12.314 -0.4294 -0.6893 -0.2417
 4425TIP3   OH234689   0.066   2.921  15.879  0.4664 -0.2665 -0.1686
 4425TIP3    H134690  -0.019   2.939  15.920  0.3441 -0.0975 -0.4908
 4425TIP3    H234691   0.060   2.830  15.849  0.8687 -0.6736  0.9401
 4426TIP3   OH234692   4.047   4.230   0.744  0.1431 -0.2463  0.4514
 4426TIP3    H134693   4.139   4.253   0.732 -0.2006  0.5505 -0.8829
 4426TIP3    H234694   4.034   4.155   0.686  0.4177 -1.6869  2.1813
 4427TIP3   OH234695   6.683   5.660   4.597 -0.2612  0.6676  0.6341
 4427TIP3    H134696   6.677   5.656   4.692  0.0426  0.7639  0.6595
 4427TIP3    H234697   6.719   5.747   4.579  1.3650  0.0208  0.5299
 4428TIP3   OH234698   5.137   0.747  12.175 -0.3438  0.0523  0.2086
 4428TIP3    H134699   5.112   0.756  12.267 -2.9471  0.9667 -0.4869
 4428TIP3    H234700   5.152   0.837  12.146  1.1161 -0.2800 -0.1485
 4429TIP3   OH234701   3.275   4.726  11.608 -0.1555 -0.0695 -0.0661
 4429TIP3    H134702   3.304   4.717  11.517  1.4209 -0.9620  0.4815
 4429TIP3    H234703   3.316   4.652  11.653 -0.0124  0.9694  1.5777
 4430TIP3   OH234704   5.052   1.875  14.874  0.0435  0.0252  0.9931
 4430TIP3    H134705   5.109   1.861  14.799 -1.7033 -0.6493 -0.2893
 4430TIP3    H234706   5.025   1.967  14.867  0.3628  0.1330  1.1613
 4431TIP3   OH234707   1.277   1.797   0.251 -0.3014 -0.0091 -1.3732
 4431TIP3    H134708   1.250   1.795   0.343 -0.7839 -0.7513 -1.5248
 4431TIP3    H234709   1.234   1.721   0.211  0.4384 -0.0770 -2.0693
 4432TIP3   OH234710   5.525   0.590  10.693 -0.0876 -0.7126  0.2675
 4432TIP3    H134711   5.476   0.561  10.770  0.4358 -0.1934  0.8058
 4432TIP3    H234712   5.474   0.664  10.659 -0.0881 -0.6667  0.3675
 4433TIP3   OH234713   6.355   6.390  12.699 -0.2929 -0.1076 -0.0681
 4433TIP3    H134714   6.321   6.427  12.618 -0.0403 -0.1552 -0.1988
 4433TIP3    H234715   6.340   6.458  12.765 -3.0169 -1.1232  0.4567
 4434TIP3   OH234716   0.609   5.006   3.167 -0.2811 -0.0554  0.0107
 4434TIP3    H134717   0.599   5.085   3.115 -0.8826  0.2171  0.5318
 4434TIP3    H234718   0.665   4.949   3.113 -1.9962 -0.3484 -1.5778
 4435TIP3   OH234719   6.316   3.965  14.010 -0.2656  0.4283  0.5792
 4435TIP3    H134720   6.295   3.964  14.104 -1.1977 -0.8079  0.3699
 4435TIP3    H234721   6.314   4.058  13.987 -0.6081  0.7048  1.6474
 4436TIP3   OH234722   4.628   6.567  12.056 -1.1872  0.6909 -0.3627
 4436TIP3    H134723   4.539   6.594  12.079 -1.4990 -0.9015  0.4295
 4436TIP3    H234724   4.673   6.560  12.140 -0.5839  0.5854 -0.6922
 4437TIP3   OH234725   2.944   2.565   1.032  0.2974 -0.1760 -0.3109
 4437TIP3    H134726   2.873   2.622   1.003  0.9690  0.8554  0.0223
 4437TIP3    H234727   2.912   2.476   1.015 -0.0710  0.3261 -2.4251
 4438TIP3   OH234728   4.344   4.434   1.790  0.0125  0.1141  0.4392
 4438TIP3    H134729   4.293   4.514   1.800 -1.0289 -0.5364  0.5086
 4438TIP3    H234730   4.376   4.415   1.878  0.3382  0.5048  0.4046
 4439TIP3   OH234731   4.850   4.084   2.757  0.4312  0.4695  0.4317
 4439TIP3    H134732   4.890   4.146   2.695  1.0439 -1.9855 -1.7965
 4439TIP3    H234733   4.756   4.103   2.752  0.4287  0.1408 -1.5422
 4440TIP3   OH234734   5.069   0.556  14.483  0.2743  0.0716  0.6029
 4440TIP3    H134735   5.088   0.468  14.517 -0.0542  0.6601  2.4415
 4440TIP3    H234736   5.154   0.599  14.481  0.3929 -0.1842 -0.0083
 4441TIP3   OH234737   5.617   0.896  13.828  0.5311  0.0868  0.6126
 4441TIP3    H134738   5.572   0.897  13.913 -0.0494 -0.1529  0.3161
 4441TIP3    H234739   5.613   0.804  13.800 -1.1634  0.4982 -0.6445
 4442TIP3   OH234740   3.213   0.820   5.841 -0.5369 -0.1518 -0.4071
 4442TIP3    H134741   3.257   0.864   5.768  0.9118 -0.9892 -0.0811
 4442TIP3    H234742   3.239   0.869   5.919 -0.3379 -0.5332 -0.2303
 4443TIP3   OH234743   2.881   5.294  16.293  0.1390 -0.0756  0.2129
 4443TIP3    H134744   2.938   5.221  16.266  0.3394  0.1793 -0.0588
 4443TIP3    H234745   2.845   5.266  16.378 -0.2700 -0.7632 -0.1696
 4444TIP3   OH234746   5.195   1.116  13.918  0.1887 -0.3942  0.0189
 4444TIP3    H134747   5.259   1.077  13.859 -0.2440  0.1106 -0.7972
 4444TIP3    H234748   5.111   1.109  13.871 -0.4786 -1.5770  1.2988
 4445TIP3   OH234749   0.602   4.914  12.599  0.4606 -0.2989 -0.0884
 4445TIP3    H134750   0.561   4.874  12.675 -1.7745 -1.9858 -1.9988
 4445TIP3    H234751   0.650   4.842  12.557 -0.1017  0.0153 -1.3434
 4446TIP3   OH234752   2.163   3.046  16.098 -0.4773 -0.1350  0.1188
 4446TIP3    H134753   2.070   3.030  16.082 -0.8912  0.3625  1.7810
 4446TIP3    H234754   2.184   3.123  16.045 -0.7798 -0.7525 -0.9204
 4447TIP3   OH234755   2.829   5.267  16.587 -0.6977  0.1653 -0.3621
 4447TIP3    H134756   2.868   5.185  16.557 -1.9329 -0.1563 -1.1203
 4447TIP3    H234757   2.752   5.241  16.637 -1.6995  0.8835 -1.5003
 4448TIP3   OH234758   1.182   4.585  12.078  0.1555 -0.3988  0.2982
 4448TIP3    H134759   1.131   4.663  12.101  2.1780  0.6186  1.6390
 4448TIP3    H234760   1.225   4.608  11.995  1.7255  0.4847  1.3045
 4449TIP3   OH234761   4.809   5.504   2.795  0.5514  0.3473 -0.6561
 4449TIP3    H134762   4.735   5.529   2.739  1.3606 -0.0817 -1.9619
 4449TIP3    H234763   4.771   5.496   2.882 -0.5860  1.9037 -0.9598
 4450TIP3   OH234764   6.394   5.316   5.707 -0.2497 -1.3793 -0.1493
 4450TIP3    H134765   6.360   5.347   5.623  0.9631  0.6762  0.0293
 4450TIP3    H234766   6.481   5.282   5.686  0.1693 -0.6041  0.2789
 4451TIP3   OH234767   1.121   2.340   3.056  0.2717  0.3879  0.2592
 4451TIP3    H134768   1.104   2.430   3.029 -0.6115  0.4944  1.1078
 4451TIP3    H234769   1.049   2.290   3.018  0.1937  0.2129  0.6352
 4452TIP3   OH234770   6.351   0.322   1.068 -0.4910 -0.3359 -0.2694
 4452TIP3    H134771   6.283   0.372   1.024 -0.3456  0.1574  0.0594
 4452TIP3    H234772   6.348   0.236   1.026 -0.6762 -0.0251 -0.9131
 4453TIP3   OH234773   0.469   2.568  10.914  0.3248 -0.5842  0.4054
 4453TIP3    H134774   0.428   2.579  11.000  0.4058  0.9461  0.2722
 4453TIP3    H234775   0.556   2.534  10.934  0.8461  1.0627  1.0437
 4454TIP3   OH234776   5.776   2.167   4.909 -0.8963 -0.1069 -0.2513
 4454TIP3    H134777   5.754   2.074   4.918 -1.0512  0.0281  0.8597
 4454TIP3    H234778   5.692   2.210   4.895 -0.7011 -0.2671 -2.2923
 4455TIP3   OH234779   1.967   3.424   2.532  0.2990  0.5576  0.1886
 4455TIP3    H134780   1.967   3.429   2.437 -1.8999 -1.2901  0.0183
 4455TIP3    H234781   1.928   3.507   2.561  1.4693  1.3570 -0.4464
 4456TIP3   OH234782   6.460   4.419  11.897 -0.3673 -0.1289 -0.3278
 4456TIP3    H134783   6.525   4.366  11.942 -1.0390  0.8052  1.9080
 4456TIP3    H234784   6.509   4.494  11.863 -0.0810 -0.0215  0.3076
 4457TIP3   OH234785   2.303   5.822  13.025 -0.3063 -0.3625  0.1360
 4457TIP3    H134786   2.298   5.869  12.942 -0.1796  0.5733  0.6450
 4457TIP3    H234787   2.395   5.796  13.034  0.0207  0.9145  0.7069
 4458TIP3   OH234788   2.045   5.215  15.707 -0.1398 -0.0742 -0.1585
 4458TIP3    H134789   1.959   5.199  15.667 -0.8642  0.0273  1.2882
 4458TIP3    H234790   2.044   5.308  15.728  0.0486 -0.2032  0.4475
 4459TIP3   OH234791   4.928   2.101  16.983  0.0917  0.0706  0.3996
 4459TIP3    H134792   4.848   2.071  17.027 -0.8239  0.4589 -0.9545
 4459TIP3    H234793   4.957   2.176  17.035 -1.2352  0.8128  0.0916
 4460TIP3   OH234794   5.695   5.058  15.880 -0.1600  0.1809 -0.1026
 4460TIP3    H134795   5.785   5.051  15.912 -0.4009 -1.3473  0.2894
 4460TIP3    H234796   5.704   5.055  15.785  0.2294  0.5450 -0.0836
 4461TIP3   OH234797   6.628   3.152  15.556  0.2647 -0.2407  0.0707
 4461TIP3    H134798   6.541   3.162  15.595 -0.0155 -0.8700 -0.3766
 4461TIP3    H234799   6.629   3.213  15.482  1.0312  1.4388  1.4069
 4462TIP3   OH234800   6.631   1.852  12.706 -0.0719 -1.2769  0.1578
 4462TIP3    H134801   6.716   1.853  12.748  0.6613  2.9411 -0.9086
 4462TIP3    H234802   6.568   1.846  12.778  1.1634  1.7279  1.6488
 4463TIP3   OH234803   0.338   1.889   3.752 -0.1453 -0.3796  0.0948
 4463TIP3    H134804   0.338   1.799   3.784 -1.1978 -0.2808  0.3914
 4463TIP3    H234805   0.293   1.939   3.819 -0.2706  0.2383 -0.4360
 4464TIP3   OH234806   3.965   0.182  15.150 -0.5196 -0.1794  1.1120
 4464TIP3    H134807   4.005   0.171  15.063  0.1770 -0.3000  1.4393
 4464TIP3    H234808   3.882   0.227  15.133  1.1140  2.8740  0.6834
 4465TIP3   OH234809   3.503   0.094  13.435  0.3130 -0.2376  0.3547
 4465TIP3    H134810   3.523   0.182  13.467 -2.5888  0.1621  1.4583
 4465TIP3    H234811   3.587   0.049  13.433  1.9199  2.5464 -0.3268
 4466TIP3   OH234812   0.873   3.538   2.244  0.6780  0.1016 -0.0391
 4466TIP3    H134813   0.910   3.626   2.246  0.8166  0.0389  0.1388
 4466TIP3    H234814   0.827   3.528   2.327 -1.6747  1.0031 -1.1156
 4467TIP3   OH234815   3.645   5.557  16.335  0.1783 -0.8361 -0.0288
 4467TIP3    H134816   3.555   5.584  16.353  0.8771  0.9142  1.0249
 4467TIP3    H234817   3.688   5.636  16.302  1.6591 -1.2998  0.7220
 4468TIP3   OH234818   0.431   4.115  12.089 -0.1662  0.0496 -0.7584
 4468TIP3    H134819   0.393   4.142  12.005 -0.0337  1.0406 -0.5045
 4468TIP3    H234820   0.396   4.027  12.103 -3.0980  1.1988 -0.1373
 4469TIP3   OH234821   4.692   0.497  16.273 -0.4617  0.5227  0.4568
 4469TIP3    H134822   4.690   0.423  16.334  1.1709  0.1849  0.1506
 4469TIP3    H234823   4.600   0.521  16.261 -0.8953 -0.2464  2.0160
 4470TIP3   OH234824   3.208   3.240  12.802  0.0679  0.2932 -0.1283
 4470TIP3    H134825   3.255   3.159  12.779  0.9512  0.1415  1.9689
 4470TIP3    H234826   3.163   3.265  12.722  2.3581 -0.5077 -1.7849
 4471TIP3   OH234827   4.488   0.443   0.163  0.2206  0.2418  0.2830
 4471TIP3    H134828   4.561   0.407   0.213  1.1376  0.6117 -0.7735
 4471TIP3    H234829   4.412   0.391   0.192  0.4476  1.2720  2.9875
 4472TIP3   OH234830   4.726   0.624  11.143 -0.0429  0.1489 -0.2876
 4472TIP3    H134831   4.780   0.547  11.162  0.5812  0.7093  0.2993
 4472TIP3    H234832   4.640   0.589  11.123  0.5440 -0.7815 -1.3195
 4473TIP3   OH234833   1.816   0.731   4.077  0.6981 -0.3488  0.1514
 4473TIP3    H134834   1.814   0.814   4.031  1.6918 -0.2821  0.1980
 4473TIP3    H234835   1.821   0.665   4.008  2.7202 -0.2283  0.1051
 4474TIP3   OH234836   2.939   0.185   1.904 -0.7240  0.1077  0.4926
 4474TIP3    H134837   2.942   0.167   1.998  0.8228 -0.0600  0.4387
 4474TIP3    H234838   2.848   0.209   1.887 -1.1065 -0.1970  1.9650
 4475TIP3   OH234839   3.799   3.960  17.206  0.1533 -0.2544  0.3327
 4475TIP3    H134840   3.772   3.869  17.198 -0.8884  0.1394 -1.0169
 4475TIP3    H234841   3.719   4.008  17.226  0.6827  0.3813  0.9957
 4476TIP3   OH234842   5.106   1.014  12.088 -0.4991 -0.1193  0.2411
 4476TIP3    H134843   5.042   1.039  12.022 -1.4490  1.3684  1.6507
 4476TIP3    H234844   5.171   1.085  12.086 -0.5778 -0.0216  0.9255
 4477TIP3   OH234845   1.083   2.335   0.362 -0.1559  0.4338 -0.8216
 4477TIP3    H134846   1.017   2.272   0.393  1.7032 -1.3797 -0.3391
 4477TIP3    H234847   1.165   2.286   0.361  1.3415  2.7742 -0.8415
 4478TIP3   OH234848   2.489   5.685   4.124 -0.5223  0.1827  0.1937
 4478TIP3    H134849   2.407   5.635   4.131  0.2121 -0.8194  3.2377
 4478TIP3    H234850   2.551   5.622   4.087 -0.7749  0.4972 -0.7854
 4479TIP3   OH234851   3.153   5.663  16.981  0.0727 -0.4381 -0.1446
 4479TIP3    H134852   3.244   5.687  17.000  0.4079  0.0092 -2.0598
 4479TIP3    H234853   3.157   5.568  16.965 -0.2290 -0.8367  1.8618
 4480TIP3   OH234854   6.765   4.695  12.814 -0.4555 -0.2085  0.4076
 4480TIP3    H134855   6.812   4.639  12.876  0.7218  0.6310  0.3090
 4480TIP3    H234856   6.789   4.784  12.841 -1.4152  0.2131 -0.1156
 4481TIP3   OH234857   1.521   4.865  11.691  0.5464 -0.2271 -0.7183
 4481TIP3    H134858   1.551   4.956  11.688  0.2028 -0.0541  0.3831
 4481TIP3    H234859   1.592   4.817  11.733  0.1900 -0.2116 -0.0812
 4482TIP3   OH234860   0.174   1.771  16.332 -0.5680 -0.2979 -0.4459
 4482TIP3    H134861   0.226   1.741  16.257  1.9963  0.0347  1.0976
 4482TIP3    H234862   0.196   1.711  16.403 -0.8489  0.9881  0.7695
 4483TIP3   OH234863   2.985   4.808  12.652  0.5556  0.3733 -0.3862
 4483TIP3    H134864   2.962   4.900  12.658 -1.9218 -0.2443  0.9687
 4483TIP3    H234865   3.023   4.787  12.737  0.2107 -0.0739 -0.3402
 4484TIP3   OH234866   2.346   1.756  14.221 -0.3018 -0.0223  0.0862
 4484TIP3    H134867   2.432   1.730  14.252 -0.5680 -0.4660  0.4634
 4484TIP3    H234868   2.321   1.689  14.158 -0.4991 -0.0642  0.2067
 4485TIP3   OH234869   4.547   3.787   1.108  0.1405  0.3316 -0.0866
 4485TIP3    H134870   4.478   3.839   1.065  0.2262 -0.2132 -0.9150
 4485TIP3    H234871   4.585   3.736   1.037  0.0770 -0.8505  0.7073
 4486TIP3   OH234872   0.337   2.365  12.873  0.2982 -0.0567 -0.3684
 4486TIP3    H134873   0.330   2.443  12.819  0.3805 -0.3376 -0.7898
 4486TIP3    H234874   0.364   2.397  12.959 -1.3222  0.5645 -0.0459
 4487TIP3   OH234875   3.251   4.931  11.807 -0.6388 -0.4636  0.0136
 4487TIP3    H134876   3.245   4.900  11.717  1.4024  0.4722 -0.5096
 4487TIP3    H234877   3.294   4.859  11.854  0.5541 -0.0157 -0.3451
 4488TIP3   OH234878   6.040   3.178   3.185 -0.3814  0.1108 -0.4144
 4488TIP3    H134879   6.016   3.169   3.277 -0.7316 -0.0290 -0.5183
 4488TIP3    H234880   5.982   3.246   3.151 -1.5951 -1.1660 -0.9939
 4489TIP3   OH234881   3.069   0.069  17.133 -0.4405  0.0397 -0.3217
 4489TIP3    H134882   3.135   0.103  17.073 -0.7260  0.3743 -0.4449
 4489TIP3    H234883   3.063  -0.024  17.113 -1.0311  0.2746 -1.2828
 4490TIP3   OH234884   6.409   1.185   3.049 -0.1976  0.4276 -0.2183
 4490TIP3    H134885   6.333   1.210   3.101 -0.1295  0.1489  0.0134
 4490TIP3    H234886   6.375   1.122   2.986 -0.2890  0.7975 -0.5459
 4491TIP3   OH234887   5.309   6.480  10.842 -0.0828 -0.1104 -0.2728
 4491TIP3    H134888   5.321   6.575  10.839  1.6461 -0.3117 -1.0967
 4491TIP3    H234889   5.338   6.450  10.755  1.4760 -1.5729  0.6891
 4492TIP3   OH234890   2.236   4.785   2.246 -0.1437  0.4875  0.0099
 4492TIP3    H134891   2.206   4.715   2.303  0.6649  0.1173 -0.0062
 4492TIP3    H234892   2.327   4.799   2.271  0.0205  0.7903 -0.7192
 4493TIP3   OH234893   6.046   6.769  10.543  0.3049 -0.1715 -0.0980
 4493TIP3    H134894   5.954   6.781  10.520  0.1090 -1.7808 -0.3300
 4493TIP3    H234895   6.044   6.726  10.629  0.8344 -0.3078 -0.1474
 4494TIP3   OH234896   2.878   3.401  15.551  0.4543 -0.0080 -0.7551
 4494TIP3    H134897   2.973   3.396  15.547  0.6819  2.8443 -0.6458
 4494TIP3    H234898   2.857   3.374  15.641  1.1764 -0.3335 -0.6750
 4495TIP3   OH234899   4.356   2.917  16.992  0.8778 -0.7855  0.5422
 4495TIP3    H134900   4.319   2.842  16.945  1.3170 -1.1920  0.8355
 4495TIP3    H234901   4.403   2.878  17.066 -2.4893 -0.0273  3.3273
 4496TIP3   OH234902   5.742   5.036  15.597 -0.0434  0.1188 -0.6554
 4496TIP3    H134903   5.717   4.954  15.555  0.0139 -0.3921  0.2731
 4496TIP3    H234904   5.663   5.090  15.592 -0.9793 -0.9799  1.0467
 4497TIP3   OH234905   0.106   5.109  16.411  0.2750 -0.1630  0.2034
 4497TIP3    H134906   0.089   5.064  16.328  1.6524 -1.6598  0.6931
 4497TIP3    H234907   0.052   5.063  16.475 -0.3231  0.6054  0.2706
 4498TIP3   OH234908   4.688   2.370   0.967 -0.4001  0.1751  0.0131
 4498TIP3    H134909   4.675   2.277   0.946 -0.8582  0.2212  0.0851
 4498TIP3    H234910   4.751   2.400   0.902 -0.6844 -0.0484 -0.3698
 4499TIP3   OH234911   3.416   5.579  14.163  0.2295  0.0742 -0.0323
 4499TIP3    H134912   3.451   5.652  14.112  2.9079 -1.1357 -0.0851
 4499TIP3    H234913   3.481   5.564  14.232  1.4969 -4.0759 -1.7732
 4500TIP3   OH234914   6.563   4.409   6.788 -0.0618  0.4484 -0.4955
 4500TIP3    H134915   6.495   4.476   6.792  0.2599  0.7296  0.6058
 4500TIP3    H234916   6.614   4.422   6.868 -0.8631 -2.0272  0.5099
 4501TIP3   OH234917   1.172   0.549  15.960  0.4866 -0.2533  0.1470
 4501TIP3    H134918   1.201   0.600  16.035 -0.8282  3.9555 -1.9168
 4501TIP3    H234919   1.236   0.569  15.891 -0.0655 -1.4708 -0.7544
 4502TIP3   OH234920   5.136   4.726  13.867  0.4191 -0.0926 -0.4795
 4502TIP3    H134921   5.124   4.646  13.917 -0.6307 -1.1978 -2.3983
 4502TIP3    H234922   5.222   4.716  13.826  0.4925 -0.0231 -0.3423
 4503TIP3   OH234923   2.675   4.315   0.970 -0.2036  0.2593 -0.3349
 4503TIP3    H134924   2.594   4.364   0.985  1.2526  2.7619  0.0225
 4503TIP3    H234925   2.715   4.359   0.894  1.4542  0.0333  0.3722
 4504TIP3   OH234926   4.981   5.466  13.270  0.2422  0.1901  0.1514
 4504TIP3    H134927   5.002   5.376  13.246 -1.1788 -0.3962  0.9822
 4504TIP3    H234928   4.887   5.466  13.287 -0.0545  2.1590 -1.1472
 4505TIP3   OH234929   0.111   6.061   5.643 -0.5122 -0.7311 -0.0844
 4505TIP3    H134930   0.116   6.153   5.670  0.1739 -0.5805 -0.7014
 4505TIP3    H234931   0.138   6.012   5.720 -1.7597 -0.4777  0.5540
 4506TIP3   OH234932   4.739   2.061  12.856 -0.6036 -0.2800 -0.1751
 4506TIP3    H134933   4.662   2.071  12.911 -0.4124  0.1751  0.0188
 4506TIP3    H234934   4.705   2.041  12.769 -0.9519  0.1751 -0.1490
 4507TIP3   OH234935   3.052   4.856  15.520 -0.7860  0.4990 -0.0126
 4507TIP3    H134936   2.981   4.848  15.455 -0.6427 -1.5640  0.0068
 4507TIP3    H234937   3.081   4.766  15.534  2.0754  1.3137 -0.2371
 4508TIP3   OH234938   3.531   1.562  11.155 -0.4487  0.4564  0.4760
 4508TIP3    H134939   3.593   1.634  11.145  0.5561 -0.3058  0.9613
 4508TIP3    H234940   3.486   1.557  11.070  0.1518  1.0299  0.1143
 4509TIP3   OH234941   5.454   0.407   0.906 -0.2006 -0.2561  0.1288
 4509TIP3    H134942   5.531   0.464   0.909 -1.6541  1.8424 -0.2311
 4509TIP3    H234943   5.478   0.337   0.845  0.6565  1.6357 -1.8397
 4510TIP3   OH234944   1.099   4.154   2.007  0.4269 -0.6853 -0.0336
 4510TIP3    H134945   1.030   4.176   2.070  0.4408 -0.7752  0.0126
 4510TIP3    H234946   1.098   4.226   1.944 -1.2584 -1.7972 -1.3600
 4511TIP3   OH234947   1.876   6.599   0.401  0.6612  0.8917 -0.2541
 4511TIP3    H134948   1.868   6.685   0.442 -1.6254  0.1107  1.1419
 4511TIP3    H234949   1.849   6.614   0.310 -0.6148  1.5264  0.1950
 4512TIP3   OH234950   0.998   1.088  14.254  0.4222  0.4500 -0.1167
 4512TIP3    H134951   1.033   1.102  14.342 -0.2288  0.7810  0.0997
 4512TIP3    H234952   1.057   1.137  14.197  0.9637  0.0703  0.1103
 4513TIP3   OH234953   4.621   1.359   4.617  0.1638 -0.1158  0.3596
 4513TIP3    H134954   4.639   1.299   4.544 -0.8946  0.6990 -0.6140
 4513TIP3    H234955   4.699   1.413   4.623  0.9103 -1.2158  0.8938
 4514TIP3   OH234956   3.020   2.646   3.722 -0.1329  0.9152  0.0413
 4514TIP3    H134957   3.072   2.584   3.772 -1.5019 -0.4189 -0.1251
 4514TIP3    H234958   3.080   2.719   3.705  1.2808  0.0088  0.9160
 4515TIP3   OH234959   3.970   3.281   1.876 -0.2046 -0.4940  0.1428
 4515TIP3    H134960   3.941   3.244   1.960 -0.1274 -0.8450  0.0156
 4515TIP3    H234961   3.951   3.375   1.884 -0.7679 -0.6184  0.3143
 4516TIP3   OH234962   6.440   3.549   3.816  0.0178  0.5866 -0.0782
 4516TIP3    H134963   6.477   3.518   3.899  0.7491 -2.3009 -1.3560
 4516TIP3    H234964   6.420   3.641   3.832  0.8744  0.3572  3.0300
 4517TIP3   OH234965   2.862   4.525   0.022 -0.2206  0.4032 -0.0642
 4517TIP3    H134966   2.787   4.492  -0.028 -0.3877  1.6519 -0.6867
 4517TIP3    H234967   2.938   4.505  -0.032  0.4911 -4.2910  2.2064
 4518TIP3   OH234968   1.712   0.018   1.077  0.3566 -0.2106  0.2718
 4518TIP3    H134969   1.765  -0.020   1.006  2.5055 -0.2191  1.7955
 4518TIP3    H234970   1.768   0.085   1.115 -1.4728  1.0832  0.8353
 4519TIP3   OH234971   4.737   6.523  14.311  0.0960  0.1883 -0.2798
 4519TIP3    H134972   4.808   6.495  14.368 -0.1198  1.4565  0.6611
 4519TIP3    H234973   4.759   6.613  14.287 -0.0427 -0.1639 -1.8854
 4520TIP3   OH234974   2.876   1.588  14.098  0.2714  0.6972  0.1762
 4520TIP3    H134975   2.851   1.549  14.182  0.8852  1.5477  0.7654
 4520TIP3    H234976   2.971   1.600  14.103  0.6066 -0.8867 -1.3587
 4521TIP3   OH234977   0.635   1.035  12.568 -0.1757  0.0947  0.8980
 4521TIP3    H134978   0.608   1.081  12.488 -1.6752 -2.9816 -0.5272
 4521TIP3    H234979   0.710   0.983  12.541  0.8685  0.8820  2.2053
 4522TIP3   OH234980   0.915   0.004   5.801  0.0014  0.4559 -0.1792
 4522TIP3    H134981   0.913  -0.013   5.895  1.6578 -1.4030 -0.4057
 4522TIP3    H234982   0.975   0.077   5.791  2.1598 -1.1698  0.0863
 4523TIP3   OH234983   5.802   1.381   5.872 -0.3035  0.1900  0.4489
 4523TIP3    H134984   5.830   1.456   5.820 -1.2773  0.0646 -0.2717
 4523TIP3    H234985   5.778   1.419   5.957  0.8963  0.4445  0.6975
 4524TIP3   OH234986   0.135   3.557  16.335 -0.2657  0.5070  0.0708
 4524TIP3    H134987   0.219   3.577  16.292  0.6839  0.3449  1.7647
 4524TIP3    H234988   0.089   3.641  16.338  0.4266  0.8840  0.3368
 4525TIP3   OH234989   2.099   4.922  13.587  0.1682 -0.2329  0.2428
 4525TIP3    H134990   2.090   4.826  13.592  1.9923 -0.4283  0.3175
 4525TIP3    H234991   2.183   4.936  13.544 -0.5304  1.3648 -0.6616
 4526TIP3   OH234992   4.066   6.391  16.480  0.6224  0.3426  0.0554
 4526TIP3    H134993   4.051   6.485  16.470  1.1912  0.4355  0.0378
 4526TIP3    H234994   4.073   6.377  16.574 -0.3086  0.1767  0.1090
 4527TIP3   OH234995   5.696   6.692   2.093 -0.2535 -0.5226  0.0249
 4527TIP3    H134996   5.653   6.776   2.074 -0.8111 -1.0210 -0.9902
 4527TIP3    H234997   5.774   6.692   2.037 -0.7549 -1.0749 -0.6856
 4528TIP3   OH234998   2.649   1.394   1.939 -0.5503  0.0989 -0.3392
 4528TIP3    H134999   2.621   1.303   1.945 -0.0118 -0.0230  0.5498
 4528TIP3    H235000   2.712   1.396   1.867  1.6704 -0.8709  1.4508
 4529TIP3   OH235001   2.142   2.303   3.570  0.2728  0.2410  0.6637
 4529TIP3    H135002   2.153   2.229   3.630  0.6329  0.4742  0.8936
 4529TIP3    H235003   2.130   2.263   3.485 -1.7166 -0.1328  1.0839
 4530TIP3   OH235004   3.769   3.266   3.583  0.0238  0.0263 -0.7241
 4530TIP3    H135005   3.721   3.312   3.651 -0.3173  0.0147 -0.9560
 4530TIP3    H235006   3.860   3.295   3.593  0.6986 -2.5670  1.9844
 4531TIP3   OH235007   3.511   6.363   5.451 -0.5027  0.2445  0.6301
 4531TIP3    H135008   3.484   6.450   5.422 -0.7872  0.8697  2.5932
 4531TIP3    H235009   3.443   6.304   5.419 -0.1408  0.6654 -0.9976
 4532TIP3   OH235010   3.943   0.167  12.179  0.2475 -0.3675 -0.0139
 4532TIP3    H135011   4.036   0.181  12.195  0.2165 -0.0179 -0.1296
 4532TIP3    H235012   3.909   0.127  12.259  0.2197  0.7518  0.5486
 4533TIP3   OH235013   4.487   4.452  15.378 -0.0483 -0.4794 -0.1858
 4533TIP3    H135014   4.503   4.527  15.435  0.4482 -1.1337  0.5433
 4533TIP3    H235015   4.414   4.480  15.322  0.4402  0.7226 -0.2575
 4534TIP3   OH235016   3.256   3.060   1.594  0.7226  0.0166 -0.6123
 4534TIP3    H135017   3.294   3.108   1.667  0.4581 -0.7438  0.0378
 4534TIP3    H235018   3.165   3.047   1.618  0.3486  0.7148 -1.5867
 4535TIP3   OH235019   5.500   4.513  12.456  0.5737 -0.1724 -0.0949
 4535TIP3    H135020   5.436   4.452  12.419  0.2086 -0.3461  0.8175
 4535TIP3    H235021   5.571   4.515  12.391 -0.9254  1.0675 -1.8248
 4536TIP3   OH235022   2.363   6.115   3.332 -0.3451 -0.2040  0.1620
 4536TIP3    H135023   2.457   6.106   3.315 -0.0121  1.0230  1.2313
 4536TIP3    H235024   2.326   6.032   3.301  0.9635 -0.3914 -1.0374
 4537TIP3   OH235025   2.846   2.646   5.431  0.0518 -0.2731 -0.0423
 4537TIP3    H135026   2.900   2.673   5.357  0.2310  0.8071  0.4780
 4537TIP3    H235027   2.907   2.635   5.504  0.0467 -2.4220 -0.2823
 4538TIP3   OH235028   2.145   2.474   1.019 -0.2211  0.0352 -0.3465
 4538TIP3    H135029   2.090   2.479   1.098 -1.0479  0.2603 -0.9261
 4538TIP3    H235030   2.084   2.448   0.950  0.7288 -1.3260 -0.6923
 4539TIP3   OH235031   1.267   0.732  12.959 -0.0729  0.4450  0.3369
 4539TIP3    H135032   1.340   0.712  13.018 -0.0307  1.5489  0.6645
 4539TIP3    H235033   1.277   0.824  12.937 -0.7999  0.3604 -0.4318
 4540TIP3   OH235034   3.208   4.787   4.371 -0.2735  0.0886 -0.2158
 4540TIP3    H135035   3.209   4.692   4.361 -0.9257 -0.0261  0.6092
 4540TIP3    H235036   3.120   4.813   4.342  0.1775  0.5440 -1.2094
 4541TIP3   OH235037   3.976   6.319  14.244  0.2709  0.0298  0.4678
 4541TIP3    H135038   3.984   6.386  14.177 -1.2817  1.4603  1.6399
 4541TIP3    H235039   3.920   6.252  14.205 -1.3800  1.2785  0.5858
 4542TIP3   OH235040   2.151   3.464   3.732  0.5289  0.3267  0.0206
 4542TIP3    H135041   2.105   3.444   3.814  2.0682 -0.0089  0.8312
 4542TIP3    H235042   2.121   3.552   3.709  0.6060  0.7249  1.3409
 4543TIP3   OH235043   3.178   3.780  13.803  0.6152  0.1536  0.5493
 4543TIP3    H135044   3.186   3.700  13.751 -2.5953  0.2047 -0.1721
 4543TIP3    H235045   3.206   3.753  13.891 -0.9242 -1.9778  0.4630
 4544TIP3   OH235046   3.104   4.361   2.578  0.2966  0.0235  0.1177
 4544TIP3    H135047   3.123   4.380   2.670  1.0620  0.8012 -0.1799
 4544TIP3    H235048   3.148   4.432   2.530 -0.1925 -0.3081 -0.8357
 4545TIP3   OH235049   2.480   2.281   1.326  0.1644 -0.1094  0.5010
 4545TIP3    H135050   2.547   2.314   1.266  0.7165  0.5308  1.4280
 4545TIP3    H235051   2.442   2.360   1.365  0.9752 -0.5102  2.1999
 4546TIP3   OH235052   1.895   2.098  16.689  0.2035 -0.0516  0.1634
 4546TIP3    H135053   1.827   2.066  16.747 -0.5542 -0.2737 -0.8244
 4546TIP3    H235054   1.977   2.068  16.728 -0.1211  1.4381  2.1485
 4547TIP3   OH235055   5.685   2.033  15.890  0.0831  0.5702 -0.4385
 4547TIP3    H135056   5.612   2.093  15.877  0.0345  1.5435  3.1181
 4547TIP3    H235057   5.761   2.090  15.901  0.5242 -0.1326  0.3139
 4548TIP3   OH235058   4.828   0.512   2.629  0.8705  0.3647  0.4705
 4548TIP3    H135059   4.792   0.557   2.705 -0.1936  1.3325 -0.5773
 4548TIP3    H235060   4.835   0.420   2.657 -0.8144  0.4548  1.2869
 4549TIP3   OH235061   5.288   4.941  16.105  0.3260 -0.0708 -0.5437
 4549TIP3    H135062   5.375   4.916  16.073  0.0896 -1.5516 -0.1308
 4549TIP3    H235063   5.233   4.943  16.026  0.3949 -0.7544 -0.6166
 4550TIP3   OH235064   4.404   1.842   2.735 -0.3755  0.1978 -0.0679
 4550TIP3    H135065   4.481   1.865   2.787 -2.1186  0.7035  2.4644
 4550TIP3    H235066   4.357   1.924   2.724 -0.0720  0.1238 -2.6315
 4551TIP3   OH235067   4.747   1.133  12.538  0.0152  0.5777 -0.5900
 4551TIP3    H135068   4.730   1.151  12.631 -0.7701  0.6170 -0.7318
 4551TIP3    H235069   4.673   1.079  12.511 -0.1929  1.2469 -1.4023
 4552TIP3   OH235070   6.593   0.937   2.816 -0.1526  0.1235 -0.1801
 4552TIP3    H135071   6.592   0.893   2.901  0.9797 -1.0345 -0.7262
 4552TIP3    H235072   6.502   0.959   2.799 -0.4882 -0.2812  0.9985
 4553TIP3   OH235073   3.399   5.540  11.427 -0.2342  0.2906 -0.0378
 4553TIP3    H135074   3.491   5.516  11.414 -0.5580 -0.3581 -1.3282
 4553TIP3    H235075   3.363   5.543  11.338 -1.5108  0.3062  0.4717
 4554TIP3   OH235076   6.136   3.903   5.891 -0.4770  0.0924 -0.8564
 4554TIP3    H135077   6.177   3.822   5.919 -0.6177 -0.3980 -2.0372
 4554TIP3    H235078   6.192   3.972   5.927 -1.2609 -0.4384  1.5955
 4555TIP3   OH235079   2.076   5.706  13.163  0.0655  0.1187 -0.2998
 4555TIP3    H135080   2.014   5.763  13.118  0.0550 -0.8935 -1.5966
 4555TIP3    H235081   2.161   5.749  13.152  0.0525 -0.0939 -1.2479
 4556TIP3   OH235082   3.651   4.732  13.908 -0.2748  0.4046  0.0114
 4556TIP3    H135083   3.660   4.817  13.951 -0.1486  0.4130 -0.0307
 4556TIP3    H235084   3.605   4.677  13.971 -0.4844  0.5479 -0.0177
 4557TIP3   OH235085   6.644   0.982  15.029  0.0455 -0.3560 -0.1624
 4557TIP3    H135086   6.670   0.909  14.973  0.7827 -0.0293 -0.2462
 4557TIP3    H235087   6.595   1.040  14.971  0.0438 -0.4491 -0.2559
 4558TIP3   OH235088   4.500   2.176  11.339 -0.4310 -0.0290  0.1914
 4558TIP3    H135089   4.426   2.149  11.285  1.1466 -2.0542 -1.0992
 4558TIP3    H235090   4.546   2.241  11.286  0.6230 -1.3715 -0.6201
 4559TIP3   OH235091   3.817   1.568   4.950  0.1502  0.1079 -0.1939
 4559TIP3    H135092   3.769   1.512   5.010 -0.1239  1.7801  1.2285
 4559TIP3    H235093   3.867   1.508   4.896  0.1060 -1.4948  1.4514
 4560TIP3   OH235094   3.301   3.578  17.270 -0.1977 -0.0789 -0.4348
 4560TIP3    H135095   3.352   3.515  17.321 -0.5748  0.0978  0.1635
 4560TIP3    H235096   3.222   3.530  17.244  0.0259 -0.1909 -0.9210
 4561TIP3   OH235097   4.628   3.673   0.155 -0.3631 -0.7416  0.1946
 4561TIP3    H135098   4.683   3.606   0.196 -0.4966 -1.3966 -0.6600
 4561TIP3    H235099   4.564   3.696   0.221  1.5461  0.8224  1.6250
 4562TIP3   OH235100   5.688   4.073   0.076  0.1080 -0.4443 -0.2979
 4562TIP3    H135101   5.646   3.995   0.039  1.8515 -1.2119 -0.7325
 4562TIP3    H235102   5.719   4.045   0.162  1.9481 -0.6730 -1.0061
 4563TIP3   OH235103   3.629   4.347   0.889 -0.5612 -0.9321 -0.0091
 4563TIP3    H135104   3.553   4.345   0.947  0.7235 -2.0188  1.7334
 4563TIP3    H235105   3.680   4.270   0.914  1.1619 -0.1914 -1.0645
 4564TIP3   OH235106   4.778   6.322   5.307  1.3466 -0.2649  0.2703
 4564TIP3    H135107   4.715   6.260   5.270  1.5477 -0.1476 -0.2854
 4564TIP3    H235108   4.725   6.384   5.356  0.9824  0.0411 -0.4880
 4565TIP3   OH235109   2.636   0.405  15.011 -0.2395  0.0296  0.1233
 4565TIP3    H135110   2.705   0.339  15.024 -1.7809 -1.5329  0.7616
 4565TIP3    H235111   2.576   0.391  15.084 -1.9303  0.4271 -1.1405
 4566TIP3   OH235112   3.107   3.118   3.909  0.1892  0.4804  0.0426
 4566TIP3    H135113   3.065   3.157   3.986 -0.5545 -0.0017 -0.1189
 4566TIP3    H235114   3.045   3.132   3.838  1.5047  2.2661 -0.8373
 4567TIP3   OH235115   5.812   2.656   0.055  0.3001 -0.4160  0.2811
 4567TIP3    H135116   5.766   2.729   0.096  1.2687  1.0818 -1.1507
 4567TIP3    H235117   5.743   2.602   0.016 -0.3417  1.1101 -0.7814
 4568TIP3   OH235118   3.190   0.165   5.142  0.3035 -0.3294  0.4556
 4568TIP3    H135119   3.202   0.243   5.196 -0.0207  0.4791 -0.6137
 4568TIP3    H235120   3.123   0.190   5.078 -0.2517 -1.6831  0.4643
 4569TIP3   OH235121   1.315   1.827  15.153  0.4923 -0.2947  0.2786
 4569TIP3    H135122   1.391   1.865  15.197  0.6791  0.6952 -0.8398
 4569TIP3    H235123   1.272   1.901  15.110 -0.3391 -1.0435 -0.2252
 4570TIP3   OH235124   5.155   6.318  13.037 -0.0696  0.1168 -0.4518
 4570TIP3    H135125   5.207   6.391  13.071  0.9551 -0.7327 -0.1305
 4570TIP3    H235126   5.156   6.329  12.942  0.6325  0.1679 -0.4439
 4571TIP3   OH235127   4.864   5.117  11.137 -0.7111  0.2299 -0.3372
 4571TIP3    H135128   4.856   5.210  11.157  2.0271  0.2465  1.1700
 4571TIP3    H235129   4.816   5.073  11.208 -1.3746  0.4533 -0.6373
 4572TIP3   OH235130   3.368   2.371   5.078  0.1828 -0.5985 -0.0465
 4572TIP3    H135131   3.412   2.451   5.109 -1.6024  0.6774 -0.6460
 4572TIP3    H235132   3.351   2.387   4.985  0.3286 -1.9654 -0.3347
 4573TIP3   OH235133   6.268   5.949   3.256  0.0615 -0.1724 -0.0198
 4573TIP3    H135134   6.210   5.984   3.189 -0.3586  0.3683  0.6145
 4573TIP3    H235135   6.339   6.013   3.263  0.7395 -0.8118 -0.7673
 4574TIP3   OH235136   4.620   4.345   2.368  0.0019 -0.3253 -0.4773
 4574TIP3    H135137   4.575   4.429   2.360 -0.0632 -0.0275  2.1531
 4574TIP3    H235138   4.711   4.364   2.346  0.0460  0.5416  0.3621
 4575TIP3   OH235139   5.024   5.408   0.082 -0.3537  0.1790 -0.3137
 4575TIP3    H135140   5.114   5.433   0.103 -0.2989 -1.1979  1.2826
 4575TIP3    H235141   4.972   5.485   0.102  0.3539  0.6383 -0.2193
 4576TIP3   OH235142   1.444   4.365   6.609  0.1605  0.3170  0.8936
 4576TIP3    H135143   1.402   4.434   6.661  0.1879  0.1857  1.0918
 4576TIP3    H235144   1.529   4.401   6.586 -0.4282  0.9803 -0.3436
 4577TIP3   OH235145   2.516   4.336  16.959 -0.1714 -0.3979 -0.1093
 4577TIP3    H135146   2.466   4.297  16.887  0.0153 -0.5292 -0.1670
 4577TIP3    H235147   2.536   4.424  16.929 -0.4182 -0.3247 -0.0626
 4578TIP3   OH235148   3.872   4.307   1.927 -0.3109 -0.2880 -0.5321
 4578TIP3    H135149   3.949   4.335   1.975 -0.8776 -0.1264  0.3030
 4578TIP3    H235150   3.810   4.380   1.936 -0.4969 -0.3297 -1.3542
 4579TIP3   OH235151   4.988   5.725   4.337 -0.4937 -0.4989  0.4604
 4579TIP3    H135152   5.042   5.721   4.416  0.9846  0.7296 -0.4390
 4579TIP3    H235153   5.005   5.642   4.292  2.1365  0.5771 -0.6925
 4580TIP3   OH235154   2.791   4.251  13.355  0.0624  0.0635  0.1629
 4580TIP3    H135155   2.781   4.340  13.321 -0.8377 -0.0718  0.0624
 4580TIP3    H235156   2.809   4.263  13.448 -1.7218  0.3123  0.4999
 4581TIP3   OH235157   5.774   1.188  15.914 -0.5847 -0.0699 -0.0595
 4581TIP3    H135158   5.779   1.263  15.855  0.4513 -0.3329 -0.3195
 4581TIP3    H235159   5.720   1.219  15.987  1.2482  1.5319  0.6948
 4582TIP3   OH235160   5.266   1.076  12.970  0.5590  0.1440 -0.2951
 4582TIP3    H135161   5.221   0.997  12.941  0.1663  0.4089 -0.4140
 4582TIP3    H235162   5.315   1.049  13.048  0.7310 -0.3031 -0.5545
 4583TIP3   OH235163   0.864   5.603   5.585  0.5286 -0.2898  0.3290
 4583TIP3    H135164   0.855   5.669   5.654  0.3494  0.0973 -0.0594
 4583TIP3    H235165   0.897   5.651   5.510  0.2806 -0.6232  0.0036
 4584TIP3   OH235166   3.925   4.304  13.241 -0.8162 -0.3593 -0.2813
 4584TIP3    H135167   3.840   4.268  13.217 -2.7240  2.1201  2.0627
 4584TIP3    H235168   3.946   4.261  13.324  0.2355 -0.8954 -0.8040
 4585TIP3   OH235169   6.013   3.101  16.668  0.1373  0.0299 -0.2376
 4585TIP3    H135170   5.919   3.087  16.660  0.2085 -0.0099 -1.1897
 4585TIP3    H235171   6.051   3.013  16.663  0.2874  0.1358 -1.0759
 4586TIP3   OH235172   0.464   4.115  12.800  0.2401 -0.5265  0.1738
 4586TIP3    H135173   0.421   4.050  12.744  1.4022 -0.6811 -0.5706
 4586TIP3    H235174   0.557   4.094  12.794  0.7404  1.6461 -0.7077
 4587TIP3   OH235175   5.986   0.344  15.774  0.5275  0.4541  0.0450
 4587TIP3    H135176   5.896   0.363  15.750  0.6777  0.8848 -0.1901
 4587TIP3    H235177   6.034   0.425  15.756  0.9466  0.2597  0.2471
 4588TIP3   OH235178   6.400   5.743  13.889  0.2218 -0.1262  0.0944
 4588TIP3    H135179   6.422   5.800  13.963  0.3456  0.4182 -0.3553
 4588TIP3    H235180   6.411   5.655  13.923  0.7546  0.1248  0.5898
 4589TIP3   OH235181   4.565   0.293  16.440 -0.1873 -0.1556  0.7543
 4589TIP3    H135182   4.546   0.238  16.364  0.3339 -0.0854  0.5718
 4589TIP3    H235183   4.489   0.282  16.497 -0.2216 -0.8290  0.5829
 4590TIP3   OH235184   5.247   3.688  10.910  0.0894 -0.4390 -0.6724
 4590TIP3    H135185   5.235   3.685  11.005  1.1589 -0.2760 -0.5212
 4590TIP3    H235186   5.205   3.770  10.884 -0.7393 -0.7778 -0.4279
 4591TIP3   OH235187   0.597   4.988   0.911  0.4890  0.1522 -0.2449
 4591TIP3    H135188   0.618   4.961   1.001  0.1331  0.0340 -0.1933
 4591TIP3    H235189   0.642   4.925   0.856 -0.2555 -0.4962 -0.1258
 4592TIP3   OH235190   0.970   5.628   1.502  0.1918 -0.0125 -0.2785
 4592TIP3    H135191   0.922   5.582   1.432  0.1527  0.0064 -0.2643
 4592TIP3    H235192   1.062   5.608   1.485  0.1417 -0.5147  0.0238
 4593TIP3   OH235193   1.312   4.134   1.614 -0.4523 -0.6261 -0.1167
 4593TIP3    H135194   1.299   4.068   1.681  0.2599  0.0276  0.6853
 4593TIP3    H235195   1.255   4.207   1.640  0.3754 -0.0782  0.2003
 4594TIP3   OH235196   1.458   1.694   5.186  0.1484 -0.4829 -0.0616
 4594TIP3    H135197   1.447   1.630   5.116 -1.6738 -1.7932  1.3214
 4594TIP3    H235198   1.443   1.645   5.267  0.1877  1.3831  1.1578
 4595TIP3   OH235199   5.854   1.880   4.887 -0.6151 -0.1674 -0.6647
 4595TIP3    H135200   5.797   1.840   4.821 -2.2025 -3.0135  2.1478
 4595TIP3    H235201   5.800   1.884   4.966  2.3546 -0.8588  1.5703
 4596TIP3   OH235202   5.727   1.912   2.860 -0.1662 -0.2366 -0.0247
 4596TIP3    H135203   5.714   1.882   2.770  1.4125 -2.6210  0.4722
 4596TIP3    H235204   5.818   1.890   2.880 -0.8509 -0.9631  2.5874
 4597TIP3   OH235205   2.930   0.343  10.622  0.4520 -0.1951 -0.1796
 4597TIP3    H135206   2.839   0.368  10.607  1.3163  1.8201 -2.8835
 4597TIP3    H235207   2.946   0.365  10.714 -1.6578 -0.1808  0.2239
 4598TIP3   OH235208   4.385   3.892  16.320 -0.1721  0.2570 -0.3483
 4598TIP3    H135209   4.408   3.882  16.227  1.7592  2.1693 -0.1572
 4598TIP3    H235210   4.446   3.833  16.365  1.2877  1.8200 -0.1509
 4599TIP3   OH235211   0.199   4.260  14.328 -0.4919  0.2057 -0.2257
 4599TIP3    H135212   0.143   4.190  14.362  1.5839 -1.4083  0.0704
 4599TIP3    H235213   0.175   4.267  14.236 -2.3080  0.7574  0.2330
 4600TIP3   OH235214   6.102   6.314   0.517 -0.9956  0.1115 -0.1953
 4600TIP3    H135215   6.196   6.299   0.523 -0.5663  2.7955  1.2293
 4600TIP3    H235216   6.075   6.269   0.437  1.5290 -0.5310 -0.7536
 4601TIP3   OH235217   1.789   1.267  10.906 -0.1595  0.1894  0.5603
 4601TIP3    H135218   1.700   1.292  10.880  1.0515  3.7848 -0.6800
 4601TIP3    H235219   1.827   1.227  10.828  0.3365  1.8978 -0.1262
 4602TIP3   OH235220   6.743   6.187  14.371 -0.0015 -0.0493  0.2863
 4602TIP3    H135221   6.656   6.191  14.410  0.0823 -0.4124  0.5195
 4602TIP3    H235222   6.803   6.184  14.446  0.2319  0.5677  0.1290
 4603TIP3   OH235223   5.201   0.084   1.231 -0.2561  0.4161 -0.0470
 4603TIP3    H135224   5.165   0.172   1.235 -1.4358 -0.0173 -0.5178
 4603TIP3    H235225   5.179   0.054   1.142 -1.7970 -1.1123  0.7862
 4604TIP3   OH235226   5.041   1.721  10.856  0.2045  0.0828 -0.1555
 4604TIP3    H135227   4.988   1.654  10.899 -0.1852  0.0630 -0.6638
 4604TIP3    H235228   4.977   1.780  10.817  0.5642 -0.1459 -1.1018
 4605TIP3   OH235229   4.074   1.142  14.572  0.2716  0.0083  0.3251
 4605TIP3    H135230   4.030   1.060  14.593  1.7843 -1.0127 -0.2973
 4605TIP3    H235231   4.165   1.127  14.597  0.8909  0.9170 -1.2508
 4606TIP3   OH235232   4.325   1.362   2.881  0.1522 -0.2425  0.4433
 4606TIP3    H135233   4.413   1.329   2.860  0.3298 -0.5865  1.6715
 4606TIP3    H235234   4.324   1.451   2.845  1.4657  0.2352  1.5156
 4607TIP3   OH235235   6.074   5.993  12.162  0.0107  0.3171  0.4971
 4607TIP3    H135236   6.140   6.059  12.141  3.4372 -2.5460  1.1556
 4607TIP3    H235237   6.109   5.948  12.239 -2.9062 -1.2821  1.0407
 4608TIP3   OH235238   3.247   3.359   2.683 -0.5305  0.1835 -0.0041
 4608TIP3    H135239   3.180   3.413   2.725  0.0302  0.8372  0.0737
 4608TIP3    H235240   3.284   3.307   2.755 -0.3261  0.4960  0.1175
 4609TIP3   OH235241   2.022   4.068   4.999 -0.1585 -0.6990 -0.0211
 4609TIP3    H135242   2.010   4.087   5.092 -1.2535 -1.2607 -0.0347
 4609TIP3    H235243   1.945   4.106   4.956  0.3054 -0.5031 -0.6917
 4610TIP3   OH235244   6.409   2.534   3.590  0.0019  0.4853  0.6257
 4610TIP3    H135245   6.433   2.589   3.664 -0.1944 -1.0301  1.8605
 4610TIP3    H235246   6.389   2.448   3.628  2.4247 -1.1378 -1.4161
 4611TIP3   OH235247   3.493   5.661  12.120 -0.0812 -0.1616 -0.1384
 4611TIP3    H135248   3.489   5.592  12.186  0.7791  0.8032  0.9729
 4611TIP3    H235249   3.407   5.660  12.078 -0.7709 -0.5585  1.2371
 4612TIP3   OH235250   4.899   4.961  14.869 -0.1909  1.0983  0.1052
 4612TIP3    H135251   4.925   4.883  14.918 -0.4407  0.1344 -1.2312
 4612TIP3    H235252   4.810   4.979  14.897 -0.4437  0.3696 -0.2236
 4613TIP3   OH235253   0.030   0.796   3.218  0.5905  0.1102  0.3329
 4613TIP3    H135254   0.068   0.713   3.249 -2.5643 -1.6542 -0.1344
 4613TIP3    H235255   0.036   0.790   3.123 -0.5148 -0.0270  0.2699
 4614TIP3   OH235256   1.004   3.260   2.708  0.0214 -0.1100  0.3852
 4614TIP3    H135257   1.028   3.210   2.630 -0.9064 -0.0786  0.0651
 4614TIP3    H235258   0.914   3.289   2.691  0.4186  1.3943  0.7006
 4615TIP3   OH235259   4.242   3.360  14.566 -0.1669  0.0456 -0.1817
 4615TIP3    H135260   4.242   3.440  14.512  0.3294 -0.1462 -0.4765
 4615TIP3    H235261   4.330   3.323  14.554 -0.2548 -0.3251  0.2831
 4616TIP3   OH235262   0.528   4.432   2.749  0.3728  0.1779 -0.6824
 4616TIP3    H135263   0.471   4.358   2.772  0.6483  0.2484  0.2614
 4616TIP3    H235264   0.521   4.492   2.823  3.0502 -0.6448  0.3353
 4617TIP3   OH235265   5.431   1.233   6.592  0.0787  0.4657  0.1315
 4617TIP3    H135266   5.368   1.160   6.586  0.1212  0.4173  0.2724
 4617TIP3    H235267   5.511   1.192   6.624  0.7569  0.1847 -1.8228
 4618TIP3   OH235268   1.328   1.615  13.333 -0.0153  0.1024 -0.0419
 4618TIP3    H135269   1.306   1.671  13.408  0.4732 -1.1240  1.0415
 4618TIP3    H235270   1.293   1.663  13.257 -3.3034 -0.0558  1.2066
 4619TIP3   OH235271   6.227   5.748  14.405  0.7485 -0.4178 -0.3151
 4619TIP3    H135272   6.285   5.686  14.360  2.2948  0.8526 -0.1836
 4619TIP3    H235273   6.286   5.818  14.435 -0.9098  1.1080 -0.4424
 4620TIP3   OH235274   5.414   6.378  11.242 -0.3726 -0.3047 -0.2981
 4620TIP3    H135275   5.432   6.459  11.290  0.4704 -0.7602  0.1837
 4620TIP3    H235276   5.322   6.384  11.217 -0.5737  0.3750  0.5589
 4621TIP3   OH235277   2.973   0.288   4.334  0.0787  0.8114 -0.1331
 4621TIP3    H135278   2.963   0.204   4.289  0.0125 -0.2802  1.8164
 4621TIP3    H235279   2.895   0.296   4.388  1.1058  1.0203  1.3843
 4622TIP3   OH235280   6.521   5.111  13.754 -0.4716 -0.1646  0.6128
 4622TIP3    H135281   6.494   5.020  13.762 -2.7247  0.2705 -1.0740
 4622TIP3    H235282   6.528   5.126  13.660  1.0882  1.1033  0.8846
 4623TIP3   OH235283   6.644   6.731  15.364 -0.2664  0.1186  0.3814
 4623TIP3    H135284   6.683   6.781  15.436 -2.0014  1.2597  0.5904
 4623TIP3    H235285   6.698   6.753  15.288  1.8634 -1.4532  1.3456
 4624TIP3   OH235286   6.410   3.184  12.742 -0.4642  0.3108  0.4863
 4624TIP3    H135287   6.369   3.243  12.679  0.2161 -0.7814 -1.0398
 4624TIP3    H235288   6.351   3.185  12.818 -1.1595  1.8749 -0.0281
 4625TIP3   OH235289   2.997   5.393   0.320 -1.3203  1.0633  0.4138
 4625TIP3    H135290   3.007   5.484   0.346 -0.1913  1.2129 -0.4272
 4625TIP3    H235291   3.084   5.355   0.333 -1.2679  0.6186 -1.0577
 4626TIP3   OH235292   6.379   1.359  16.711  0.3461  0.1742 -0.0022
 4626TIP3    H135293   6.424   1.380  16.629 -2.0723 -0.3208 -1.5533
 4626TIP3    H235294   6.366   1.264  16.708  0.5858  0.0886  1.1671
 4627TIP3   OH235295   6.734   2.688   3.688  0.9233 -0.0598 -0.6892
 4627TIP3    H135296   6.747   2.782   3.698  2.1928 -0.3716  1.1404
 4627TIP3    H235297   6.684   2.679   3.607 -0.3727  2.2434 -0.2327
 4628TIP3   OH235298   5.251   6.272   3.352 -0.3576 -0.0975 -0.5259
 4628TIP3    H135299   5.316   6.329   3.392 -1.8976  0.8170  0.8274
 4628TIP3    H235300   5.220   6.321   3.276  0.0818 -0.2632 -0.8160
 4629TIP3   OH235301   5.498   4.198  13.980 -0.0367  0.0166  0.0470
 4629TIP3    H135302   5.554   4.217  13.904 -1.5757  2.6408 -0.5630
 4629TIP3    H235303   5.409   4.211  13.948 -0.8711 -1.1853  1.7395
 4630TIP3   OH235304   3.337   3.767   5.334  0.2969 -0.1197  0.3550
 4630TIP3    H135305   3.412   3.813   5.372 -1.1522  0.8325  2.1703
 4630TIP3    H235306   3.374   3.683   5.305  2.5103  1.1743 -0.8833
 4631TIP3   OH235307   4.580   0.528  13.317  0.3214 -0.0253 -0.4602
 4631TIP3    H135308   4.609   0.617  13.337 -0.1452 -0.1748  1.0595
 4631TIP3    H235309   4.484   0.533  13.316  0.2756 -0.5561  0.0152
 4632TIP3   OH235310   0.896   5.790   4.224 -0.1815 -0.6435  0.1341
 4632TIP3    H135311   0.858   5.731   4.159 -2.2810 -0.1859  0.8465
 4632TIP3    H235312   0.860   5.876   4.202  2.7928  0.4721 -0.8634
 4633TIP3   OH235313   1.127   1.309  16.278  0.1675 -0.3105  0.3977
 4633TIP3    H135314   1.124   1.235  16.339  0.6832 -0.1242  0.6561
 4633TIP3    H235315   1.036   1.338  16.270 -0.1160 -1.3176 -0.1315
 4634TIP3   OH235316   1.570   1.082   4.777 -0.8951 -0.5929  0.5232
 4634TIP3    H135317   1.602   1.172   4.766 -1.9818 -0.2552 -0.0942
 4634TIP3    H235318   1.540   1.057   4.689 -0.3113 -1.6834  0.6251
 4635TIP3   OH235319   5.943   6.405   3.647 -0.2363  1.1987  0.5517
 4635TIP3    H135320   5.924   6.498   3.657 -1.0122  1.0798  0.2715
 4635TIP3    H235321   5.899   6.363   3.721 -1.1305  0.9154 -0.1145
 4636TIP3   OH235322   2.525   1.379  15.523 -0.2742 -0.4361  0.9537
 4636TIP3    H135323   2.595   1.396  15.586  0.8125 -1.7545  0.1449
 4636TIP3    H235324   2.514   1.462  15.477  2.1103 -0.6961 -0.1984
 4637TIP3   OH235325   5.681   3.638   0.093 -0.4642  0.1803 -0.0882
 4637TIP3    H135326   5.596   3.596   0.104  0.2033 -0.7000  2.3342
 4637TIP3    H235327   5.744   3.566   0.096  0.4086  0.8033 -1.9628
 4638TIP3   OH235328   1.031   6.586   3.207  0.5976  0.3997 -0.1984
 4638TIP3    H135329   1.006   6.667   3.163 -0.1003  0.5403  0.4433
 4638TIP3    H235330   1.047   6.612   3.298 -0.6127 -0.3450  0.2443
 4639TIP3   OH235331   0.743   1.823   1.784  0.0245 -0.0531  0.5259
 4639TIP3    H135332   0.665   1.865   1.747 -0.4385 -0.9277  0.4860
 4639TIP3    H235333   0.798   1.804   1.708  1.0927  2.1058  0.6859
 4640TIP3   OH235334   2.394   1.712  13.353 -0.5231 -0.2762 -0.2943
 4640TIP3    H135335   2.350   1.778  13.407  0.4033 -0.2635  0.4828
 4640TIP3    H235336   2.485   1.714  13.384 -0.0538 -0.5363 -1.6212
 4641TIP3   OH235337   0.653   5.668   0.572 -0.1157 -0.4369  0.2497
 4641TIP3    H135338   0.709   5.676   0.495 -1.5044 -0.2572 -0.7822
 4641TIP3    H235339   0.576   5.620   0.541  0.1998 -2.2257  2.0560
 4642TIP3   OH235340   3.597   5.416   4.065  0.3618  0.0108 -0.3749
 4642TIP3    H135341   3.595   5.351   4.136 -0.3620  0.5879  0.1500
 4642TIP3    H235342   3.636   5.493   4.105  1.2964 -0.1216 -1.0214
 4643TIP3   OH235343   2.094   5.440   3.287 -0.2050 -0.0910  0.1856
 4643TIP3    H135344   2.108   5.417   3.195  0.7596  0.2339  0.2432
 4643TIP3    H235345   2.070   5.533   3.285  1.0276  0.2376  0.3508
 4644TIP3   OH235346   0.326   4.719  15.493 -0.1380  0.1769 -0.0305
 4644TIP3    H135347   0.317   4.775  15.415  1.3541  0.8658  0.2721
 4644TIP3    H235348   0.254   4.747  15.550 -0.2523  0.8086 -0.4674
 4645TIP3   OH235349   6.478   0.608   5.164 -0.3572 -0.0371 -0.4618
 4645TIP3    H135350   6.569   0.629   5.183  0.5221 -3.2235 -0.5148
 4645TIP3    H235351   6.447   0.561   5.241 -1.8106  0.5670 -0.6507
 4646TIP3   OH235352   2.879   6.444  15.292 -0.0855 -0.2785 -0.0834
 4646TIP3    H135353   2.893   6.369  15.350 -2.4542 -0.4241  0.3976
 4646TIP3    H235354   2.951   6.504  15.311  1.4429 -2.0790  0.0519
 4647TIP3   OH235355   2.730   5.020  12.409 -0.6773 -0.5535 -0.8974
 4647TIP3    H135356   2.743   5.039  12.316  0.4507 -1.4661 -0.9455
 4647TIP3    H235357   2.660   4.955  12.411 -0.2070 -1.0727 -1.1652
 4648TIP3   OH235358   5.992   5.855   2.970 -0.4372 -0.2055  0.0265
 4648TIP3    H135359   6.009   5.791   3.039 -0.3229 -0.9479 -0.6863
 4648TIP3    H235360   5.900   5.841   2.947 -0.2728 -0.4541 -0.4791
 4649TIP3   OH235361   2.148   4.810  12.180  0.0367  0.0736 -0.5798
 4649TIP3    H135362   2.172   4.719  12.163 -0.7399  0.2120 -2.6755
 4649TIP3    H235363   2.134   4.814  12.275 -0.0912 -2.0306 -0.4667
 4650TIP3   OH235364   0.491   0.317  15.377 -0.6507  0.5751  0.3149
 4650TIP3    H135365   0.480   0.228  15.410 -0.4730  0.3880 -0.1314
 4650TIP3    H235366   0.550   0.358  15.441  0.0422  0.0801  0.0031
 4651TIP3   OH235367   1.851   6.455  10.922  0.0586 -0.0077  0.0585
 4651TIP3    H135368   1.862   6.370  10.879  0.6880  0.5952 -0.9987
 4651TIP3    H235369   1.937   6.495  10.920 -0.4579  1.1314 -0.4784
 4652TIP3   OH235370   1.151   1.404   2.613 -0.5029  0.4295 -0.0257
 4652TIP3    H135371   1.163   1.499   2.612  0.1492  0.3903  1.1044
 4652TIP3    H235372   1.067   1.389   2.570  0.2865  1.3430 -2.0086
 4653TIP3   OH235373   5.954   1.743   5.493  0.6602 -0.2572  0.1094
 4653TIP3    H135374   6.011   1.803   5.446 -0.2834  0.6601  0.0966
 4653TIP3    H235375   5.915   1.688   5.425 -1.0782  1.3905 -0.3039
 4654TIP3   OH235376   3.279   0.987   5.649 -0.2438  0.0340 -0.5823
 4654TIP3    H135377   3.374   0.993   5.653 -0.1774 -0.5021 -1.2580
 4654TIP3    H235378   3.252   1.067   5.603 -0.3915  1.8732  2.4674
 4655TIP3   OH235379   5.101   4.092  13.357 -0.6571 -0.2200  0.3656
 4655TIP3    H135380   5.042   4.117  13.428 -0.3622  1.6035  0.0259
 4655TIP3    H235381   5.188   4.104  13.394 -0.4753  1.9430 -0.5967
 4656TIP3   OH235382   0.700   6.151   4.737  0.4791  0.0882 -0.0705
 4656TIP3    H135383   0.737   6.132   4.650  0.9040 -0.2114  0.1717
 4656TIP3    H235384   0.742   6.234   4.763  1.0360 -0.2747  0.2239
 4657TIP3   OH235385   6.736   0.157  15.562 -0.1517 -0.5161 -0.2575
 4657TIP3    H135386   6.719   0.188  15.651 -2.5874 -3.0169  0.2784
 4657TIP3    H235387   6.669   0.199  15.508 -0.1508 -0.7864 -0.4722
 4658TIP3   OH235388   6.137   5.615   4.410 -0.1584  0.2623 -0.2343
 4658TIP3    H135389   6.143   5.520   4.414 -1.9632  0.1208 -0.0933
 4658TIP3    H235390   6.222   5.646   4.442 -0.2843 -1.2796  1.7671
 4659TIP3   OH235391   6.483   4.096  12.469 -0.0492 -0.2490  0.4984
 4659TIP3    H135392   6.418   4.121  12.404 -0.0771 -1.1049  0.1775
 4659TIP3    H235393   6.457   4.140  12.549 -1.2354 -0.8615  0.4655
 4660TIP3   OH235394   2.065   5.157   3.310  0.1749  0.2163  0.0089
 4660TIP3    H135395   2.084   5.251   3.310 -1.3387  0.7361  4.5107
 4660TIP3    H235396   2.134   5.119   3.365  0.1018 -1.1686 -0.8110
 4661TIP3   OH235397   2.954   0.544   4.115 -0.0165  0.5086 -0.4415
 4661TIP3    H135398   2.999   0.510   4.193  0.5910  0.8609 -0.6280
 4661TIP3    H235399   2.940   0.467   4.060 -1.3141  0.1036  0.4241
 4662TIP3   OH235400   4.880   6.306  13.482  0.0163 -0.1506 -0.2411
 4662TIP3    H135401   4.932   6.384  13.463  2.9881 -1.4068  1.9719
 4662TIP3    H235402   4.845   6.280  13.397  3.5894  0.4664 -2.1073
 4663TIP3   OH235403   4.452   2.685  14.933  0.1564  0.1385  0.2733
 4663TIP3    H135404   4.428   2.771  14.968 -0.6517 -0.2689  0.7489
 4663TIP3    H235405   4.536   2.699  14.889 -0.1731  1.2661 -0.0298
 4664TIP3   OH235406   6.512   3.931  16.900 -0.1079  0.4667  0.3407
 4664TIP3    H135407   6.563   3.883  16.835 -2.1677 -0.5609 -0.6039
 4664TIP3    H235408   6.559   4.014  16.910  2.0992 -0.6596  0.0669
 4665TIP3   OH235409   1.227   6.520  17.055  0.2811 -0.0137  0.5131
 4665TIP3    H135410   1.162   6.585  17.082  1.0080  0.2871  1.6438
 4665TIP3    H235411   1.285   6.568  16.997  1.3477  0.6646  2.0573
 4666TIP3   OH235412   1.357   3.949   0.987  0.1902 -0.0273 -0.1616
 4666TIP3    H135413   1.399   3.888   0.926 -0.2892 -0.5397  0.0118
 4666TIP3    H235414   1.306   3.893   1.045  1.6636  0.2969  1.5681
 4667TIP3   OH235415   0.684   5.867  10.961 -0.1852 -0.1790 -0.1120
 4667TIP3    H135416   0.655   5.901  10.876 -2.1000  1.2020  1.0061
 4667TIP3    H235417   0.779   5.861  10.953 -0.0688  2.1403 -1.6189
 4668TIP3   OH235418   0.307   2.134  16.718 -0.5308 -0.5093 -0.5389
 4668TIP3    H135419   0.374   2.109  16.781  0.1353  1.0082 -0.5992
 4668TIP3    H235420   0.292   2.055  16.666  1.0567 -0.9494 -0.3832
 4669TIP3   OH235421   3.158   1.819  12.504  0.0037 -0.8604 -0.1524
 4669TIP3    H135422   3.178   1.772  12.423 -0.3080 -0.0196 -0.7340
 4669TIP3    H235423   3.138   1.908  12.476 -2.7308 -1.1631  0.5225
 4670TIP3   OH235424   0.132   3.477  15.906 -0.0919  0.1827 -0.2246
 4670TIP3    H135425   0.055   3.451  15.956  0.0536 -0.9503 -0.5703
 4670TIP3    H235426   0.112   3.451  15.816  1.6661 -2.4705  0.0507
 4671TIP3   OH235427   4.828   4.857  11.776 -0.1184  0.7208  0.5662
 4671TIP3    H135428   4.912   4.897  11.798 -0.0733  0.8590  0.1398
 4671TIP3    H235429   4.848   4.763  11.770  0.3960  0.9118 -1.2701
 4672TIP3   OH235430   1.594   3.496   4.640  0.3955  0.1571  0.1326
 4672TIP3    H135431   1.689   3.510   4.637  0.2283  1.2029 -1.8894
 4672TIP3    H235432   1.564   3.553   4.711  1.2848 -0.4548  1.0303
 4673TIP3   OH235433   6.238   6.487  12.931  0.1632 -0.4383 -0.5559
 4673TIP3    H135434   6.169   6.445  12.879  0.0303 -1.1087  0.1366
 4673TIP3    H235435   6.199   6.570  12.958 -0.0444 -0.4175 -0.9110
 4674TIP3   OH235436   6.098   5.867  16.007  0.2932 -0.5155  0.0121
 4674TIP3    H135437   6.006   5.849  16.027  0.0447  1.2382  0.6145
 4674TIP3    H235438   6.112   5.825  15.921 -0.6296 -2.0365  0.5511
 4675TIP3   OH235439   4.594   4.887   4.368  0.4338 -0.2323  0.5600
 4675TIP3    H135440   4.647   4.883   4.289  0.9065  2.4040  0.6480
 4675TIP3    H235441   4.523   4.947   4.347  0.7679  0.8209  2.1860
 4676TIP3   OH235442   6.189   3.151   4.739  0.4564  0.4660 -0.6824
 4676TIP3    H135443   6.198   3.212   4.666  1.5703  0.6719 -0.3987
 4676TIP3    H235444   6.096   3.130   4.742  0.3814  0.4600 -2.1524
 4677TIP3   OH235445   4.603   2.309  11.694  0.0843 -0.1036 -0.8452
 4677TIP3    H135446   4.635   2.335  11.608 -0.8710  1.8159 -0.6608
 4677TIP3    H235447   4.629   2.381  11.752  0.1643 -1.0750  0.3666
 4678TIP3   OH235448   3.191   3.492   2.033 -0.0699 -0.3594  0.3805
 4678TIP3    H135449   3.160   3.499   2.124  0.3538  0.2863  0.4805
 4678TIP3    H235450   3.178   3.579   1.997 -1.7584 -0.9984 -0.6983
 4679TIP3   OH235451   4.364   4.817  11.837 -0.5364 -0.6340  0.0994
 4679TIP3    H135452   4.418   4.741  11.857  1.1446  0.3782 -0.4080
 4679TIP3    H235453   4.315   4.833  11.918 -1.2740 -2.4796  0.0777
 4680TIP3   OH235454   1.871   3.676  15.639  0.4679 -0.4169 -0.1714
 4680TIP3    H135455   1.875   3.746  15.573  0.6844 -0.2953 -0.0305
 4680TIP3    H235456   1.908   3.715  15.718 -1.5066  0.0448  0.5666
 4681TIP3   OH235457   4.780   2.431   6.168  0.1960  0.0062  0.0322
 4681TIP3    H135458   4.869   2.402   6.187  0.6035  1.3977  0.3058
 4681TIP3    H235459   4.751   2.476   6.247 -0.4698  0.2417 -0.3377
 4682TIP3   OH235460   2.278   2.317   2.427 -0.2786  0.1169 -0.6808
 4682TIP3    H135461   2.315   2.229   2.419  0.6464  0.5346 -1.0731
 4682TIP3    H235462   2.206   2.318   2.364 -1.4296 -0.9091  0.5370
 4683TIP3   OH235463   0.597   2.046   5.292  0.0876  0.2850 -0.2455
 4683TIP3    H135464   0.607   2.141   5.292  0.5774  0.2396 -0.3576
 4683TIP3    H235465   0.607   2.021   5.384  2.1403  0.1505 -0.4535
 4684TIP3   OH235466   3.780   3.791  15.902 -0.3474 -0.0546  0.1512
 4684TIP3    H135467   3.839   3.729  15.945 -1.3928  0.3366  2.2704
 4684TIP3    H235468   3.811   3.877  15.931 -2.1579  0.1421  1.6928
 4685TIP3   OH235469   5.107   5.579   6.134 -0.1913 -0.1626  0.1818
 4685TIP3    H135470   5.039   5.642   6.160  0.0102 -0.0264  0.3851
 4685TIP3    H235471   5.157   5.625   6.067  0.6700  0.3452  1.1439
 4686TIP3   OH235472   3.248   6.344   1.679 -0.2097 -0.2589 -0.4823
 4686TIP3    H135473   3.225   6.404   1.751  0.3632  0.0653 -0.5691
 4686TIP3    H235474   3.291   6.270   1.722  1.8683  0.7957 -0.6348
 4687TIP3   OH235475   1.258   1.386   1.959  0.0749  0.4360  0.0477
 4687TIP3    H135476   1.237   1.394   2.052 -0.8711  1.9965 -0.2483
 4687TIP3    H235477   1.352   1.368   1.956  0.2570  1.1139  1.2896
 4688TIP3   OH235478   3.288   1.988  12.999 -0.8625  0.2056  0.8618
 4688TIP3    H135479   3.378   2.022  13.003 -1.4601  1.9573  0.2380
 4688TIP3    H235480   3.234   2.065  12.980 -2.1241 -1.3196 -2.6477
 4689TIP3   OH235481   1.108   3.157   6.595  0.1380  0.3118  0.3884
 4689TIP3    H135482   1.032   3.180   6.648 -1.5328  0.2257 -1.8351
 4689TIP3    H235483   1.104   3.062   6.584 -0.0335  0.4096 -0.5342
 4690TIP3   OH235484   4.561   0.770  11.469  0.0154 -0.3761  0.0644
 4690TIP3    H135485   4.617   0.700  11.500  0.3815 -0.5597 -0.9658
 4690TIP3    H235486   4.474   0.748  11.502  0.3439 -0.6818  0.7310
 4691TIP3   OH235487   6.010   2.035  14.480 -0.0173  0.2704  0.3939
 4691TIP3    H135488   6.033   2.107  14.422 -0.4052  0.9438  1.0589
 4691TIP3    H235489   6.075   1.967  14.461  2.4259  1.9971  2.0257
 4692TIP3   OH235490   0.935   4.741   0.637  0.2086  0.5762  0.0735
 4692TIP3    H135491   0.915   4.746   0.544 -1.5621 -3.4230  0.0513
 4692TIP3    H235492   1.018   4.694   0.641  0.7067  1.4557  0.5699
 4693TIP3   OH235493   5.621   0.279   5.651 -0.0041 -0.0961 -0.1483
 4693TIP3    H135494   5.538   0.324   5.631 -0.3367  0.8306  2.7939
 4693TIP3    H235495   5.684   0.350   5.664 -0.2514 -0.3389  3.3870
 4694TIP3   OH235496   3.952   6.275  17.189 -0.6634 -0.2117 -0.4901
 4694TIP3    H135497   3.955   6.353  17.244 -2.1031 -0.2324 -0.3511
 4694TIP3    H235498   3.980   6.305  17.102 -0.1192  0.1995 -0.1791
 4695TIP3   OH235499   1.211   6.630   3.754  0.3509 -0.4901  0.6995
 4695TIP3    H135500   1.235   6.544   3.721  0.1273 -0.4545  0.4415
 4695TIP3    H235501   1.226   6.689   3.680 -0.2825 -0.4282  0.6205
 4696TIP3   OH235502   0.573   4.642   4.662 -0.0809 -0.0164  0.4729
 4696TIP3    H135503   0.587   4.568   4.722  1.2337  0.1248  0.3817
 4696TIP3    H235504   0.482   4.668   4.675 -0.4335 -1.3633  0.8372
 4697TIP3   OH235505   3.937   5.807   5.661  0.3493  0.6630 -0.7330
 4697TIP3    H135506   3.843   5.792   5.671  0.2925  0.7614 -1.1250
 4697TIP3    H235507   3.965   5.842   5.746  0.0766  0.4206 -0.5424
 4698TIP3   OH235508   4.774   1.820  12.422  0.0908 -0.5463  0.1814
 4698TIP3    H135509   4.805   1.764  12.492  2.8389 -1.2190 -1.4089
 4698TIP3    H235510   4.722   1.762  12.366  2.3974 -1.4933 -1.1193
 4699TIP3   OH235511   4.942   5.199  14.266 -0.3270 -0.3737 -0.1109
 4699TIP3    H135512   4.950   5.228  14.176 -1.0566  0.3780  0.0574
 4699TIP3    H235513   4.848   5.188  14.280 -0.1405 -2.2740  0.0233
 4700TIP3   OH235514   4.277   6.490  14.295  0.8297 -0.2905  0.0815
 4700TIP3    H135515   4.316   6.562  14.246  0.2590  0.9085  1.3206
 4700TIP3    H235516   4.333   6.481  14.372 -0.9987  1.1836  1.6825
 4701TIP3   OH235517   5.766   1.888  14.377  0.7082  0.1683 -0.0798
 4701TIP3    H135518   5.825   1.903  14.303 -0.7797  1.6412 -1.0269
 4701TIP3    H235519   5.816   1.917  14.453  0.6536  3.1332 -1.0549
 4702TIP3   OH235520   3.978   4.579  15.602  0.0776  0.5753  0.9308
 4702TIP3    H135521   4.035   4.551  15.674  0.4862  0.1795  0.4666
 4702TIP3    H235522   4.037   4.624  15.541 -0.2125  0.6677  0.7145
 4703TIP3   OH235523   5.852   3.882   2.953 -0.5178 -0.5024  0.3894
 4703TIP3    H135524   5.852   3.872   2.858 -0.6214 -0.9937  0.4407
 4703TIP3    H235525   5.935   3.844   2.981 -0.2161  0.1747  0.4449
 4704TIP3   OH235526   4.030   0.298  12.640 -0.1898  0.1929 -0.2569
 4704TIP3    H135527   4.120   0.320  12.662 -0.3174 -0.5676  1.1633
 4704TIP3    H235528   4.029   0.202  12.637 -0.9510  0.1942 -0.2388
 4705TIP3   OH235529   5.438   1.196  11.628 -0.1670 -0.4053  0.4339
 4705TIP3    H135530   5.453   1.101  11.626 -0.7770 -0.5020 -0.3132
 4705TIP3    H235531   5.504   1.231  11.568 -0.5920 -0.4701 -0.0817
 4706TIP3   OH235532   1.420   1.298  15.792 -0.7749  0.6393  0.3634
 4706TIP3    H135533   1.379   1.385  15.787  1.4734  1.6887 -1.5336
 4706TIP3    H235534   1.437   1.274  15.701  2.9136  0.4023  0.9697
 4707TIP3   OH235535   2.106   5.129   0.860 -0.3231 -0.1675 -0.2769
 4707TIP3    H135536   2.077   5.062   0.798 -0.7834 -0.9915  0.8027
 4707TIP3    H235537   2.102   5.211   0.810 -0.5420 -0.8218 -1.3689
 4708TIP3   OH235538   1.223   5.493   5.909 -0.0350  0.3871 -0.4806
 4708TIP3    H135539   1.283   5.422   5.929  0.1254 -0.0840 -2.4880
 4708TIP3    H235540   1.159   5.456   5.848 -2.1358  1.0028  1.2244
 4709TIP3   OH235541   2.904   1.075  13.071 -0.2676 -0.3479  0.6985
 4709TIP3    H135542   2.925   1.016  13.144 -0.7708  0.7456  1.7652
 4709TIP3    H235543   2.817   1.110  13.094 -1.6742 -1.9490 -1.7205
 4710TIP3   OH235544   1.977   0.614   4.276 -0.0894  0.5957 -0.6190
 4710TIP3    H135545   1.908   0.638   4.214 -0.6303 -1.9172 -1.1156
 4710TIP3    H235546   2.046   0.575   4.221  0.4515  0.4661  0.1334
 4711TIP3   OH235547   3.283   0.585  14.139  0.3955  0.4773  0.3753
 4711TIP3    H135548   3.197   0.545  14.151  0.3194 -0.4837 -2.6723
 4711TIP3    H235549   3.267   0.664  14.089  1.2382  0.6125  0.2973
 4712TIP3   OH235550   1.096   4.426   1.469 -0.4921 -0.5293 -0.4102
 4712TIP3    H135551   1.070   4.517   1.472 -1.2485 -0.7376 -0.5399
 4712TIP3    H235552   1.191   4.428   1.459 -0.5089  0.2371 -0.4076
 4713TIP3   OH235553   6.108   0.176   4.035 -0.0846  0.2210  0.0523
 4713TIP3    H135554   6.195   0.196   4.070  0.7509 -0.3745 -1.5574
 4713TIP3    H235555   6.060   0.258   4.042  0.8538  0.7672  0.2938
 4714TIP3   OH235556   3.102   1.377  16.224 -0.1450  0.6067 -0.2793
 4714TIP3    H135557   3.076   1.321  16.297  0.0907  0.5165 -0.2624
 4714TIP3    H235558   3.022   1.421  16.197 -0.1259  1.0934  0.4213
 4715TIP3   OH235559   3.812   5.028   1.734 -0.1207 -0.1511  0.0230
 4715TIP3    H135560   3.787   5.076   1.813 -1.3072 -0.7387  0.0273
 4715TIP3    H235561   3.827   4.938   1.764  0.5171 -0.1362 -0.2395
 4716TIP3   OH235562   5.244   1.293  10.593  0.2168 -0.1567  0.3134
 4716TIP3    H135563   5.172   1.354  10.608  0.4943  1.1228 -2.8097
 4716TIP3    H235564   5.213   1.210  10.630 -1.9930  0.8154  0.8099
 4717TIP3   OH235565   3.626   4.099  15.704  0.1266  0.2161  0.2060
 4717TIP3    H135566   3.616   4.049  15.784  0.2511  0.8661  0.6399
 4717TIP3    H235567   3.579   4.049  15.637  0.9691 -0.9027  0.4306
 4718TIP3   OH235568   6.363   1.611   0.476  0.1628  0.4528  0.5884
 4718TIP3    H135569   6.435   1.667   0.504  0.4756  0.2554  0.1828
 4718TIP3    H235570   6.356   1.545   0.545 -0.5572  1.2880  1.3411
 4719TIP3   OH235571   5.417   3.577   0.152  0.0936 -0.2270  0.1160
 4719TIP3    H135572   5.404   3.654   0.207  0.1731  0.0422 -0.2414
 4719TIP3    H235573   5.356   3.512   0.187 -0.1305  0.0698  0.2791
 4720TIP3   OH235574   6.303   5.908  15.614  0.5386  0.2457  0.0259
 4720TIP3    H135575   6.343   5.995  15.618  0.5828  0.2957 -1.1949
 4720TIP3    H235576   6.327   5.867  15.698  0.3184  1.4796  0.7175
 4721TIP3   OH235577   4.283   0.550   1.821 -0.1344 -0.1574  0.2583
 4721TIP3    H135578   4.196   0.589   1.814 -1.0159 -2.1360 -0.4855
 4721TIP3    H235579   4.312   0.573   1.910 -1.3222  0.6709  0.4626
 4722TIP3   OH235580   2.566   2.130   0.197  0.3132 -0.6605 -0.0146
 4722TIP3    H135581   2.623   2.070   0.246  1.1923  1.7404  2.1868
 4722TIP3    H235582   2.625   2.175   0.137  0.1865 -0.2188  0.1866
 4723TIP3   OH235583   4.929   4.383   3.485  0.4641 -0.1706 -0.0753
 4723TIP3    H135584   4.888   4.309   3.531 -2.4859  0.9663 -0.6313
 4723TIP3    H235585   5.006   4.404   3.538  0.0453 -2.1096  1.4407
 4724TIP3   OH235586   0.157   0.203   5.313  0.2778 -0.0288  0.0666
 4724TIP3    H135587   0.180   0.112   5.331  2.5480  0.5324  0.3507
 4724TIP3    H235588   0.119   0.201   5.225  1.4795 -1.1091 -0.4619
 4725TIP3   OH235589   2.720   0.549   1.943  0.0801  0.3982 -0.2235
 4725TIP3    H135590   2.653   0.495   1.985 -0.4752  1.1351 -0.1405
 4725TIP3    H235591   2.692   0.639   1.960  0.9689  0.7163 -0.3919
 4726TIP3   OH235592   1.169   1.213   4.325 -0.3894  0.5452  0.0662
 4726TIP3    H135593   1.234   1.228   4.257 -0.1635  0.9216  0.3630
 4726TIP3    H235594   1.217   1.220   4.407 -0.3572 -1.3538  0.2519
 4727TIP3   OH235595   0.794   0.432  14.803 -0.2562  0.3989 -0.3729
 4727TIP3    H135596   0.823   0.488  14.875 -0.5446 -0.8132  0.7284
 4727TIP3    H235597   0.875   0.403  14.761 -0.1195  2.3593 -1.5804
 4728TIP3   OH235598   4.273   3.428   4.539  0.2626 -0.0857 -0.3225
 4728TIP3    H135599   4.300   3.520   4.541  0.7894 -0.2428  0.7542
 4728TIP3    H235600   4.316   3.389   4.615 -0.6478 -1.0262 -0.2657
 4729TIP3   OH235601   3.763   1.278   5.902  0.3182 -0.1319  0.3978
 4729TIP3    H135602   3.698   1.208   5.906  0.7557 -0.6015 -0.4197
 4729TIP3    H235603   3.723   1.345   5.846 -0.9818  1.2634  2.8275
 4730TIP3   OH235604   4.435   3.769   1.343 -0.1715  1.0961 -0.7025
 4730TIP3    H135605   4.486   3.756   1.263  0.5757  1.0131 -0.2237
 4730TIP3    H235606   4.349   3.731   1.324  0.5792 -0.6122 -0.8449
 4731TIP3   OH235607   1.482   5.373  16.058 -0.6119  0.3987  0.3392
 4731TIP3    H135608   1.517   5.445  16.007 -0.3234  1.2470  1.6692
 4731TIP3    H235609   1.550   5.306  16.055  0.1212  1.1001  0.9579
 4732TIP3   OH235610   1.630   1.357  13.353  0.4210  0.1619 -0.0634
 4732TIP3    H135611   1.625   1.453  13.344 -0.8094  0.3442  1.9642
 4732TIP3    H235612   1.723   1.337  13.338  0.8101  1.7296  0.0124
 4733TIP3   OH235613   1.477   3.948  13.481  0.5580  0.5154  0.0736
 4733TIP3    H135614   1.553   3.917  13.529  1.0289 -1.4622 -1.7883
 4733TIP3    H235615   1.508   3.958  13.391 -0.9460  1.3984 -0.3747
 4734TIP3   OH235616   2.856   5.502  16.689  0.0180 -0.3285  0.5076
 4734TIP3    H135617   2.771   5.528  16.653 -0.0102  0.7417  1.3100
 4734TIP3    H235618   2.874   5.417  16.648 -0.8014  0.0549 -0.7108
 4735TIP3   OH235619   1.553   2.545   2.569  0.2658 -0.0386 -0.2406
 4735TIP3    H135620   1.481   2.609   2.568 -0.1395 -0.4126  1.5410
 4735TIP3    H235621   1.532   2.487   2.642  0.9433 -1.8754 -1.4505
 4736TIP3   OH235622   5.163   2.744   3.143 -0.3217  0.6961 -0.3751
 4736TIP3    H135623   5.111   2.687   3.086  0.0698  0.3914 -0.4312
 4736TIP3    H235624   5.185   2.819   3.089  1.5121 -0.3820 -1.1902
 4737TIP3   OH235625   4.572   1.221  14.555  0.4260 -0.0432  0.4613
 4737TIP3    H135626   4.525   1.291  14.600 -1.4187 -0.4353 -0.7278
 4737TIP3    H235627   4.659   1.257  14.538 -0.1290  1.5488  0.8423
 4738TIP3   OH235628   5.480   0.910  14.097  0.6455 -0.2120 -0.2752
 4738TIP3    H135629   5.414   0.881  14.160  0.4941  1.3759  0.3442
 4738TIP3    H235630   5.533   0.974  14.146  0.0465  1.6484 -1.9512
 4739TIP3   OH235631   4.711   5.072  16.852 -0.1119  0.4283  0.1731
 4739TIP3    H135632   4.656   5.123  16.912 -2.1626  0.4897 -1.6293
 4739TIP3    H235633   4.652   5.049  16.781  1.7995 -1.1138 -0.9832
 4740TIP3   OH235634   1.867   0.432  15.253  0.5314 -0.5796  0.0520
 4740TIP3    H135635   1.904   0.486  15.184  0.8380  0.5744  1.0987
 4740TIP3    H235636   1.789   0.479  15.282  0.9314 -0.5555  1.1409
 4741TIP3   OH235637   5.119   1.186  12.568  0.4822 -0.6798  0.0594
 4741TIP3    H135638   5.087   1.155  12.483  1.7211  1.7764 -1.4068
 4741TIP3    H235639   5.201   1.138  12.582  0.1068 -1.3332  0.0582
 4742TIP3   OH235640   5.857   3.428  12.522  0.7123  0.0951  0.2818
 4742TIP3    H135641   5.777   3.473  12.549  0.2929  0.0465 -0.8264
 4742TIP3    H235642   5.925   3.463  12.579 -0.1882 -0.2522  1.6132
 4743TIP3   OH235643   0.205   6.389  14.099 -0.1184 -0.2170 -0.5145
 4743TIP3    H135644   0.213   6.294  14.111 -2.6929 -0.3537  1.0064
 4743TIP3    H235645   0.244   6.427  14.177  1.1717  0.0326 -1.2557
 4744TIP3   OH235646   5.153   4.641  17.055 -0.6881 -0.0922  0.1181
 4744TIP3    H135647   5.112   4.603  17.133 -0.7994 -1.1928 -0.4468
 4744TIP3    H235648   5.129   4.580  16.985  0.4314  0.2199 -0.5477
 4745TIP3   OH235649   3.677   5.925   4.916  0.0609 -0.6106  0.1936
 4745TIP3    H135650   3.608   5.971   4.964 -0.5562 -1.5055  0.1760
 4745TIP3    H235651   3.756   5.978   4.932 -0.9614  1.5486 -1.3989
 4746TIP3   OH235652   6.055   3.128  15.132 -0.5623 -0.2648 -0.0035
 4746TIP3    H135653   5.963   3.152  15.142 -0.3250  0.2081  1.2129
 4746TIP3    H235654   6.103   3.211  15.139  0.0195 -0.6215  0.3487
 4747TIP3   OH235655   2.948   1.644   0.319 -0.2299 -0.0531 -0.1962
 4747TIP3    H135656   2.964   1.563   0.368 -1.9159 -0.2615  0.0492
 4747TIP3    H235657   2.938   1.615   0.228 -1.6085 -0.2514 -0.0035
 4748TIP3   OH235658   4.907   1.613   5.591 -0.1795  0.1960 -0.2021
 4748TIP3    H135659   4.869   1.636   5.506 -0.7476 -0.0056 -0.0064
 4748TIP3    H235660   4.849   1.655   5.655  0.2014  0.2837  0.0869
 4749TIP3   OH235661   0.403   5.923   1.382 -0.2089 -0.4306  0.1011
 4749TIP3    H135662   0.383   6.004   1.428 -1.2290 -1.2092  1.0810
 4749TIP3    H235663   0.451   5.951   1.304 -1.7645  1.2345 -0.3290
 4750TIP3   OH235664   3.418   1.760   2.187 -0.0822  0.1793 -0.4537
 4750TIP3    H135665   3.388   1.788   2.273 -0.9837 -2.9122  0.3542
 4750TIP3    H235666   3.503   1.719   2.202  0.0351  0.1625 -1.1239
 4751TIP3   OH235667   6.339   5.087   3.752  0.0333  0.2219  0.8358
 4751TIP3    H135668   6.411   5.132   3.709 -0.1955  0.2354  0.4517
 4751TIP3    H235669   6.299   5.034   3.682 -0.2207  0.0833  1.0813
 4752TIP3   OH235670   4.933   2.878   4.659  0.0090 -0.0445 -0.5639
 4752TIP3    H135671   4.895   2.958   4.696  0.1646  1.5207 -3.4561
 4752TIP3    H235672   5.018   2.870   4.702 -0.7665  0.2615  1.0904
 4753TIP3   OH235673   3.228   3.661  15.007 -0.0593 -0.3826 -0.2142
 4753TIP3    H135674   3.228   3.622  14.920 -1.7250 -0.4429 -0.2215
 4753TIP3    H235675   3.311   3.633  15.046 -0.4626 -2.6141 -0.8058
 4754TIP3   OH235676   5.475   1.563   6.005 -0.0755 -0.1440  0.2298
 4754TIP3    H135677   5.561   1.532   6.035  0.4821  1.4024  0.3481
 4754TIP3    H235678   5.447   1.624   6.073 -0.2718  0.9807 -0.8338
 4755TIP3   OH235679   4.667   0.876   0.883 -0.0644  0.4522 -0.0116
 4755TIP3    H135680   4.670   0.801   0.943 -0.0549  0.5377  0.0957
 4755TIP3    H235681   4.573   0.890   0.868 -0.0484  0.0580 -0.4882
 4756TIP3   OH235682   0.937   3.257  15.464 -0.1771  0.3857 -0.1887
 4756TIP3    H135683   0.847   3.269  15.495 -0.5816  1.7870 -1.7431
 4756TIP3    H235684   0.943   3.163  15.446 -0.7955  0.0093  1.4171
 4757TIP3   OH235685   5.562   6.720  12.820 -0.2411  0.1900  0.1231
 4757TIP3    H135686   5.491   6.780  12.840 -0.9325 -0.9420  1.2026
 4757TIP3    H235687   5.576   6.729  12.726 -0.1098  2.2315  0.2914
 4758TIP3   OH235688   3.204   6.204  11.327  0.4934 -0.4324  0.1150
 4758TIP3    H135689   3.133   6.231  11.268  1.5896 -1.0450 -1.5838
 4758TIP3    H235690   3.252   6.284  11.344 -0.0497 -0.1814  0.4886
 4759TIP3   OH235691   6.487   5.032   1.172 -0.1083 -0.2405  0.1175
 4759TIP3    H135692   6.393   5.040   1.158 -0.1115  0.5585  0.5213
 4759TIP3    H235693   6.512   4.954   1.124 -1.1093 -0.9082  0.6541
 4760TIP3   OH235694   1.302   2.437  13.219  0.5720 -0.3150 -0.0483
 4760TIP3    H135695   1.285   2.480  13.135 -1.5507 -2.1706 -0.6742
 4760TIP3    H235696   1.335   2.507  13.276  1.0915  1.2137 -2.1228
 4761TIP3   OH235697   1.541   0.282   5.692  0.4724  0.0566 -0.4040
 4761TIP3    H135698   1.547   0.285   5.788  0.5435  0.0620 -0.4082
 4761TIP3    H235699   1.582   0.200   5.668 -2.1671 -1.4164 -0.2349
 4762TIP3   OH235700   5.792   1.363   1.898 -0.2301  0.1192 -0.0435
 4762TIP3    H135701   5.868   1.414   1.873 -0.6856  0.1851 -1.3542
 4762TIP3    H235702   5.724   1.387   1.835 -0.7901 -1.2680 -0.0107
 4763TIP3   OH235703   6.215   0.574  13.082 -0.4414  0.1208  0.1388
 4763TIP3    H135704   6.193   0.481  13.089 -0.7648  0.2194  0.4887
 4763TIP3    H235705   6.279   0.589  13.151 -0.2215  0.1109 -0.0625
 4764TIP3   OH235706   2.351   3.906  15.227 -0.1877  0.4153 -0.5568
 4764TIP3    H135707   2.424   3.963  15.250 -1.1801  1.5444 -0.0753
 4764TIP3    H235708   2.355   3.836  15.292  0.3652  0.5565 -0.4265
 4765TIP3   OH235709   3.158   0.228   1.715  0.7993  0.2591 -0.3494
 4765TIP3    H135710   3.216   0.155   1.692 -0.4418 -0.5798 -0.9173
 4765TIP3    H235711   3.081   0.216   1.659 -0.4932  0.6039  1.2735
 4766TIP3   OH235712   1.550   5.465  12.026 -1.1197 -0.2319  0.5728
 4766TIP3    H135713   1.470   5.514  12.043 -1.0949 -0.8744  2.9293
 4766TIP3    H235714   1.535   5.379  12.066 -0.1630 -1.2512 -1.1197
 4767TIP3   OH235715   0.078   0.240   1.435  0.0552  0.1910 -0.3099
 4767TIP3    H135716   0.166   0.201   1.437 -0.4254 -0.9249 -0.1364
 4767TIP3    H235717   0.093   0.333   1.447  1.1817 -0.0579  0.3889
 4768TIP3   OH235718   5.492   1.564   1.887  0.4012 -0.0803  0.0343
 4768TIP3    H135719   5.412   1.599   1.848  1.8271  2.1535 -1.1444
 4768TIP3    H235720   5.486   1.469   1.874 -1.4269  0.1518 -1.1904
 4769TIP3   OH235721   4.726   2.364   0.676 -0.2990 -0.4413  0.5156
 4769TIP3    H135722   4.792   2.302   0.646 -0.3556 -0.6874  0.8921
 4769TIP3    H235723   4.734   2.438   0.616 -0.6102 -1.0440 -0.2876
 4770TIP3   OH235724   0.304   2.264   2.637  0.3575  0.1002  0.5124
 4770TIP3    H135725   0.273   2.324   2.569 -1.5463 -0.5950  0.7072
 4770TIP3    H235726   0.268   2.299   2.719 -0.9683 -1.4029  0.6008
 4771TIP3   OH235727   1.165   1.957  15.915  0.3919  0.3414 -0.8827
 4771TIP3    H135728   1.078   1.952  15.954  0.9545  0.5187  0.4515
 4771TIP3    H235729   1.164   1.892  15.845 -0.5274 -0.2977 -0.3030
 4772TIP3   OH235730   0.570   2.871   0.046 -0.5968  0.3604 -0.5427
 4772TIP3    H135731   0.511   2.827   0.107 -0.2353  0.2454 -0.2782
 4772TIP3    H235732   0.534   2.851  -0.041  0.9350 -2.5927 -0.6323
 4773TIP3   OH235733   1.428   2.878   6.585 -0.4324 -0.1557 -0.3529
 4773TIP3    H135734   1.346   2.904   6.626 -1.2892  2.6379 -3.4944
 4773TIP3    H235735   1.413   2.788   6.556 -1.3929 -0.5647  1.2702
 4774TIP3   OH235736   0.743   1.048   5.309  0.1479 -0.0307  0.0265
 4774TIP3    H135737   0.826   1.091   5.327  0.1408 -0.5780  1.4821
 4774TIP3    H235738   0.678   1.118   5.319  0.3809  0.2803 -0.5916
 4775TIP3   OH235739   3.033   6.462   5.430 -0.3415  0.6573  0.1691
 4775TIP3    H135740   3.068   6.545   5.398 -1.2683  1.4833  1.2329
 4775TIP3    H235741   3.110   6.411   5.455  0.1649  2.0056  1.4576
 4776TIP3   OH235742   4.225   5.145   6.449  0.0434  0.2744  0.2793
 4776TIP3    H135743   4.312   5.115   6.475  0.0238  0.7743  0.9427
 4776TIP3    H235744   4.177   5.155   6.531 -0.2914  1.0536 -0.0006
 4777TIP3   OH235745   4.092   0.855   2.202 -0.2072 -0.1522  0.0558
 4777TIP3    H135746   4.035   0.898   2.138 -0.3365  0.9335  0.8775
 4777TIP3    H235747   4.032   0.819   2.267 -0.0250 -0.3261  0.1282
 4778TIP3   OH235748   2.715   0.671  14.353 -0.3796  0.2263 -0.0612
 4778TIP3    H135749   2.786   0.608  14.360 -1.1062 -0.5304  0.7354
 4778TIP3    H235750   2.738   0.741  14.414  0.8912  1.2494 -1.6184
 4779TIP3   OH235751   2.612   0.582   6.151  0.4103 -0.2206  0.3420
 4779TIP3    H135752   2.667   0.594   6.229 -0.4034 -0.0354  0.9022
 4779TIP3    H235753   2.523   0.597   6.183 -0.1794 -2.3992 -0.1259
 4780TIP3   OH235754   4.162   1.894  16.175 -0.2308 -0.7793 -0.0427
 4780TIP3    H135755   4.109   1.958  16.223  1.6024  1.0857 -0.3870
 4780TIP3    H235756   4.203   1.943  16.105  0.7968 -2.4709 -0.7007
 4781TIP3   OH235757   4.797   2.495   5.530  0.1724 -0.2875  0.2038
 4781TIP3    H135758   4.821   2.412   5.572 -0.9016  0.1783  1.8169
 4781TIP3    H235759   4.704   2.485   5.509 -1.0607  1.7871  3.8792
 4782TIP3   OH235760   4.611   1.258  13.527 -0.9256  0.2528  0.2963
 4782TIP3    H135761   4.556   1.335  13.522 -0.2001  0.7119 -1.0815
 4782TIP3    H235762   4.682   1.274  13.465 -0.4433 -1.2705  0.3951
 4783TIP3   OH235763   4.250   0.362   0.609 -0.1861 -0.4104 -0.0178
 4783TIP3    H135764   4.246   0.294   0.676 -3.2199 -0.8173 -0.4633
 4783TIP3    H235765   4.340   0.396   0.614 -0.1254 -0.6642  3.9738
 4784TIP3   OH235766   6.134   2.436   2.780  0.5748 -0.1745  0.5899
 4784TIP3    H135767   6.069   2.374   2.813 -1.7931  2.4687  1.1967
 4784TIP3    H235768   6.111   2.519   2.820  2.6494  1.5013 -1.4218
 4785TIP3   OH235769   2.194   3.114  15.004 -0.6148  0.2507 -0.2130
 4785TIP3    H135770   2.268   3.054  15.008 -1.2100 -0.4839  0.0503
 4785TIP3    H235771   2.146   3.088  14.926 -2.1808 -1.2312  1.1487
 4786TIP3   OH235772   3.543   2.226  14.995 -0.2447 -0.1000 -0.3139
 4786TIP3    H135773   3.546   2.320  15.014 -2.6294  0.3518 -1.8232
 4786TIP3    H235774   3.551   2.184  15.081  2.8769  1.3089  0.2409
 4787TIP3   OH235775   5.158   5.513   5.421  0.3192  0.2146  0.5156
 4787TIP3    H135776   5.089   5.453   5.452  1.8358 -0.7941  2.1410
 4787TIP3    H235777   5.119   5.600   5.429 -1.0858 -0.3719  0.4760
 4788TIP3   OH235778   1.329   6.323  12.582  0.2567  0.2821 -0.2797
 4788TIP3    H135779   1.245   6.343  12.622  0.5434  0.5142  0.2224
 4788TIP3    H235780   1.348   6.234  12.611  0.9424  0.8031  0.9906
 4789TIP3   OH235781   6.402   3.251   0.430  0.1140  0.0780  0.1719
 4789TIP3    H135782   6.343   3.263   0.356 -1.5565  1.7277  1.6762
 4789TIP3    H235783   6.435   3.339   0.448  1.5008 -0.5103  0.6121
 4790TIP3   OH235784   0.665   2.617  15.034  0.0298  0.6142 -0.2620
 4790TIP3    H135785   0.741   2.672  15.049 -0.1050  0.2882  1.9400
 4790TIP3    H235786   0.590   2.672  15.058 -0.2177  0.0411  0.3130
 4791TIP3   OH235787   1.426   0.951  13.830  1.2427 -0.2179  0.1276
 4791TIP3    H135788   1.330   0.951  13.833  1.2576  0.5960  1.3480
 4791TIP3    H235789   1.449   1.040  13.804  1.6719 -0.2678  0.3311
 4792TIP3   OH235790   4.200   0.529   3.279 -0.2304 -0.0933  0.2854
 4792TIP3    H135791   4.106   0.514   3.269 -0.3926 -0.4180  1.9639
 4792TIP3    H235792   4.240   0.446   3.256 -0.4827 -0.4493  1.1070
 4793TIP3   OH235793   4.854   2.560  15.367 -0.3266  0.3036  0.4407
 4793TIP3    H135794   4.883   2.563  15.276  2.7255  3.2448  1.2922
 4793TIP3    H235795   4.773   2.509  15.365 -0.3890  0.2025 -3.8465
 4794TIP3   OH235796   0.690   1.741   5.086  0.0700  0.1114 -0.7942
 4794TIP3    H135797   0.735   1.728   5.003  0.0146  1.5754 -1.0856
 4794TIP3    H235798   0.714   1.665   5.139  3.6259  1.2006 -0.5993
 4795TIP3   OH235799   0.613   1.613  13.180 -0.3351  0.0081  0.2926
 4795TIP3    H135800   0.592   1.639  13.091  0.5377 -1.6899 -0.4463
 4795TIP3    H235801   0.708   1.614  13.184 -0.2664 -2.2891  0.4171
 4796TIP3   OH235802   1.346   3.381  17.074  0.6629  0.7557 -0.3130
 4796TIP3    H135803   1.279   3.427  17.024  1.2233  1.9604 -0.0070
 4796TIP3    H235804   1.302   3.356  17.155  0.4362  1.0916 -0.3299
 4797TIP3   OH235805   6.725   0.896   5.599  0.4153 -0.1234 -0.3032
 4797TIP3    H135806   6.731   0.824   5.662  1.2704 -0.1173 -0.3618
 4797TIP3    H235807   6.807   0.892   5.550 -0.2075 -0.0759 -1.3743
 4798TIP3   OH235808   2.820   3.726   4.824  0.0611 -0.3832  0.2679
 4798TIP3    H135809   2.780   3.661   4.766 -1.3233 -0.5737  1.3841
 4798TIP3    H235810   2.910   3.695   4.836  0.5108 -0.1504 -2.0048
 4799TIP3   OH235811   3.190   1.208   1.296 -0.3852  0.1184 -0.0951
 4799TIP3    H135812   3.118   1.206   1.233 -0.2466 -0.7263 -0.2279
 4799TIP3    H235813   3.200   1.301   1.317  0.5538  0.6361 -2.4745
 4800TIP3   OH235814   1.257   3.503   2.136  0.3052  0.1222  0.0586
 4800TIP3    H135815   1.234   3.593   2.160  1.4347  1.2935 -2.7987
 4800TIP3    H235816   1.252   3.502   2.040  2.5613 -2.2258 -0.1340
 4801TIP3   OH235817   6.746   4.868  15.186 -0.1099 -0.3211  0.0602
 4801TIP3    H135818   6.805   4.887  15.114  0.5192 -0.6387  0.4845
 4801TIP3    H235819   6.727   4.953  15.226  0.6126 -0.2908  0.3470
 4802TIP3   OH235820   1.323   1.388   5.636 -0.0003  0.1331 -0.0270
 4802TIP3    H135821   1.247   1.424   5.680 -1.7227 -3.0281 -0.1250
 4802TIP3    H235822   1.350   1.314   5.690  1.6883 -0.1024 -1.0987
 4803TIP3   OH235823   0.576   2.053  15.704 -0.0485  1.0407 -0.0556
 4803TIP3    H135824   0.490   2.082  15.734 -0.0846 -0.3540  1.2958
 4803TIP3    H235825   0.625   2.036  15.784  1.2431  1.0670 -0.8077
 4804TIP3   OH235826   5.363   4.835   0.018 -0.5583  0.1248  0.0125
 4804TIP3    H135827   5.386   4.757  -0.033 -0.4845 -0.2809  0.6567
 4804TIP3    H235828   5.448   4.870   0.046 -0.5545  0.8494 -0.8707
 4805TIP3   OH235829   6.123   2.695   2.269  0.1794 -0.4766  0.0065
 4805TIP3    H135830   6.208   2.728   2.241 -0.3203 -0.0899 -1.1267
 4805TIP3    H235831   6.065   2.714   2.196 -1.0263 -0.1774  1.0141
 4806TIP3   OH235832   2.712   4.794  13.993  0.3837 -0.2602  0.1250
 4806TIP3    H135833   2.775   4.864  13.972 -0.7263  0.4715 -0.8522
 4806TIP3    H235834   2.744   4.718  13.945  1.8107 -0.5868  1.4821
 4807TIP3   OH235835   3.656   5.663  16.840  0.0539  0.4741 -0.3298
 4807TIP3    H135836   3.727   5.632  16.897 -0.8017  0.4100  0.7211
 4807TIP3    H235837   3.695   5.737  16.794  0.8743  0.3225  0.0867
 4808TIP3   OH235838   2.405   5.675  14.098 -0.8607 -0.7499  0.1701
 4808TIP3    H135839   2.341   5.604  14.090 -2.1389  0.5312 -1.5874
 4808TIP3    H235840   2.385   5.734  14.026  1.8219  0.1293  0.0473
 4809TIP3   OH235841   5.283   1.031   2.163 -0.3203  0.0102 -0.3722
 4809TIP3    H135842   5.227   0.955   2.152 -1.3778 -0.0216  3.5858
 4809TIP3    H235843   5.372   0.998   2.148 -0.9229 -1.3186 -1.2183
 4810TIP3   OH235844   3.028   5.958  14.344  0.3241  0.5181  0.3946
 4810TIP3    H135845   3.109   5.997  14.313 -1.0429  2.3694 -1.1210
 4810TIP3    H235846   3.002   5.897  14.275  0.0138  0.5558  0.4750
 4811TIP3   OH235847   0.969   1.422  13.335 -0.3910  0.6395  0.2057
 4811TIP3    H135848   0.928   1.476  13.403 -2.4269 -0.0377 -0.3940
 4811TIP3    H235849   0.949   1.468  13.253  0.2320  0.3831 -0.0934
 4812TIP3   OH235850   2.955   1.860  15.769 -0.1437  0.2478 -0.4938
 4812TIP3    H135851   2.940   1.769  15.796 -1.5357  0.3398 -0.8557
 4812TIP3    H235852   2.867   1.897  15.761  0.3853  1.4484 -0.9712
 4813TIP3   OH235853   1.478   2.086  11.744 -0.1203 -0.3144  0.6756
 4813TIP3    H135854   1.449   2.014  11.688 -1.4138  0.0735  0.8189
 4813TIP3    H235855   1.402   2.142  11.753  1.3895  2.2418 -1.1511
 4814TIP3   OH235856   1.335   3.729  12.243  0.0951  0.4001  0.1836
 4814TIP3    H135857   1.269   3.679  12.194 -1.0898  1.0784  1.0392
 4814TIP3    H235858   1.408   3.739  12.182  0.3497 -2.2512 -0.0866
 4815TIP3   OH235859   2.778   3.894  15.393 -1.0023  0.2967  0.2801
 4815TIP3    H135860   2.865   3.870  15.362 -0.3693  1.6480  0.9349
 4815TIP3    H235861   2.774   3.861  15.483 -0.0475  2.6511  1.2625
 4816TIP3   OH235862   1.158   1.337  14.997  0.5369  0.4927 -0.1762
 4816TIP3    H135863   1.211   1.368  15.070 -0.7856 -0.1114  1.1010
 4816TIP3    H235864   1.146   1.414  14.941  2.7645  0.6220 -0.5638
 4817TIP3   OH235865   2.320   1.125   1.199  0.3285 -0.0710 -0.3789
 4817TIP3    H135866   2.299   1.218   1.200 -2.3681 -0.5815 -1.9784
 4817TIP3    H235867   2.405   1.120   1.155  0.6084  1.6178 -0.0989
 4818TIP3   OH235868   5.737   6.067  14.158 -0.4490  0.2388  0.4042
 4818TIP3    H135869   5.748   6.134  14.226 -1.8149  1.4851 -0.5604
 4818TIP3    H235870   5.773   6.107  14.079 -0.1512 -0.6641  0.0714
 4819TIP3   OH235871   0.839   4.495  16.382 -0.0948 -0.0604 -0.5476
 4819TIP3    H135872   0.935   4.494  16.388 -0.0473  2.0562 -0.0734
 4819TIP3    H235873   0.821   4.484  16.289  0.6010 -0.6089 -0.6262
 4820TIP3   OH235874   6.491   2.124   0.696  0.7110 -0.2983 -0.2852
 4820TIP3    H135875   6.542   2.173   0.630  0.5555 -0.1767 -0.3159
 4820TIP3    H235876   6.508   2.171   0.778  0.7474 -0.3321 -0.2733
 4821TIP3   OH235877   1.801   2.382  13.131 -0.2293  0.0858 -0.1279
 4821TIP3    H135878   1.759   2.299  13.107  0.9192 -0.0824 -1.7448
 4821TIP3    H235879   1.894   2.364  13.124  0.0886  0.9984  1.4369
 4822TIP3   OH235880   6.589   2.828  14.671 -0.4449 -0.4488 -0.4952
 4822TIP3    H135881   6.675   2.818  14.712 -0.5001  0.9965  0.0515
 4822TIP3    H235882   6.574   2.746  14.625  1.4178 -0.5975 -0.9322
 4823TIP3   OH235883   1.952   6.722  15.458  0.2653 -0.2436 -0.4960
 4823TIP3    H135884   2.027   6.734  15.400  0.0730 -0.1027 -0.7211
 4823TIP3    H235885   1.972   6.644  15.509  0.5540 -0.2181 -0.5715
 4824TIP3   OH235886   0.487   3.799  11.515  0.7203 -0.4010  0.1542
 4824TIP3    H135887   0.433   3.806  11.436  1.2618 -3.0937 -0.5519
 4824TIP3    H235888   0.441   3.734  11.569  0.2368  1.5580  2.2253
 4825TIP3   OH235889   5.716   5.603   3.530  0.2148 -0.2444  0.6180
 4825TIP3    H135890   5.788   5.638   3.478  0.9623  1.4084  2.5936
 4825TIP3    H235891   5.642   5.597   3.469  1.1143  1.2797 -0.6975
 4826TIP3   OH235892   2.281   0.734   4.687 -0.4543  0.5369 -0.0401
 4826TIP3    H135893   2.279   0.716   4.781 -2.2966  2.0375  0.2840
 4826TIP3    H235894   2.189   0.741   4.662 -0.0271  3.9314 -1.1398
 4827TIP3   OH235895   3.085   4.668   2.810 -0.2144 -0.0684  0.0847
 4827TIP3    H135896   3.133   4.650   2.892  0.5111 -0.4827 -0.4201
 4827TIP3    H235897   3.027   4.740   2.832 -0.8372 -0.8916  1.2796
 4828TIP3   OH235898   1.384   5.302   3.203  0.5348  0.1434  0.7286
 4828TIP3    H135899   1.358   5.285   3.294  3.6315 -2.5335  1.2941
 4828TIP3    H235900   1.346   5.229   3.154  2.5896 -1.0375  0.7692
 4829TIP3   OH235901   5.957   3.413  17.133  0.0558  0.2960 -0.1558
 4829TIP3    H135902   5.960   3.497  17.086  0.8602  1.5040  1.8891
 4829TIP3    H235903   6.042   3.409  17.178 -0.6589 -0.7925  1.1401
 4830TIP3   OH235904   3.551   5.981  14.693 -0.4169  0.3846 -0.0487
 4830TIP3    H135905   3.549   5.894  14.733 -0.5731 -0.2402 -1.3573
 4830TIP3    H235906   3.514   6.038  14.760 -2.0499 -0.8522  0.1834
 4831TIP3   OH235907   1.442   4.067  14.973 -0.1910  0.6565  0.2581
 4831TIP3    H135908   1.349   4.052  14.954 -0.2862 -3.6392  2.8374
 4831TIP3    H235909   1.445   4.156  15.007 -2.7032  2.0858 -2.7250
 4832TIP3   OH235910   3.324   3.024  14.124 -0.1645  0.7134  0.1791
 4832TIP3    H135911   3.265   2.959  14.161 -0.4861  0.2684 -1.0558
 4832TIP3    H235912   3.334   3.090  14.192 -2.8682  1.3028  0.0933
 4833TIP3   OH235913   0.127   5.498   5.596 -0.4601 -0.6104  0.5829
 4833TIP3    H135914   0.182   5.565   5.636 -0.1554 -1.9812  2.6103
 4833TIP3    H235915   0.053   5.547   5.559  0.9284  1.0295 -0.1303
 4834TIP3   OH235916   0.913   3.580  13.981 -0.1439  0.4715 -0.1425
 4834TIP3    H135917   0.843   3.622  14.032  1.0162  3.4325 -0.7980
 4834TIP3    H235918   0.875   3.569  13.894 -0.4254  0.2561  0.0060
 4835TIP3   OH235919   1.175   5.506  15.130  0.3563  0.3845  0.3921
 4835TIP3    H135920   1.221   5.583  15.161  1.1186 -1.1000  3.2605
 4835TIP3    H235921   1.083   5.522  15.151  0.5216  0.4795  1.0489
 4836TIP3   OH235922   0.464   6.504   2.769  0.3438 -0.5526  0.7723
 4836TIP3    H135923   0.385   6.521   2.821 -0.5578 -2.8426  0.2611
 4836TIP3    H235924   0.452   6.554   2.689 -0.1946 -0.2694  1.0239
 4837TIP3   OH235925   1.010   2.137  13.094 -0.4997 -0.6810 -0.1388
 4837TIP3    H135926   1.080   2.096  13.145 -1.2596 -1.3603  0.3848
 4837TIP3    H235927   1.052   2.163  13.012  0.5631 -0.2850  0.5122
 4838TIP3   OH235928   5.178   5.943  16.193  0.3034  0.0083 -0.3495
 4838TIP3    H135929   5.102   5.975  16.143 -0.9043 -0.7397  0.9297
 4838TIP3    H235930   5.163   5.849  16.202  1.1141 -0.0645  0.3837
 4839TIP3   OH235931   5.155   1.510   1.393 -0.3534 -0.0853 -0.1685
 4839TIP3    H135932   5.201   1.515   1.476  0.8545  0.4015 -0.8307
 4839TIP3    H235933   5.197   1.438   1.346 -0.9524 -0.2886 -0.4127
 4840TIP3   OH235934   0.422   4.115  15.029  0.2338 -0.5962  0.0674
 4840TIP3    H135935   0.359   4.067  15.084 -0.0074 -1.8520 -1.2285
 4840TIP3    H235936   0.496   4.133  15.087 -0.7513 -0.2727  1.2653
 4841TIP3   OH235937   2.340   6.061  13.939  0.2704  0.1301  1.2193
 4841TIP3    H135938   2.318   5.968  13.944 -0.5884  0.2981  0.8752
 4841TIP3    H235939   2.388   6.080  14.019  1.0343 -0.7568  0.9774
 4842TIP3   OH235940   5.534   2.091   6.188  0.4594  0.0832  0.1433
 4842TIP3    H135941   5.506   2.160   6.128 -2.0746 -0.2223  0.8301
 4842TIP3    H235942   5.537   2.134   6.274 -0.2343 -0.4321  0.4337
 4843TIP3   OH235943   1.607   1.258   1.741 -0.4980 -0.0928 -0.4763
 4843TIP3    H135944   1.580   1.232   1.653  0.8806 -2.7132 -0.2432
 4843TIP3    H235945   1.558   1.199   1.799  0.0219  0.3060  0.3875
 4844TIP3   OH235946   5.054   0.740   4.147  0.1763  0.4574 -0.3631
 4844TIP3    H135947   5.072   0.818   4.094  1.2423  0.3164 -0.2302
 4844TIP3    H235948   5.138   0.719   4.187 -0.3575 -0.1224  0.4710
 4845TIP3   OH235949   4.564   2.405   4.967 -0.2557 -0.1146  0.0494
 4845TIP3    H135950   4.481   2.436   4.930 -0.6250  0.3974  1.2498
 4845TIP3    H235951   4.628   2.423   4.898 -1.3861 -2.3775 -1.7497
 4846TIP3   OH235952   5.199   3.060   1.118  0.2271  0.5070 -0.1789
 4846TIP3    H135953   5.218   3.154   1.118  1.2058  0.3264  0.7578
 4846TIP3    H235954   5.191   3.037   1.210 -0.5485 -0.2369 -0.4209
 4847TIP3   OH235955   3.759   1.769  12.067  0.4415 -0.3943 -0.0511
 4847TIP3    H135956   3.802   1.853  12.078 -2.8970  1.4247  0.2615
 4847TIP3    H235957   3.742   1.764  11.973  0.6041 -0.7332 -0.0639
 4848TIP3   OH235958   4.026   5.767  16.889 -0.0366  0.0457  0.5247
 4848TIP3    H135959   4.029   5.861  16.902 -0.2365 -0.3345  4.1846
 4848TIP3    H235960   4.114   5.736  16.909  0.6953 -0.4840 -2.8307
 4849TIP3   OH235961   0.142   6.315   3.510  0.5455 -0.8916 -0.5198
 4849TIP3    H135962   0.195   6.381   3.465 -1.0352  0.1734 -0.8883
 4849TIP3    H235963   0.164   6.326   3.602  0.9489 -0.4644 -0.6606
 4850TIP3   OH235964   0.976   3.406  11.661  0.3006 -0.3108 -0.3184
 4850TIP3    H135965   0.965   3.499  11.681  0.8926 -0.3240  0.0951
 4850TIP3    H235966   1.063   3.400  11.621 -0.0384 -0.5841 -1.0216
 4851TIP3   OH235967   3.627   0.172  14.629 -0.5572 -0.5635 -0.0484
 4851TIP3    H135968   3.567   0.130  14.691 -1.9854  1.3816 -0.0234
 4851TIP3    H235969   3.620   0.118  14.550 -3.1985  0.1427 -0.3916
 4852TIP3   OH235970   1.814   2.941  12.303 -0.5212  0.4471  0.2565
 4852TIP3    H135971   1.879   2.903  12.363 -0.2104  0.9165  0.2196
 4852TIP3    H235972   1.765   2.866  12.271  0.3488  0.0318 -0.1278
 4853TIP3   OH235973   5.869   1.328   5.613  0.2544  0.3276 -0.2132
 4853TIP3    H135974   5.804   1.387   5.575 -0.2791  0.5554  0.9868
 4853TIP3    H235975   5.826   1.294   5.692  1.4562  0.1975  0.4029
 4854TIP3   OH235976   2.150   2.270   4.150 -0.2549  0.1802  0.0121
 4854TIP3    H135977   2.117   2.351   4.189 -2.5426 -0.4882 -0.3885
 4854TIP3    H235978   2.168   2.293   4.059 -0.8173  0.2798 -0.0787
 4855TIP3   OH235979   4.977   5.809  12.246 -0.2263 -0.1449 -0.7033
 4855TIP3    H135980   4.944   5.719  12.251 -1.1507  0.1866 -0.6012
 4855TIP3    H235981   4.930   5.856  12.314 -2.8040  1.3187 -3.2571
 4856TIP3   OH235982   6.531   5.201   3.545  0.0596 -0.2772 -0.2269
 4856TIP3    H135983   6.622   5.193   3.574 -0.3230 -1.2986  0.7832
 4856TIP3    H235984   6.511   5.294   3.554  1.0026 -0.0370 -0.4778
 4857TIP3   OH235985   4.909   3.316   4.377  0.0795  0.3661  0.1129
 4857TIP3    H135986   4.992   3.292   4.335  0.3310 -0.0363  0.8252
 4857TIP3    H235987   4.848   3.326   4.304  0.4265 -0.6516 -0.3414
 4858TIP3   OH235988   4.395   5.208  14.623 -0.0709  0.1502 -0.3885
 4858TIP3    H135989   4.404   5.292  14.577 -2.3254  1.2096  0.8940
 4858TIP3    H235990   4.484   5.187  14.652  0.5494  2.2132 -0.5916
 4859TIP3   OH235991   2.853   2.097  14.696 -0.3468  0.0607 -0.3869
 4859TIP3    H135992   2.892   2.022  14.741  1.4637  0.8110 -0.5825
 4859TIP3    H235993   2.905   2.105  14.616 -0.0655  1.8939 -0.0573
 4860TIP3   OH235994   2.997   5.177  15.558 -0.2645  0.2833 -0.2500
 4860TIP3    H135995   3.040   5.091  15.562 -1.1906 -0.2448 -1.1572
 4860TIP3    H235996   2.904   5.157  15.563 -0.4511  1.3707  1.1947
 4861TIP3   OH235997   2.556   5.471   0.731  0.2228  0.1121 -0.0012
 4861TIP3    H135998   2.592   5.559   0.742 -0.5668  0.4806 -0.2690
 4861TIP3    H235999   2.632   5.414   0.729  0.9398  1.0421 -2.2352
 4862TIP3   OH236000   4.422   5.603   2.457  0.3755 -0.5603 -0.0322
 4862TIP3    H136001   4.348   5.550   2.487  0.7292 -1.3549 -0.5207
 4862TIP3    H236002   4.434   5.669   2.525 -1.2009 -0.0007 -0.2664
 4863TIP3   OH236003   0.630   1.136   5.577  0.2236  0.1579  0.1663
 4863TIP3    H136004   0.567   1.069   5.549 -1.5722  2.5936 -2.0211
 4863TIP3    H236005   0.580   1.196   5.632  1.0188  1.2910 -0.3027
 4864TIP3   OH236006   2.295   2.485  12.497  0.4604 -0.8194 -0.0457
 4864TIP3    H136007   2.351   2.465  12.571  0.9763 -2.0874 -0.7409
 4864TIP3    H236008   2.241   2.406  12.485  0.1961 -0.5360 -0.8255
 4865TIP3   OH236009   0.762   3.849  13.163  0.3095 -0.7512 -0.3875
 4865TIP3    H136010   0.750   3.881  13.252  2.0029 -1.3130  0.0856
 4865TIP3    H236011   0.680   3.806  13.141 -0.8375  1.0441  0.1563
 4866TIP3   OH236012   2.217   1.774  12.865  0.1547  0.0312 -0.5072
 4866TIP3    H136013   2.283   1.779  12.795  1.0969 -0.5564  0.3177
 4866TIP3    H236014   2.234   1.691  12.908 -0.1726  0.5530  0.6637
 4867TIP3   OH236015   0.599   6.752   4.743  0.3900  0.2154 -0.9263
 4867TIP3    H136016   0.691   6.773   4.727  0.8581 -0.7635  0.3184
 4867TIP3    H236017   0.552   6.833   4.723  1.7714  1.4942  0.6890
 4868TIP3   OH236018   5.657   6.489  11.747  0.5049 -0.0132 -0.4367
 4868TIP3    H136019   5.741   6.451  11.719  1.0638  0.7928  0.0914
 4868TIP3    H236020   5.673   6.583  11.747 -0.1228  0.1003  0.5560
 4869TIP3   OH236021   4.464   3.676  13.606  0.1459  0.0536 -0.0162
 4869TIP3    H136022   4.550   3.714  13.625  0.7388 -1.1864 -0.1085
 4869TIP3    H236023   4.460   3.674  13.510  0.7281 -1.3642 -0.0389
 4870TIP3   OH236024   2.099   4.983   2.117  0.4814 -0.2848  0.0891
 4870TIP3    H136025   2.161   4.929   2.166 -0.9540 -1.0506  1.1281
 4870TIP3    H236026   2.127   4.975   2.026  1.5210 -1.1228  0.4681
 4871TIP3   OH236027   0.566   1.530  12.139 -0.4248 -0.0588  0.1139
 4871TIP3    H136028   0.635   1.497  12.196  0.9738  0.3028 -1.2807
 4871TIP3    H236029   0.533   1.452  12.093 -0.5884 -0.1620  0.4039
 4872TIP3   OH236030   5.331   4.672  16.026  0.0911  0.5719  0.1686
 4872TIP3    H136031   5.404   4.710  16.075  0.4326  1.7452 -1.1717
 4872TIP3    H236032   5.342   4.578  16.036  2.3434  0.6671 -0.7107
 4873TIP3   OH236033   5.495   1.346  15.864  0.1518 -0.2233  0.5053
 4873TIP3    H136034   5.485   1.441  15.872  1.3362 -0.1666  1.6691
 4873TIP3    H236035   5.520   1.333  15.773  0.9715  0.6992  0.5806
 4874TIP3   OH236036   4.019   3.525  15.090 -0.2031  0.1637  0.3647
 4874TIP3    H136037   3.993   3.553  15.178 -1.3596 -0.8517  0.3741
 4874TIP3    H236038   4.099   3.475  15.104 -0.7123 -0.5175  0.9332
 4875TIP3   OH236039   2.310   1.169  16.590 -0.2554  0.0619 -0.3833
 4875TIP3    H136040   2.298   1.086  16.545  0.5924  0.1606 -0.8067
 4875TIP3    H236041   2.223   1.210  16.588 -0.1823  0.1959 -2.2057
 4876TIP3   OH236042   4.823   3.212  11.527  0.0361 -0.0266 -0.4031
 4876TIP3    H136043   4.814   3.120  11.501  0.3657  0.5119 -2.5704
 4876TIP3    H236044   4.746   3.255  11.490 -1.7189  0.1736  3.0528
 4877TIP3   OH236045   4.885   4.569   2.580  0.5002  0.0637  0.0743
 4877TIP3    H136046   4.888   4.590   2.673  1.7729  1.5548 -0.2639
 4877TIP3    H236047   4.963   4.610   2.543  0.2017 -0.7747 -1.6047
 4878TIP3   OH236048   4.083   6.187  12.254 -0.2419  0.4498 -0.2032
 4878TIP3    H136049   3.996   6.222  12.236  0.0100  0.1985 -2.0944
 4878TIP3    H236050   4.143   6.250  12.213  0.4684  0.4828  0.8470
 4879TIP3   OH236051   4.758   6.510   3.454 -0.0439 -0.2504  0.0731
 4879TIP3    H136052   4.799   6.514   3.540 -0.4824  1.6191  0.2353
 4879TIP3    H236053   4.665   6.524   3.471 -0.1747 -0.1921 -0.6593
 4880TIP3   OH236054   0.585   4.014   0.944 -0.9105 -0.2591  0.0000
 4880TIP3    H136055   0.491   3.996   0.941 -0.3956 -3.4981 -0.5178
 4880TIP3    H236056   0.603   4.059   0.861 -1.8729 -0.3562 -0.2804
 4881TIP3   OH236057   1.678   0.341   1.491 -0.5519  0.0101 -0.6438
 4881TIP3    H136058   1.673   0.256   1.446 -0.2840 -0.9349  1.0181
 4881TIP3    H236059   1.710   0.319   1.579  0.9125  1.9935 -0.6072
 4882TIP3   OH236060   3.831   4.738  17.026 -0.3667  0.4494 -0.3900
 4882TIP3    H136061   3.772   4.672  16.991  0.1132 -0.1624 -0.0513
 4882TIP3    H236062   3.798   4.757  17.114  0.3459 -0.4178  0.0771
 4883TIP3   OH236063   1.519   3.252  13.652  0.4978 -0.0007 -0.2589
 4883TIP3    H136064   1.502   3.343  13.675  0.2119  0.3508 -1.7253
 4883TIP3    H236065   1.562   3.257  13.567 -2.9540 -1.2887 -2.3026
 4884TIP3   OH236066   3.563   6.183  15.583 -0.0250 -0.2738 -0.0785
 4884TIP3    H136067   3.545   6.091  15.565  1.4133 -0.2757 -1.8179
 4884TIP3    H236068   3.538   6.229  15.502 -0.6912  0.8894  0.7459
 4885TIP3   OH236069   5.632   1.161   3.247  0.6943 -0.6084  0.5561
 4885TIP3    H136070   5.673   1.102   3.312  1.7397 -0.7007 -0.1617
 4885TIP3    H236071   5.704   1.184   3.188  0.5992  2.2813  1.4291
 4886TIP3   OH236072   3.385   3.612  11.814 -0.2150  1.0209  0.2241
 4886TIP3    H136073   3.429   3.538  11.855  0.4669  2.1789  1.7033
 4886TIP3    H236074   3.305   3.575  11.775 -0.2937 -0.3456  1.6100
 4887TIP3   OH236075   4.333   2.780   3.555 -0.3228  0.0062 -0.0444
 4887TIP3    H136076   4.386   2.735   3.489 -0.4985  1.5548 -1.3213
 4887TIP3    H236077   4.375   2.759   3.638  2.7512  1.6393 -1.0106
 4888TIP3   OH236078   3.864   2.594  16.719 -0.1603  0.0816 -0.5261
 4888TIP3    H136079   3.815   2.651  16.778  0.0804 -0.2450 -0.0032
 4888TIP3    H236080   3.806   2.520  16.703  0.6353 -0.9601  1.1547
 4889TIP3   OH236081   6.072   3.746   3.924  0.1725  0.5103 -0.0734
 4889TIP3    H136082   6.018   3.667   3.929  0.1586  0.4827 -0.6261
 4889TIP3    H236083   6.023   3.806   3.869  1.1343  0.1203 -1.4121
 4890TIP3   OH236084   5.701   1.564  13.627 -0.3875 -0.0633  0.1227
 4890TIP3    H136085   5.612   1.596  13.612  0.3334  1.2330 -1.6184
 4890TIP3    H236086   5.713   1.494  13.563  0.1118  0.3230 -0.2138
 4891TIP3   OH236087   6.299   1.576   3.895  0.3159 -0.6026 -0.8172
 4891TIP3    H136088   6.369   1.611   3.950  0.0176  0.8025 -1.2957
 4891TIP3    H236089   6.237   1.538   3.956  1.4719 -1.8905 -0.3802
 4892TIP3   OH236090   5.164   0.048   3.958 -0.3968  0.0381 -0.3856
 4892TIP3    H136091   5.135   0.022   4.046 -1.0292 -0.1686 -0.6499
 4892TIP3    H236092   5.083   0.072   3.913  0.0215  1.0739 -0.6153
 4893TIP3   OH236093   2.318   2.660   1.392  0.3522 -0.1382 -0.4517
 4893TIP3    H136094   2.340   2.614   1.473  0.3887 -1.0668 -0.9686
 4893TIP3    H236095   2.224   2.645   1.380  0.5772 -1.0939 -1.2145
 4894TIP3   OH236096   3.492   1.956  15.306  0.1544 -0.0686 -0.0443
 4894TIP3    H136097   3.507   2.010  15.384 -0.6070 -0.5193  0.4277
 4894TIP3    H236098   3.397   1.949  15.300  0.2312 -1.9931  0.3713
 4895TIP3   OH236099   1.594   5.900   1.688  0.2731  0.3702 -0.9499
 4895TIP3    H136100   1.612   5.986   1.728 -1.0875 -0.0420  0.6635
 4895TIP3    H236101   1.680   5.860   1.677  0.8888  1.7086 -1.2193
 4896TIP3   OH236102   0.993   3.601   5.973 -0.4233 -0.0504  0.2160
 4896TIP3    H136103   0.914   3.575   6.021 -1.9690 -0.6888 -2.4542
 4896TIP3    H236104   1.025   3.519   5.934  0.3748  0.5370 -0.3832
 4897TIP3   OH236105   5.702   0.672   1.807  0.0378 -0.3861  0.3088
 4897TIP3    H136106   5.628   0.628   1.764  0.2012  0.5331 -0.9851
 4897TIP3    H236107   5.779   0.634   1.765  0.3718 -1.6996  1.9956
 4898TIP3   OH236108   5.474   0.226  17.194 -0.4079 -0.0875  0.6855
 4898TIP3    H136109   5.438   0.158  17.138 -2.1752  2.3808 -1.4316
 4898TIP3    H236110   5.398   0.273  17.228  0.7258  1.1905  1.6140
 4899TIP3   OH236111   4.756   5.027   5.327  0.4993  0.1430  0.0803
 4899TIP3    H136112   4.768   5.046   5.233 -1.1705  1.6535  0.1078
 4899TIP3    H236113   4.664   5.001   5.334  0.7205 -0.3643  1.2608
 4900TIP3   OH236114   1.815   6.380   2.689  0.4012  0.0882 -0.5569
 4900TIP3    H136115   1.727   6.370   2.652  0.4575  1.1733 -1.0010
 4900TIP3    H236116   1.859   6.298   2.667 -0.8505 -0.9892  0.7114
 4901TIP3   OH236117   5.147   3.474  14.713 -0.2608 -0.4986  0.2593
 4901TIP3    H136118   5.163   3.565  14.739 -3.4783  0.1176  0.5731
 4901TIP3    H236119   5.223   3.449  14.662  0.8742  2.2725  0.4425
 4902TIP3   OH236120   4.588   6.512  12.652 -0.4709  0.1965  0.6742
 4902TIP3    H136121   4.593   6.472  12.565 -0.0644 -0.4362  0.9880
 4902TIP3    H236122   4.666   6.482  12.697 -1.0393 -0.0520  1.5090
 4903TIP3   OH236123   6.378   0.121  12.943  0.0664 -0.4613  0.7391
 4903TIP3    H136124   6.352   0.047  12.997 -0.3462 -1.2270 -0.4522
 4903TIP3    H236125   6.470   0.136  12.964 -0.1312 -0.6144  1.7575
 4904TIP3   OH236126   4.684   4.425  15.708 -0.6285  0.0413 -0.3280
 4904TIP3    H136127   4.724   4.490  15.650 -0.2430  0.6158  0.5538
 4904TIP3    H236128   4.755   4.397  15.765 -1.2874  0.4844  0.7461
 4905TIP3   OH236129   4.268   2.818  13.666  0.4693 -0.1659  0.2177
 4905TIP3    H136130   4.174   2.808  13.651  0.6734 -1.4981 -0.2912
 4905TIP3    H236131   4.309   2.793  13.583  1.3135 -0.8955  0.8325
 4906TIP3   OH236132   0.598   4.680  11.798  0.1772 -0.2666 -0.5611
 4906TIP3    H136133   0.676   4.729  11.775  0.5300  0.2675  1.5069
 4906TIP3    H236134   0.628   4.615  11.861 -1.0209 -0.0030  0.3302
 4907TIP3   OH236135   6.280   5.514  16.255  0.2168  0.6714 -0.1939
 4907TIP3    H136136   6.256   5.533  16.164 -0.7449 -0.2410 -0.1397
 4907TIP3    H236137   6.197   5.516  16.303  0.1872 -2.3458  0.0354
 4908TIP3   OH236138   3.713   0.543   4.996 -0.5006  0.0418  0.5112
 4908TIP3    H136139   3.670   0.508   5.074 -0.3747 -0.6352  0.2819
 4908TIP3    H236140   3.658   0.617   4.970 -0.6708  0.1297  1.1075
 4909TIP3   OH236141   4.059   6.179  15.379 -0.2483  1.1272  0.3210
 4909TIP3    H136142   4.133   6.220  15.333  1.5807 -1.5944  0.6310
 4909TIP3    H236143   4.068   6.210  15.469 -0.1510  1.6907  0.1213
 4910TIP3   OH236144   1.444   2.852  11.056 -0.2174 -0.8022 -0.5751
 4910TIP3    H136145   1.397   2.784  11.105  0.2224 -1.4662 -1.0676
 4910TIP3    H236146   1.384   2.877  10.986  0.0361 -1.4253 -1.0156
 4911TIP3   OH236147   5.089   5.467   4.243  0.8715 -0.3007  0.2705
 4911TIP3    H136148   5.098   5.509   4.158 -0.7296  1.8541  1.0679
 4911TIP3    H236149   5.176   5.473   4.282  0.9257  1.4948 -0.0415
 4912TIP3   OH236150   4.012   1.932   5.345  0.1345 -0.1273 -0.5769
 4912TIP3    H136151   3.919   1.932   5.324  0.5482 -0.3806 -2.6623
 4912TIP3    H236152   4.040   2.023   5.332 -0.0407  0.2739  1.4415
 4913TIP3   OH236153   4.441   6.202   6.002  0.3075 -0.3830 -0.1406
 4913TIP3    H136154   4.437   6.297   6.013  1.3532 -0.5284  1.9633
 4913TIP3    H236155   4.351   6.177   5.981 -0.1881  0.9616  0.2832
 4914TIP3   OH236156   1.988   4.773  16.042  0.2269 -0.1358  0.2912
 4914TIP3    H136157   2.055   4.711  16.072 -0.4295 -0.9099  0.1814
 4914TIP3    H236158   1.920   4.718  16.003  0.7009  0.7759 -1.9825
 4915TIP3   OH236159   3.035   6.571   6.549 -0.3758  0.2761 -0.5144
 4915TIP3    H136160   3.124   6.600   6.530 -0.0419 -0.7454 -0.5596
 4915TIP3    H236161   3.046   6.501   6.613 -1.2310  0.9106  0.3666
 4916TIP3   OH236162   2.041   0.146   3.565 -0.2531 -0.2597 -0.2590
 4916TIP3    H136163   2.008   0.076   3.622  0.3393 -0.1496  0.2246
 4916TIP3    H236164   2.052   0.104   3.480  1.2333 -1.0764  0.3115
 4917TIP3   OH236165   1.401   2.126  12.438 -0.5798  0.4929  0.4315
 4917TIP3    H136166   1.315   2.106  12.475 -0.4696  1.3304  1.1628
 4917TIP3    H236167   1.417   2.217  12.462  1.0949 -0.0371  1.4760
 4918TIP3   OH236168   4.698   3.287   4.213 -0.1257 -0.6709 -0.5755
 4918TIP3    H136169   4.690   3.192   4.212 -0.7707 -0.6637 -2.9247
 4918TIP3    H236170   4.608   3.318   4.229  0.2135 -0.4118  1.0026
 4919TIP3   OH236171   6.405   5.664   2.673  0.0538 -0.3320 -0.0834
 4919TIP3    H136172   6.453   5.631   2.749  0.2537 -0.7067 -0.3730
 4919TIP3    H236173   6.315   5.633   2.686  0.2172 -0.8999 -0.2983
 4920TIP3   OH236174   0.876   0.706   6.442  0.3921 -0.1416 -0.3001
 4920TIP3    H136175   0.866   0.777   6.379 -0.2743  0.0993  0.0623
 4920TIP3    H236176   0.969   0.709   6.467  0.3218  0.7894 -0.0906
 4921TIP3   OH236177   6.280   0.910   1.483  0.2888 -0.6340 -0.6866
 4921TIP3    H136178   6.340   0.837   1.496  0.0259 -0.6099  0.8865
 4921TIP3    H236179   6.272   0.951   1.570 -1.1246  0.0363 -1.0910
 4922TIP3   OH236180   6.767   4.760   3.174  0.0839 -0.0630  0.3551
 4922TIP3    H136181   6.686   4.802   3.145  1.6001  0.2851 -4.2089
 4922TIP3    H236182   6.758   4.668   3.149  0.8544 -0.1504  0.3493
 4923TIP3   OH236183   4.519   5.456   2.713  0.2258  0.1288 -0.2186
 4923TIP3    H136184   4.430   5.421   2.715 -0.0458  0.7798 -0.7286
 4923TIP3    H236185   4.563   5.408   2.643  0.0662  0.3094 -0.4412
 4924TIP3   OH236186   2.269   4.206   5.910 -0.0532 -0.5904  0.2090
 4924TIP3    H136187   2.342   4.173   5.857  0.6405  0.8731  0.2071
 4924TIP3    H236188   2.308   4.231   5.993 -0.1480  1.9376 -0.4235
 4925TIP3   OH236189   2.810   4.791  14.744 -0.1064  0.2602 -0.3492
 4925TIP3    H136190   2.786   4.709  14.703 -0.2049  1.5917 -3.1663
 4925TIP3    H236191   2.729   4.822  14.785 -0.8629  0.3238 -1.8336
 4926TIP3   OH236192   0.863   2.742   6.077 -0.0589 -0.2824 -0.4222
 4926TIP3    H136193   0.770   2.765   6.075 -0.1957 -0.8293 -1.2704
 4926TIP3    H236194   0.863   2.646   6.075  0.5245 -0.2840 -0.3852
 4927TIP3   OH236195   2.080   5.254  13.997 -0.1622 -0.1819  0.8710
 4927TIP3    H136196   2.026   5.206  14.059 -0.9053  0.7945  1.0161
 4927TIP3    H236197   2.034   5.244  13.913 -0.7794  0.9372  1.0606
 4928TIP3   OH236198   0.130   0.201   2.206  0.1147 -0.0042  0.4528
 4928TIP3    H136199   0.073   0.163   2.139 -1.9584  0.8163  1.6322
 4928TIP3    H236200   0.129   0.137   2.277  0.7112  0.0012  0.4675
 4929TIP3   OH236201   4.241   0.670   4.643  0.3198 -0.4360 -0.0440
 4929TIP3    H136202   4.299   0.600   4.614 -1.1646 -1.6131 -0.3172
 4929TIP3    H236203   4.234   0.728   4.568  1.4976 -0.0339  0.1521
 4930TIP3   OH236204   4.290   5.204   5.141  0.3734 -0.3288  0.4215
 4930TIP3    H136205   4.239   5.200   5.222 -0.8440  1.7004 -0.1772
 4930TIP3    H236206   4.244   5.146   5.081 -0.0176 -0.0984  0.5012
 4931TIP3   OH236207   5.705   3.772  12.399 -0.0830  0.3606  0.2302
 4931TIP3    H136208   5.700   3.751  12.306  2.1951  0.0825  0.0920
 4931TIP3    H236209   5.797   3.794  12.412 -0.4538  0.8075  2.3436
 4932TIP3   OH236210   0.656   5.401   5.537 -0.4293  0.3659 -0.5313
 4932TIP3    H136211   0.731   5.460   5.548 -1.0608  0.9102  1.0724
 4932TIP3    H236212   0.580   5.454   5.559 -1.1879 -0.5437 -0.8901
 4933TIP3   OH236213   4.532   4.675  13.617 -0.6668  0.0079  0.0584
 4933TIP3    H136214   4.519   4.765  13.645 -1.9432  0.5665 -2.1217
 4933TIP3    H236215   4.561   4.682  13.526 -0.3469 -1.7805 -0.0141
 4934TIP3   OH236216   2.145   1.608  13.196  0.1724  0.3334  0.2064
 4934TIP3    H136217   2.222   1.622  13.252 -0.5597  0.2332  1.2516
 4934TIP3    H236218   2.091   1.546  13.244 -0.5056  0.2801 -0.5994
 4935TIP3   OH236219   4.085   1.200   5.326  0.1286  0.0322 -0.8371
 4935TIP3    H136220   4.150   1.132   5.310 -2.0735 -2.1468 -1.1512
 4935TIP3    H236221   4.075   1.202   5.422 -0.6712 -1.0072 -0.8856
 4936TIP3   OH236222   1.649   2.884   3.244 -0.0179  0.1765 -0.2353
 4936TIP3    H136223   1.575   2.839   3.202  0.2065  1.4317 -2.1413
 4936TIP3    H236224   1.638   2.976   3.217  0.5963  0.9385  1.9260
 4937TIP3   OH236225   2.771   1.571   4.818  0.2927  0.5226  0.5073
 4937TIP3    H136226   2.681   1.544   4.800  0.4764  0.7311 -0.7853
 4937TIP3    H236227   2.815   1.569   4.733  1.2073  1.5721  0.9223
 4938TIP3   OH236228   0.465   0.221  13.823 -0.6965 -0.3245 -0.2404
 4938TIP3    H136229   0.419   0.138  13.831  0.8443 -1.1955 -0.0194
 4938TIP3    H236230   0.428   0.261  13.744  0.1360 -2.3198 -1.7411
 4939TIP3   OH236231   2.280   0.603  14.441 -0.3733 -0.2769 -0.3360
 4939TIP3    H136232   2.362   0.571  14.402 -1.0408 -1.2098 -1.0331
 4939TIP3    H236233   2.299   0.611  14.534  0.5173 -0.4642 -0.4906
 4940TIP3   OH236234   0.355   5.334  13.156 -0.2385 -0.0204  0.6758
 4940TIP3    H136235   0.290   5.365  13.093  1.0916 -0.3313 -0.8960
 4940TIP3    H236236   0.439   5.357  13.118  0.6465  1.5706  3.2731
 4941TIP3   OH236237   0.269   6.513  13.607  0.6187 -0.2352 -0.1051
 4941TIP3    H136238   0.184   6.484  13.573 -0.7107  1.1438  1.8197
 4941TIP3    H236239   0.325   6.521  13.530 -1.0563 -1.0111 -1.4485
 4942TIP3   OH236240   0.591   2.042  15.186 -0.3724 -0.3098 -0.1493
 4942TIP3    H136241   0.549   2.124  15.160 -1.5077 -0.8657 -0.0911
 4942TIP3    H236242   0.521   1.989  15.223  0.2133 -1.5768 -0.7886
 4943TIP3   OH236243   2.447   4.928   2.561 -0.7805  0.2004 -0.0102
 4943TIP3    H136244   2.470   5.018   2.537  3.5028 -0.3592  1.0692
 4943TIP3    H236245   2.402   4.936   2.645 -0.2977  1.3596  0.1575
 4944TIP3   OH236246   1.171   0.070  12.051 -0.1874  0.8118  0.0160
 4944TIP3    H136247   1.144  -0.020  12.065 -0.8719  0.9069 -0.5861
 4944TIP3    H236248   1.224   0.092  12.128  1.3235 -0.5887 -0.5748
 4945TIP3   OH236249   2.799   0.871  11.678  0.4228 -0.3297 -0.5741
 4945TIP3    H136250   2.875   0.908  11.635  0.1365  1.2861  0.2371
 4945TIP3    H236251   2.832   0.841  11.763  0.5203 -1.4363 -0.9762
 4946TIP3   OH236252   6.448   6.514  15.885  0.1068 -0.2046 -0.3037
 4946TIP3    H136253   6.407   6.566  15.816  0.3605 -0.1568 -0.4206
 4946TIP3    H236254   6.385   6.444  15.903  1.0186 -1.6460 -2.2775
 4947TIP3   OH236255   5.630   0.953   5.999  0.0323 -0.0110  0.0804
 4947TIP3    H136256   5.640   0.860   6.019 -1.5693 -0.1810  0.2273
 4947TIP3    H236257   5.551   0.979   6.046  1.4120  1.8808  1.5055
 4948TIP3   OH236258   5.111   2.550   0.639  0.0483 -0.4220 -0.2460
 4948TIP3    H136259   5.024   2.513   0.623 -0.3913 -0.3975  1.8171
 4948TIP3    H236260   5.103   2.643   0.617 -0.2241 -0.5743 -0.7886
 4949TIP3   OH236261   3.198   2.885  16.505  0.3185  0.1636  0.1513
 4949TIP3    H136262   3.148   2.928  16.436  0.4053  1.1752  0.6795
 4949TIP3    H236263   3.244   2.814  16.462 -0.7070 -0.0862 -0.5547
 4950TIP3   OH236264   2.707   2.247  13.467  0.0741 -0.2719  0.4500
 4950TIP3    H136265   2.753   2.246  13.383 -0.8579 -1.3358 -0.0668
 4950TIP3    H236266   2.647   2.173  13.463 -1.5048  0.8927  1.1984
 4951TIP3   OH236267   4.945   1.899   0.119 -0.2358 -0.4280 -0.8177
 4951TIP3    H136268   4.874   1.941   0.071 -2.6536 -2.9194  0.2649
 4951TIP3    H236269   4.999   1.858   0.052 -0.7864  0.1317 -1.6097
 4952TIP3   OH236270   3.821   5.488  12.306  0.3143 -0.2287 -0.3076
 4952TIP3    H136271   3.726   5.487  12.317  0.2921 -0.5165 -0.5184
 4952TIP3    H236272   3.847   5.397  12.316  0.7616  0.0365  1.3121
 4953TIP3   OH236273   1.006   6.105  13.746  0.3319  0.0569  0.5021
 4953TIP3    H136274   1.001   6.012  13.771 -0.3482  0.2027  0.9424
 4953TIP3    H236275   1.052   6.104  13.662 -2.7300 -1.0602 -1.3608
 4954TIP3   OH236276   5.665   1.627  10.850  0.0623  0.1279 -0.0491
 4954TIP3    H136277   5.754   1.661  10.836 -0.5793  1.4697 -1.1299
 4954TIP3    H236278   5.608   1.693  10.811 -1.4126 -0.8379  0.3949
 4955TIP3   OH236279   2.399   3.712  12.904  0.9581 -0.2343  0.1350
 4955TIP3    H136280   2.330   3.775  12.883  0.8703 -1.0336 -2.2782
 4955TIP3    H236281   2.353   3.630  12.922  1.1200  0.1171  2.5043
 4956TIP3   OH236282   2.193   4.896   5.571  0.0583  0.3545 -0.3495
 4956TIP3    H136283   2.248   4.818   5.575  0.2827  0.3793 -2.2050
 4956TIP3    H236284   2.232   4.951   5.503 -0.6856  1.6349  0.2001
 4957TIP3   OH236285   4.035   1.936  15.190 -0.0204 -0.7555  0.0143
 4957TIP3    H136286   3.993   1.977  15.265  2.4640  2.7496 -0.2408
 4957TIP3    H236287   4.086   1.864  15.227 -0.0386 -0.0497  1.4686
 4958TIP3   OH236288   0.552   1.493  14.708 -0.3555  0.7039 -0.3216
 4958TIP3    H136289   0.623   1.548  14.741  0.1150 -1.3506  2.5170
 4958TIP3    H236290   0.593   1.440  14.640  0.9293 -0.4081  1.2276
 4959TIP3   OH236291   4.028   0.411  11.549 -0.2642  0.2752 -0.2192
 4959TIP3    H136292   4.073   0.374  11.626  1.8325 -0.9711 -1.9226
 4959TIP3    H236293   3.946   0.362  11.544 -0.6590  0.6984  1.4405
 4960TIP3   OH236294   0.517   4.202   1.681  0.0119  0.3386 -0.0008
 4960TIP3    H136295   0.433   4.164   1.707  0.7769 -0.1512  1.9970
 4960TIP3    H236296   0.577   4.127   1.677  0.4518  0.7311 -0.9953
 4961TIP3   OH236297   6.333   2.438   0.702 -0.3760  0.2909  0.4912
 4961TIP3    H136298   6.428   2.428   0.697 -0.2010  1.8685  0.1322
 4961TIP3    H236299   6.318   2.494   0.778 -0.9946  0.3556  0.3286
 4962TIP3   OH236300   5.528   0.588   0.199 -0.2584  0.5072 -0.2862
 4962TIP3    H136301   5.490   0.649   0.262  0.8630  0.6146  0.3087
 4962TIP3    H236302   5.485   0.610   0.116 -0.9463  1.1039  0.2099
 4963TIP3   OH236303   6.174   1.179   4.674 -0.1628  0.0510  0.0514
 4963TIP3    H136304   6.166   1.196   4.768  0.4189  2.2209 -0.2211
 4963TIP3    H236305   6.143   1.260   4.633 -0.5461 -0.9062 -1.6482
 4964TIP3   OH236306   3.466   5.881   2.847  0.5136  0.9756 -0.2124
 4964TIP3    H136307   3.424   5.938   2.911 -0.3022  1.3836 -1.0824
 4964TIP3    H236308   3.424   5.796   2.859 -0.3715  1.3010 -0.8576
 4965TIP3   OH236309   6.454   3.059  11.399  0.6052  0.0742  0.0268
 4965TIP3    H136310   6.503   2.976  11.392 -0.0719 -0.1975 -3.1418
 4965TIP3    H236311   6.475   3.105  11.317 -2.6896  0.9084 -0.4640
 4966TIP3   OH236312   3.727   0.435   5.252 -0.2219  0.2701  0.0661
 4966TIP3    H136313   3.787   0.505   5.279 -3.8577  2.7717  2.6889
 4966TIP3    H236314   3.744   0.364   5.314 -0.5827  1.3802  1.5133
 4967TIP3   OH236315   3.079   4.137   4.130  0.3659  0.2763 -0.1016
 4967TIP3    H136316   3.155   4.083   4.108  0.8744  1.3367 -1.0059
 4967TIP3    H236317   3.030   4.083   4.192  1.5729 -0.6520  0.1018
 4968TIP3   OH236318   1.633   5.783  13.236  0.0526  0.1926 -0.4988
 4968TIP3    H136319   1.689   5.805  13.161  0.3279 -0.9829 -0.6627
 4968TIP3    H236320   1.694   5.752  13.303 -0.2775  0.3213 -0.1357
 4969TIP3   OH236321   0.721   4.021   3.944  0.0957 -0.0664 -0.1941
 4969TIP3    H136322   0.772   4.100   3.929  0.5007 -0.5860 -1.7217
 4969TIP3    H236323   0.710   3.982   3.857  1.7989 -2.8553  0.7018
 4970TIP3   OH236324   0.571   4.178  15.810  0.4715 -0.1313  0.1334
 4970TIP3    H136325   0.666   4.169  15.813  0.4161 -0.6594  2.3950
 4970TIP3    H236326   0.552   4.248  15.872 -0.6652 -0.6582  0.4123
 4971TIP3   OH236327   4.577   1.482  13.216 -0.1315 -0.5138 -0.3642
 4971TIP3    H136328   4.618   1.529  13.143  0.3509  0.8428  0.7415
 4971TIP3    H236329   4.513   1.544  13.251  0.9457 -0.4086  1.5099
 4972TIP3   OH236330   1.500   5.675  16.146  0.2237 -0.5064  0.4750
 4972TIP3    H136331   1.448   5.627  16.082 -1.2055  0.7203  0.6770
 4972TIP3    H236332   1.576   5.619  16.161 -0.8167 -2.1565 -0.1330
 4973TIP3   OH236333   4.691   2.694   6.182  0.1349 -1.1798 -0.4238
 4973TIP3    H136334   4.634   2.717   6.255  0.6750 -1.3299  0.0518
 4973TIP3    H236335   4.637   2.639   6.125 -0.7428  0.1111 -0.8775
 4974TIP3   OH236336   5.858   6.432  16.534 -0.1045 -0.4890 -0.1310
 4974TIP3    H136337   5.800   6.445  16.459 -2.5643 -0.1988  1.6887
 4974TIP3    H236338   5.860   6.338  16.548  2.6969 -0.8556 -2.1644
 4975TIP3   OH236339   4.707   4.922  14.408 -0.5010  0.8223  0.1301
 4975TIP3    H136340   4.779   4.914  14.471  0.3339  1.0439 -0.7719
 4975TIP3    H236341   4.707   5.014  14.383  0.3225  0.4385 -1.4682
 4976TIP3   OH236342   0.691   0.460   4.186  0.7456 -0.4059  0.2691
 4976TIP3    H136343   0.690   0.396   4.115 -0.5169  3.2310 -3.3733
 4976TIP3    H236344   0.784   0.474   4.203  1.0839 -1.4766 -0.5243
 4977TIP3   OH236345   3.763   5.226   1.019 -0.3478 -0.0098  0.2632
 4977TIP3    H136346   3.811   5.286   1.075  1.4188 -2.4597  1.5401
 4977TIP3    H236347   3.794   5.246   0.931 -0.2080  1.2554  0.5745
 4978TIP3   OH236348   0.737   5.608   5.901 -0.5128 -0.2840 -0.1436
 4978TIP3    H136349   0.729   5.523   5.859  0.3473  0.1521 -1.2393
 4978TIP3    H236350   0.655   5.653   5.880  0.5114  0.5207 -2.8225
 4979TIP3   OH236351   3.895   0.614   6.250  0.4034  0.0836 -0.0069
 4979TIP3    H136352   3.825   0.598   6.186  1.1207 -0.3607 -0.7028
 4979TIP3    H236353   3.875   0.556   6.323 -0.1909  0.2755 -0.0118
 4980TIP3   OH236354   1.119   0.511  13.869 -0.1235 -0.0792  0.7266
 4980TIP3    H136355   1.080   0.591  13.904  0.6490  0.5475  0.2001
 4980TIP3    H236356   1.172   0.476  13.941 -0.3582 -0.0520  0.9139
 4981TIP3   OH236357   3.491   3.533  12.170 -0.4601 -0.2978 -0.0006
 4981TIP3    H136358   3.451   3.527  12.256  1.5207  0.2463  1.0208
 4981TIP3    H236359   3.458   3.457  12.122 -2.0131 -0.3110  1.0100
 4982TIP3   OH236360   0.862   3.951  16.426 -0.2998  0.3605 -0.1462
 4982TIP3    H136361   0.912   4.008  16.367  1.4005 -0.6663  0.2129
 4982TIP3    H236362   0.919   3.942  16.503 -0.4989 -1.8019 -0.1980
 4983TIP3   OH236363   1.374   4.941  12.477 -0.3497 -0.2014 -0.0865
 4983TIP3    H136364   1.317   4.888  12.421  1.1672 -2.3799  0.2878
 4983TIP3    H236365   1.462   4.924  12.443  0.4118 -0.0336  1.7165
 4984TIP3   OH236366   4.034   2.717   1.848 -0.1840  0.1431 -0.5139
 4984TIP3    H136367   4.116   2.699   1.802 -0.6419 -0.5915 -1.0612
 4984TIP3    H236368   4.026   2.812   1.846  0.8201  0.2491 -0.1558
 4985TIP3   OH236369   0.079   3.893  11.750 -0.1108  0.2497  0.0217
 4985TIP3    H136370   0.001   3.949  11.754  1.2856  2.3553 -0.7264
 4985TIP3    H236371   0.045   3.804  11.762 -2.5959  1.1033 -0.1268
 4986TIP3   OH236372   5.730   5.323  13.388  0.2290 -0.7018 -0.3159
 4986TIP3    H136373   5.650   5.353  13.345  0.4683  0.7957  0.1989
 4986TIP3    H236374   5.707   5.237  13.424 -1.8772  0.5549  1.6476
 4987TIP3   OH236375   3.634   2.571   0.784 -0.3179  0.3413 -0.2717
 4987TIP3    H136376   3.571   2.523   0.730 -0.1139  0.2491 -0.4290
 4987TIP3    H236377   3.718   2.556   0.741 -0.3302  1.3294 -0.6654
 4988TIP3   OH236378   1.229   6.264   1.730 -0.1625 -0.2060  0.7116
 4988TIP3    H136379   1.286   6.188   1.718  0.5609  0.0290  2.4214
 4988TIP3    H236380   1.243   6.316   1.651 -0.1387 -1.4905 -0.1684
 4989TIP3   OH236381   3.804   5.179   1.958 -0.4236  0.0287  0.4686
 4989TIP3    H136382   3.898   5.199   1.958 -0.4883  0.3923 -0.6332
 4989TIP3    H236383   3.767   5.240   1.894 -1.2380 -0.8780  0.0624
 4990TIP3   OH236384   4.381   5.264   0.122 -0.5503 -0.4209 -0.3138
 4990TIP3    H136385   4.291   5.229   0.121 -1.4117  1.6535  0.1174
 4990TIP3    H236386   4.373   5.352   0.087  1.1253  0.2461  0.8406
 4991TIP3   OH236387   5.060   4.367  14.688 -0.5770 -0.1396  0.5556
 4991TIP3    H136388   5.082   4.295  14.629 -0.4222 -0.1231  0.5931
 4991TIP3    H236389   4.985   4.409  14.648  0.0167  0.3616 -0.0395
 4992TIP3   OH236390   0.852   4.777  12.393 -0.0500 -0.7938 -0.1434
 4992TIP3    H136391   0.759   4.791  12.372 -0.0385  0.8242  0.7314
 4992TIP3    H236392   0.862   4.682  12.395 -1.8008 -1.0057  0.1630
 4993TIP3   OH236393   6.617   5.872   2.657  0.1161 -0.1972 -0.0771
 4993TIP3    H136394   6.544   5.837   2.606 -1.7615  3.4047 -0.1850
 4993TIP3    H236395   6.578   5.896   2.741  0.8077  2.6652 -0.4521
 4994TIP3   OH236396   6.602   4.194   1.573  0.0944  0.3517  0.2272
 4994TIP3    H136397   6.518   4.224   1.537 -0.7092 -1.9606  0.0054
 4994TIP3    H236398   6.663   4.199   1.500 -0.4667 -0.2180 -0.2954
 4995TIP3   OH236399   1.467   3.805  16.396 -0.1057  0.1363 -0.1613
 4995TIP3    H136400   1.513   3.822  16.314  0.6712 -0.5360  0.1191
 4995TIP3    H236401   1.481   3.884  16.449  0.3972  0.0927 -0.2283
 4996TIP3   OH236402   1.591   5.812  14.473  0.3329 -0.3147  0.2652
 4996TIP3    H136403   1.509   5.822  14.521 -1.4228  0.5320 -2.6586
 4996TIP3    H236404   1.611   5.719  14.480 -1.3210 -0.6923  0.3842
 4997TIP3   OH236405   5.021   4.148  13.985 -0.1287 -0.0502  0.1973
 4997TIP3    H136406   4.978   4.066  13.961 -0.8024  0.8899 -2.1273
 4997TIP3    H236407   4.950   4.213  13.985  0.6137  0.7819  0.5670
 4998TIP3   OH236408   0.157   4.737  15.710 -0.0703  0.7579 -0.0406
 4998TIP3    H136409   0.232   4.755  15.767  1.2257 -1.3280 -0.9941
 4998TIP3    H236410   0.094   4.692  15.768 -0.5602  2.3271  0.7076
 4999TIP3   OH236411   0.956   2.236   1.269  0.2139 -0.1531 -0.1558
 4999TIP3    H136412   0.881   2.203   1.319  0.0919  0.9553  0.4383
 4999TIP3    H236413   0.930   2.227   1.178 -1.8786  2.6877 -0.0142
 5000TIP3   OH236414   0.421   1.495   3.650  0.1791  0.2268  0.5145
 5000TIP3    H136415   0.481   1.463   3.717 -1.1672 -0.6880  1.3301
 5000TIP3    H236416   0.423   1.428   3.582  1.0680  0.8514 -0.1007
 5001TIP3   OH236417   1.330   6.436   4.333  0.1127  0.3821  0.7966
 5001TIP3    H136418   1.291   6.501   4.275  0.2234 -0.0514  0.2316
 5001TIP3    H236419   1.321   6.474   4.421 -1.2332  0.4534  0.6492
 5002TIP3   OH236420   3.777   4.437   6.298 -0.1995  0.3554 -0.1539
 5002TIP3    H136421   3.723   4.489   6.239  0.4865  0.7220 -0.4650
 5002TIP3    H236422   3.863   4.479   6.296  0.5893 -1.2030 -0.9997
 5003TIP3   OH236423   4.899   0.165  14.557 -0.4136 -0.3453  0.4264
 5003TIP3    H136424   4.952   0.243  14.537 -1.1989  0.1645  0.2928
 5003TIP3    H236425   4.817   0.201  14.592 -0.5750 -1.1313  0.8746
 5004TIP3   OH236426   1.852   3.433   1.158 -0.0653 -0.3845  0.0469
 5004TIP3    H136427   1.799   3.494   1.209  0.8299 -0.6286  1.2932
 5004TIP3    H236428   1.934   3.426   1.206 -0.6290 -3.6822  0.7532
 5005TIP3   OH236429   1.156   2.517   2.673 -0.3230  0.3050 -0.5146
 5005TIP3    H136430   1.077   2.558   2.708  0.5404  0.5018  1.3212
 5005TIP3    H236431   1.225   2.583   2.687  0.3296 -0.1838 -1.3224
 5006TIP3   OH236432   6.656   6.239   2.860  0.7997 -0.3372  0.0617
 5006TIP3    H136433   6.607   6.236   2.778  0.1980  1.9754  0.2675
 5006TIP3    H236434   6.688   6.149   2.872 -2.5604 -1.7837 -0.5555
 5007TIP3   OH236435   1.089   1.788  17.105 -0.7545  0.0463 -0.1576
 5007TIP3    H136436   1.096   1.780  17.010 -2.1956  2.8226 -0.6106
 5007TIP3    H236437   1.172   1.825  17.133 -0.5936 -0.1090 -0.4278
 5008TIP3   OH236438   1.942   4.586   3.325  0.3914  0.5948  0.7401
 5008TIP3    H136439   1.945   4.576   3.420  0.4836  1.6454  0.8595
 5008TIP3    H236440   1.974   4.675   3.309 -1.9578  1.3779 -0.0904
 5009TIP3   OH236441   3.111   2.811  17.239 -0.0248 -0.0273  0.6997
 5009TIP3    H136442   3.120   2.719  17.264 -0.2254 -0.0669  0.6307
 5009TIP3    H236443   3.200   2.840  17.220 -0.2205 -1.0508 -2.2321
 5010TIP3   OH236444   2.827   6.341   4.085  0.1404  0.4044  0.1350
 5010TIP3    H136445   2.908   6.295   4.107  1.7544  3.2814  0.6199
 5010TIP3    H236446   2.794   6.294   4.008  1.7394 -1.4280  0.4870
 5011TIP3   OH236447   2.475   0.605   2.398  0.3984  0.3323  0.4200
 5011TIP3    H136448   2.406   0.649   2.448  0.0235  0.4761 -0.1980
 5011TIP3    H236449   2.433   0.585   2.314  0.7617 -0.6250  0.4529
 5012TIP3   OH236450   3.674   5.281  16.416 -0.0488 -0.2271  0.5713
 5012TIP3    H136451   3.681   5.377  16.413 -2.0505 -0.0447 -1.5989
 5012TIP3    H236452   3.643   5.262  16.504 -1.4417  1.3473  0.4682
 5013TIP3   OH236453   2.554   2.212  13.181  0.1751 -0.2574 -0.0055
 5013TIP3    H136454   2.635   2.173  13.148  0.4980 -0.8137  1.3641
 5013TIP3    H236455   2.577   2.303  13.200  1.4495 -1.0971  3.2361
 5014TIP3   OH236456   2.935   1.892   6.091 -0.4274 -0.0539 -0.5328
 5014TIP3    H136457   2.916   1.980   6.123  0.7349 -0.0224  0.1106
 5014TIP3    H236458   2.895   1.834   6.155 -1.6619 -0.0294 -1.2363
 5015TIP3   OH236459   0.815   1.879  15.177 -0.3701 -0.1880 -0.5769
 5015TIP3    H136460   0.869   1.909  15.250 -1.8673 -0.0598  0.5032
 5015TIP3    H236461   0.737   1.934  15.180 -1.8236 -2.1674 -0.4155
 5016TIP3   OH236462   5.577   6.452  12.032 -0.1052 -0.0462  0.3617
 5016TIP3    H136463   5.497   6.405  12.054 -0.9914  0.7051 -1.1165
 5016TIP3    H236464   5.614   6.402  11.959  0.8426 -0.4205  1.0681
 5017TIP3   OH236465   4.850   3.410  16.130  0.2652  0.0002  0.2876
 5017TIP3    H136466   4.837   3.420  16.035 -1.1039  0.1518  0.4616
 5017TIP3    H236467   4.877   3.497  16.159  0.0444  0.1287  0.1183
 5018TIP3   OH236468   1.019   1.780  11.651  0.2749 -0.0969 -0.4239
 5018TIP3    H136469   1.034   1.751  11.561  0.2356  0.2708 -0.5533
 5018TIP3    H236470   1.070   1.719  11.704 -0.2294 -0.7210 -0.6449
 5019TIP3   OH236471   2.085   3.245  12.676  0.5043  0.3033 -0.5772
 5019TIP3    H136472   2.142   3.188  12.624 -1.9739 -1.2869 -1.8133
 5019TIP3    H236473   2.141   3.280  12.744  2.5010 -2.7556 -0.4371
 5020TIP3   OH236474   3.920   3.812   2.379 -0.3327  0.2724  0.4090
 5020TIP3    H136475   3.989   3.793   2.316 -0.1181  0.4772  0.5793
 5020TIP3    H236476   3.947   3.764   2.458 -1.7282 -1.8514 -0.3093
 5021TIP3   OH236477   5.974   4.213   5.736  0.6182 -0.4499 -0.1902
 5021TIP3    H136478   5.945   4.129   5.771  1.8477 -0.9192 -0.2348
 5021TIP3    H236479   6.009   4.259   5.812  1.5470 -0.6994 -0.4564
 5022TIP3   OH236480   3.076   1.127  13.378 -0.5847  0.3597 -0.2005
 5022TIP3    H136481   3.084   1.042  13.335 -3.0291 -0.0707  0.0224
 5022TIP3    H236482   3.164   1.147  13.409  0.2964 -1.5020 -1.3194
 5023TIP3   OH236483   1.830   3.530   0.182  0.2040  0.1127 -0.6290
 5023TIP3    H136484   1.821   3.613   0.135  0.5697  0.4930 -0.0513
 5023TIP3    H236485   1.755   3.478   0.155 -0.9361  1.2542  0.2550
 5024TIP3   OH236486   2.701   4.006  16.744 -0.5984 -0.7089 -0.1026
 5024TIP3    H136487   2.694   4.041  16.833 -0.7848  0.8262 -0.6783
 5024TIP3    H236488   2.650   3.925  16.746  0.9242 -1.6807  1.6279
 5025TIP3   OH236489   0.261   0.945   3.389 -0.0916  0.1549  0.1638
 5025TIP3    H136490   0.308   1.001   3.327 -3.2033  1.6069 -1.0901
 5025TIP3    H236491   0.208   0.887   3.334 -1.4587  0.1262  1.4387
 5026TIP3   OH236492   1.915   3.805   1.433  0.2467 -0.5086  0.7954
 5026TIP3    H136493   1.951   3.717   1.422 -2.0013 -1.4923  0.8585
 5026TIP3    H236494   1.853   3.797   1.506 -0.4642  0.9848  0.3910
 5027TIP3   OH236495   2.572   4.832   4.944 -0.4570 -0.0589 -0.0592
 5027TIP3    H136496   2.535   4.746   4.923 -2.9429  0.5341  1.4943
 5027TIP3    H236497   2.505   4.875   4.995 -0.1264  3.6078 -2.3437
 5028TIP3   OH236498   1.890   4.869  15.375 -0.2840 -1.0530 -0.1478
 5028TIP3    H136499   1.963   4.902  15.428 -1.4937 -0.9408  1.5542
 5028TIP3    H236500   1.824   4.938  15.380 -0.2342 -0.7876 -2.3468
 5029TIP3   OH236501   6.711   1.984  17.143  0.3129  0.2232  0.0333
 5029TIP3    H136502   6.769   1.908  17.143  1.2137  0.8955 -1.0402
 5029TIP3    H236503   6.635   1.956  17.092  0.4307 -0.0995  0.0301
 5030TIP3   OH236504   1.541   5.329   3.979 -0.4955  0.1610  0.1723
 5030TIP3    H136505   1.460   5.367   4.013  0.3748  1.5604  0.7703
 5030TIP3    H236506   1.606   5.346   4.047 -0.0436 -2.5490  0.5090
 5031TIP3   OH236507   1.427   0.715   1.161  0.1479 -0.9088 -0.1260
 5031TIP3    H136508   1.420   0.687   1.252 -0.3949 -0.3754 -0.0001
 5031TIP3    H236509   1.519   0.701   1.139  0.4295 -0.4484  0.7060
 5032TIP3   OH236510   5.466   5.515   4.504 -0.0644 -0.2032 -0.2221
 5032TIP3    H136511   5.541   5.491   4.559 -0.9540 -1.8144  0.3495
 5032TIP3    H236512   5.400   5.544   4.567  0.3113  2.0993 -0.7729
 5033TIP3   OH236513   0.380   6.239   3.300  0.2114 -0.6855  0.7150
 5033TIP3    H136514   0.383   6.254   3.205 -1.4578 -0.0345  0.7335
 5033TIP3    H236515   0.313   6.171   3.311 -1.0990  0.6617  1.5259
 5034TIP3   OH236516   2.653   3.848  10.929  0.4268 -0.0130  0.4466
 5034TIP3    H136517   2.637   3.940  10.950  0.3511 -0.0857  0.7060
 5034TIP3    H236518   2.626   3.800  11.007  0.7994 -0.2295  0.4442
 5035TIP3   OH236519   1.466   0.367  13.542 -0.5393 -0.1555 -0.7776
 5035TIP3    H136520   1.371   0.362  13.528 -0.7464  2.1556 -0.5262
 5035TIP3    H236521   1.475   0.385  13.635  0.0411  1.1629 -1.0649
 5036TIP3   OH236522   4.769   6.300  14.863  0.5189 -0.4523 -0.3515
 5036TIP3    H136523   4.694   6.259  14.905 -0.2148  0.0237 -1.1743
 5036TIP3    H236524   4.769   6.266  14.774  0.6098  0.4037 -0.6882
 5037TIP3   OH236525   2.900   3.351   1.234  0.3157 -0.0435 -0.2994
 5037TIP3    H136526   2.867   3.270   1.274  0.2125 -0.2529 -0.7926
 5037TIP3    H236527   2.929   3.323   1.147  2.4211 -0.0173  0.3373
 5038TIP3   OH236528   5.829   4.276  14.897  0.1770  0.3694 -0.1165
 5038TIP3    H136529   5.775   4.207  14.937 -0.7989  0.6259 -0.9283
 5038TIP3    H236530   5.817   4.351  14.954  0.9629 -0.0257  0.5802
 5039TIP3   OH236531   2.712   3.606  15.167 -0.1925  0.4099 -0.1033
 5039TIP3    H136532   2.651   3.679  15.150 -2.4902 -0.6078  2.8615
 5039TIP3    H236533   2.694   3.581  15.258  1.9109 -2.5893 -0.3821
 5040TIP3   OH236534   3.254   2.004  10.570  0.0602 -0.3299  0.0157
 5040TIP3    H136535   3.161   1.985  10.581  0.5570 -1.9291  2.0604
 5040TIP3    H236536   3.260   2.099  10.585 -1.1922 -0.2703  0.2822
 5041TIP3   OH236537   1.880   2.650   0.987 -0.3140  0.0449 -0.0145
 5041TIP3    H136538   1.851   2.630   0.898 -0.8139  1.6180 -0.2320
 5041TIP3    H236539   1.860   2.570   1.037 -0.8450 -0.5340 -1.1174
 5042TIP3   OH236540   6.483   1.772  11.995  0.1170  0.6855 -0.2606
 5042TIP3    H136541   6.470   1.854  12.043 -1.8263  0.1307  0.2516
 5042TIP3    H236542   6.426   1.780  11.918  2.1906  1.0080 -1.8554
 5043TIP3   OH236543   4.665   6.090  16.606 -0.3530  0.1719  0.4983
 5043TIP3    H136544   4.755   6.120  16.619 -0.0368 -0.3491 -0.3999
 5043TIP3    H236545   4.674   6.000  16.573 -1.0762  1.0314 -2.2748
 5044TIP3   OH236546   4.680   6.059   1.080 -1.1260  0.3085 -0.2860
 5044TIP3    H136547   4.625   6.070   1.157 -1.1758 -0.3588 -0.2281
 5044TIP3    H236548   4.769   6.052   1.114 -1.1903 -0.3983 -0.2606
 5045TIP3   OH236549   3.475   1.044   3.657 -0.7123  0.5976 -0.0864
 5045TIP3    H136550   3.447   1.082   3.574 -2.9967 -0.4519  0.1198
 5045TIP3    H236551   3.408   1.071   3.720  1.2261  1.7641  1.5723
 5046TIP3   OH236552   4.651   4.189   3.988  0.8628  0.5234  0.1059
 5046TIP3    H136553   4.736   4.154   4.014  1.4987  0.5031 -1.8289
 5046TIP3    H236554   4.601   4.194   4.069  1.5729 -2.5650  0.8550
 5047TIP3   OH236555   3.524   0.385   3.194 -0.7959 -0.3188  0.0746
 5047TIP3    H136556   3.436   0.350   3.180 -0.9660  0.2860 -0.4447
 5047TIP3    H236557   3.534   0.390   3.289 -1.0215 -1.1244  0.1463
 5048TIP3   OH236558   5.808   6.136   0.182 -0.6602  0.5295 -0.2050
 5048TIP3    H136559   5.726   6.178   0.155 -0.3423  0.0379 -2.1127
 5048TIP3    H236560   5.813   6.057   0.129 -0.2786 -0.9321  1.8892
 5049TIP3   OH236561   1.329   5.890  12.116 -0.4463 -0.4449 -0.6513
 5049TIP3    H136562   1.243   5.872  12.154  0.8496 -1.0846  2.1691
 5049TIP3    H236563   1.356   5.972  12.157 -0.0698  0.2955 -2.2887
 5050TIP3   OH236564   1.088   1.686   1.110  0.0742 -0.5376  0.3870
 5050TIP3    H136565   1.172   1.731   1.100 -0.4206  0.3189 -0.0073
 5050TIP3    H236566   1.110   1.601   1.149  1.0637 -0.1059  0.7759
 5051TIP3   OH236567   3.106   0.375   0.187  0.2776 -0.3653 -0.3701
 5051TIP3    H136568   3.128   0.282   0.189 -0.6458 -0.6339 -1.5455
 5051TIP3    H236569   3.058   0.389   0.269 -0.5150 -1.1895 -0.6679
 5052TIP3   OH236570   5.150   3.360  16.601  0.2819 -0.3475  0.1544
 5052TIP3    H136571   5.202   3.415  16.543 -1.1126  0.9661  0.0726
 5052TIP3    H236572   5.162   3.399  16.688  0.3516 -0.7371  0.3194
 5053TIP3   OH236573   5.689   4.660  13.754 -0.4316 -0.0707  0.2684
 5053TIP3    H136574   5.686   4.748  13.792 -1.2430  0.1293 -0.2338
 5053TIP3    H236575   5.723   4.674  13.666  1.1253 -0.4934  0.7709
 5054TIP3   OH236576   4.899   1.000  15.807  0.2754  0.7229  0.6121
 5054TIP3    H136577   4.848   1.039  15.878 -2.3906  0.8050 -1.2004
 5054TIP3    H236578   4.875   0.907  15.809 -1.9247  1.1231 -1.6335
 5055TIP3   OH236579   5.058   1.699  13.584 -0.4256  0.2087 -0.1341
 5055TIP3    H136580   5.043   1.764  13.515  0.7742  0.1879 -0.4412
 5055TIP3    H236581   5.152   1.703  13.600 -0.2248 -1.8608 -0.5591
 5056TIP3   OH236582   3.672   5.671   4.158 -0.5738 -0.4501 -0.3471
 5056TIP3    H136583   3.724   5.717   4.092 -0.8951  0.5025  0.0408
 5056TIP3    H236584   3.737   5.638   4.221 -0.3887  0.5211  0.0057
 5057TIP3   OH236585   2.083   5.917   1.677 -0.4183 -0.0479  0.0746
 5057TIP3    H136586   2.079   5.895   1.584  1.0379  0.4931 -0.1511
 5057TIP3    H236587   2.008   5.975   1.691 -0.5326  0.0351 -0.8200
 5058TIP3   OH236588   0.024   4.505   5.358  0.8773 -0.5668 -0.4483
 5058TIP3    H136589  -0.065   4.469   5.363  1.1594 -1.5061 -1.5560
 5058TIP3    H236590   0.052   4.484   5.269  2.7548 -1.6329  0.3432
 5059TIP3   OH236591   5.315   2.382  12.790 -0.0838  0.2921 -0.0404
 5059TIP3    H136592   5.399   2.393  12.836  0.5343  4.3842 -1.7302
 5059TIP3    H236593   5.249   2.383  12.860  0.9925  3.0515  1.0692
 5060TIP3   OH236594   6.400   6.547   1.068  0.5122 -0.5801  0.2340
 5060TIP3    H136595   6.434   6.618   1.013  0.8486 -1.3064 -0.5086
 5060TIP3    H236596   6.409   6.580   1.157 -1.6741  1.3565 -0.1505
 5061TIP3   OH236597   0.227   6.424   2.117  0.1637  0.0588  0.0051
 5061TIP3    H136598   0.193   6.378   2.194  1.3138  0.1589  0.5981
 5061TIP3    H236599   0.272   6.356   2.067 -0.8188 -0.0611 -0.7387
 5062TIP3   OH236600   2.265   3.160  11.939  0.6886 -0.3168  0.1122
 5062TIP3    H136601   2.318   3.194  12.011  1.9887  0.9437 -1.3549
 5062TIP3    H236602   2.181   3.206  11.947  1.0936  0.3875  0.3914
 5063TIP3   OH236603   6.388   2.776  11.645 -0.2389  0.3056  0.0979
 5063TIP3    H136604   6.342   2.704  11.602  0.6890  0.2703 -0.8762
 5063TIP3    H236605   6.324   2.848  11.646 -1.5626 -0.7781  2.0481
 5064TIP3   OH236606   4.419   3.797  11.749  0.1008  0.2528  0.4396
 5064TIP3    H136607   4.426   3.739  11.825  1.2323 -1.3631 -0.8017
 5064TIP3    H236608   4.510   3.812  11.723 -0.2734  0.5376 -0.7516
 5065TIP3   OH236609   1.316   2.902  15.794  0.0469  0.4964 -0.1390
 5065TIP3    H136610   1.384   2.969  15.790 -0.6605  1.3378  1.1594
 5065TIP3    H236611   1.363   2.819  15.784  0.9061  1.1624 -2.0478
 5066TIP3   OH236612   5.610   2.931   1.880 -0.2995 -0.4709 -0.5703
 5066TIP3    H136613   5.663   2.997   1.924 -0.7977 -0.0525 -0.5917
 5066TIP3    H236614   5.603   2.961   1.790  1.2468 -1.6481 -1.1215
 5067TIP3   OH236615   1.798   2.278  11.625 -0.1248 -0.2594 -0.0711
 5067TIP3    H136616   1.825   2.361  11.585 -1.2652 -0.6267 -1.6803
 5067TIP3    H236617   1.871   2.219  11.610 -0.1150 -0.0928 -0.7222
 5068TIP3   OH236618   0.366   5.947   5.216  0.6416 -0.3309  0.6177
 5068TIP3    H136619   0.376   5.943   5.121  1.5079 -1.7494  0.7334
 5068TIP3    H236620   0.297   6.012   5.230  1.1253  0.5778 -0.9208
 5069TIP3   OH236621   2.313   2.799   2.423 -0.2945  0.3841 -0.3430
 5069TIP3    H136622   2.365   2.868   2.464  0.7330 -0.4610 -0.1976
 5069TIP3    H236623   2.362   2.719   2.439 -0.8934 -0.2400 -1.5053
 5070TIP3   OH236624   3.594   3.815  11.311 -0.2508 -0.0758 -0.0548
 5070TIP3    H136625   3.562   3.826  11.401  2.0252 -0.5745  0.8863
 5070TIP3    H236626   3.554   3.888  11.263  0.5391  1.8133  1.9734
 5071TIP3   OH236627   5.292   1.296  12.814  0.3560 -0.6394 -0.4153
 5071TIP3    H136628   5.302   1.226  12.879  3.4688 -0.4246 -0.5154
 5071TIP3    H236629   5.301   1.251  12.729 -0.9638 -0.5351 -0.6318
 5072TIP3   OH236630   5.202   0.519   3.727  0.2372 -0.3054  0.0312
 5072TIP3    H136631   5.152   0.518   3.645  0.8620 -1.2581 -0.3536
 5072TIP3    H236632   5.239   0.607   3.732  0.5311 -0.3628 -0.9347
 5073TIP3   OH236633   3.640   0.931  15.802  0.5215 -0.0094  0.1318
 5073TIP3    H136634   3.697   0.945  15.877  1.5166  0.2731 -0.6546
 5073TIP3    H236635   3.623   0.836  15.802  2.9499 -0.5342 -0.9421
 5074TIP3   OH236636   1.626   4.337   4.803  0.2899  0.1451 -0.5140
 5074TIP3    H136637   1.683   4.262   4.822 -1.4104 -0.9710  0.5370
 5074TIP3    H236638   1.616   4.336   4.708  1.3396 -0.1467 -0.6335
 5075TIP3   OH236639   2.617   0.631   4.040 -0.5978 -0.4288  0.4873
 5075TIP3    H136640   2.695   0.581   4.063  0.2260  1.3719  1.9188
 5075TIP3    H236641   2.558   0.567   4.000  0.6037 -2.3875  1.6656
 5076TIP3   OH236642   4.001   5.809  16.030  0.0968 -0.0141 -0.4173
 5076TIP3    H136643   4.006   5.846  16.118  1.7909 -1.7603  0.2766
 5076TIP3    H236644   4.039   5.877  15.974  1.0369  0.2423  0.4978
 5077TIP3   OH236645   5.582   2.139  14.674 -0.1834  0.2192  0.0450
 5077TIP3    H136646   5.674   2.119  14.688 -0.0037  0.1713 -1.1166
 5077TIP3    H236647   5.559   2.094  14.593 -1.2758  0.1117  0.3927
 5078TIP3   OH236648   1.102   6.170   5.781 -0.0860  0.0107  0.1156
 5078TIP3    H136649   1.054   6.220   5.715 -0.3863 -0.0862  0.2554
 5078TIP3    H236650   1.092   6.078   5.753  0.5065  0.0311 -0.1685
 5079TIP3   OH236651   2.168   0.457   4.142 -0.3611  0.3823 -0.4878
 5079TIP3    H136652   2.255   0.443   4.180  0.0581  1.8889 -0.8039
 5079TIP3    H236653   2.121   0.375   4.157  1.4027 -0.7927 -1.1144
 5080TIP3   OH236654   2.952   1.373   5.086  0.5660  0.3801 -0.1882
 5080TIP3    H136655   2.958   1.458   5.129 -0.9843 -0.2306  1.3382
 5080TIP3    H236656   2.961   1.392   4.993  3.2704  1.8375  0.2708
 5081TIP3   OH236657   6.229   0.226  17.043  0.7905  0.0244  0.0938
 5081TIP3    H136658   6.295   0.177  17.091  3.4471  0.7785 -2.5097
 5081TIP3    H236659   6.182   0.160  16.992  0.5892 -0.3439  0.7455
 5082TIP3   OH236660   1.001   3.368  16.485  0.7288 -0.0930  0.2791
 5082TIP3    H136661   0.973   3.459  16.487  1.1298  0.0349  0.2135
 5082TIP3    H236662   1.035   3.351  16.573 -0.4552 -0.5469  0.6773
 5083TIP3   OH236663   5.340   5.536  12.135  0.5345  0.3888 -0.2748
 5083TIP3    H136664   5.384   5.542  12.050  0.6522 -2.5293 -0.5319
 5083TIP3    H236665   5.247   5.549  12.115  0.6750  0.7607 -0.6837
 5084TIP3   OH236666   3.794   0.694   5.301  0.2448  0.0489 -0.1932
 5084TIP3    H136667   3.882   0.721   5.274  0.0217  0.5441 -0.4461
 5084TIP3    H236668   3.735   0.751   5.251 -0.2181 -0.2075  0.0503
 5085TIP3   OH236669   1.288   1.844  13.494  0.4811  0.5553 -0.0305
 5085TIP3    H136670   1.200   1.841  13.530  0.2877 -0.3424 -0.5528
 5085TIP3    H236671   1.345   1.853  13.571  0.0069 -0.2411  0.4228
 5086TIP3   OH236672   5.264   1.267   4.255  0.2183 -0.4338 -0.2153
 5086TIP3    H136673   5.233   1.302   4.339 -0.3013  2.0153 -1.3348
 5086TIP3    H236674   5.359   1.271   4.261  0.1992 -0.8610  0.4770
 5087TIP3   OH236675   4.524   4.966   2.590 -0.6001 -0.5063 -0.3008
 5087TIP3    H136676   4.480   4.886   2.619 -0.9431  0.3350  1.6517
 5087TIP3    H236677   4.522   5.023   2.666  1.3662  0.6501 -1.0502
 5088TIP3   OH236678   4.660   0.258   0.710 -0.3057  0.2140  0.0064
 5088TIP3    H136679   4.718   0.261   0.634  0.6141  0.3985  0.6954
 5088TIP3    H236680   4.577   0.294   0.678 -0.2189 -0.5457 -1.1336
 5089TIP3   OH236681   0.315   5.953  16.055 -0.5521 -0.4420 -0.3551
 5089TIP3    H136682   0.236   5.906  16.083  0.2330 -1.2934  0.5401
 5089TIP3    H236683   0.300   5.973  15.963 -1.3614 -1.5587 -0.4887
 5090TIP3   OH236684   5.166   6.252  12.765  0.2953  0.5798 -0.3858
 5090TIP3    H136685   5.101   6.284  12.703 -1.7651  0.3974  1.5545
 5090TIP3    H236686   5.163   6.156  12.757  0.4533  0.5741 -0.3953
 5091TIP3   OH236687   0.438   5.652   0.857  0.3031 -0.3910  0.3205
 5091TIP3    H136688   0.430   5.677   0.949 -0.0245 -1.2153  0.5236
 5091TIP3    H236689   0.533   5.644   0.843  0.3442 -0.4574  0.6348
 5092TIP3   OH236690   5.455   5.007  13.658  0.2241 -0.2603  0.4649
 5092TIP3    H136691   5.484   4.966  13.739 -0.0439  1.2537  1.3640
 5092TIP3    H236692   5.372   5.048  13.680  0.7595  1.2670 -0.1877
 5093TIP3   OH236693   0.351   0.935  16.760  0.1300 -0.4993 -0.6327
 5093TIP3    H136694   0.266   0.903  16.791  0.6493 -1.6810 -0.3936
 5093TIP3    H236695   0.405   0.940  16.838  0.0250  1.2092 -0.6254
 5094TIP3   OH236696   3.390   0.534   2.049 -0.5340 -0.0542 -0.0452
 5094TIP3    H136697   3.381   0.442   2.024  3.1211 -0.4527 -0.4007
 5094TIP3    H236698   3.311   0.576   2.015 -1.1521 -2.6258 -2.0879
 5095TIP3   OH236699   0.139   5.152  13.499 -0.0156  0.2702 -0.2418
 5095TIP3    H136700   0.232   5.172  13.501  0.4608 -1.5494 -1.2789
 5095TIP3    H236701   0.122   5.126  13.408 -1.3661 -0.0972  0.0906
 5096TIP3   OH236702   5.679   1.092   4.912  0.3134  0.4733  0.2576
 5096TIP3    H136703   5.681   1.058   5.002  1.5594 -1.3090 -0.3725
 5096TIP3    H236704   5.757   1.055   4.872 -0.9330  0.0872 -1.9525
 5097TIP3   OH236705   1.796   4.647  12.725  0.4189  0.0048 -0.3522
 5097TIP3    H136706   1.807   4.552  12.733  1.0983  0.1922  1.8694
 5097TIP3    H236707   1.841   4.682  12.802  1.8014  2.2693 -2.0584
 5098TIP3   OH236708   6.101   3.417   1.069 -0.3641 -0.2676  0.1138
 5098TIP3    H136709   6.031   3.478   1.045 -1.1913 -0.9818  0.6664
 5098TIP3    H236710   6.148   3.401   0.987 -1.4288 -0.5171 -0.4608
 5099TIP3   OH236711   4.760   0.292  12.434 -0.2829  0.1761 -0.5269
 5099TIP3    H136712   4.735   0.235  12.361 -1.8096  1.4009 -1.0040
 5099TIP3    H236713   4.814   0.236  12.491  0.2159 -1.0507 -2.1310
 5100TIP3   OH236714   5.916   0.711  12.251  0.6044 -0.2363 -0.2287
 5100TIP3    H136715   5.865   0.755  12.318  1.7529  2.2342 -0.8458
 5100TIP3    H236716   6.006   0.712  12.285  0.6634 -2.3443 -0.2006
 5101TIP3   OH236717   3.566   5.169   1.210 -0.0568  0.3298 -0.8001
 5101TIP3    H136718   3.605   5.225   1.277  0.2755 -0.8502  0.0261
 5101TIP3    H236719   3.616   5.187   1.130  0.6008  0.5822 -0.3324
 5102TIP3   OH236720   0.417   5.005  15.179 -0.4783  0.0058 -0.3853
 5102TIP3    H136721   0.322   4.994  15.167 -0.4979 -1.1685  0.6001
 5102TIP3    H236722   0.428   5.010  15.274  0.6039 -1.6930 -0.3703
 5103TIP3   OH236723   3.251   5.161  14.591 -0.0192 -0.2832 -0.2897
 5103TIP3    H136724   3.187   5.090  14.578 -2.1821  1.5656 -0.4390
 5103TIP3    H236725   3.276   5.186  14.502  0.4117 -0.5663 -0.2496
 5104TIP3   OH236726   2.770   4.281  15.840 -0.1915  0.3501 -0.0059
 5104TIP3    H136727   2.734   4.244  15.759 -0.3089  0.6392 -0.0868
 5104TIP3    H236728   2.825   4.211  15.875  2.6921  1.3844 -2.1090
 5105TIP3   OH236729   4.396   1.125  13.434 -0.0059 -0.0635  0.6777
 5105TIP3    H136730   4.372   1.055  13.374  2.5426 -1.9780  1.6893
 5105TIP3    H236731   4.489   1.111  13.451  0.3264  2.8729  1.9206
 5106TIP3   OH236732   5.165   6.002   4.260 -0.6058 -0.1459  0.0436
 5106TIP3    H136733   5.191   6.094   4.264 -1.2986  0.0338  1.2554
 5106TIP3    H236734   5.238   5.955   4.301 -0.4544 -0.0788 -0.1499
 5107TIP3   OH236735   4.335   3.286   0.326 -0.6097  0.4512  0.2308
 5107TIP3    H136736   4.269   3.320   0.265 -2.4753 -0.8947  1.3869
 5107TIP3    H236737   4.414   3.278   0.273 -1.8486  0.3854 -1.7240
 5108TIP3   OH236738   1.540   2.770   3.481  0.0540 -0.3350 -0.2971
 5108TIP3    H136739   1.609   2.807   3.427  0.2629  1.2066  0.9470
 5108TIP3    H236740   1.464   2.826   3.465  0.3695  0.7385  1.6004
 5109TIP3   OH236741   6.048   4.879   2.989  0.2725 -0.2398 -0.2928
 5109TIP3    H136742   5.966   4.920   2.962  0.2983  0.6209  0.8466
 5109TIP3    H236743   6.113   4.909   2.925  0.2474  1.3612  0.4075
 5110TIP3   OH236744   2.771   1.967   2.039  0.8474  0.7795 -0.0303
 5110TIP3    H136745   2.773   1.890   1.982  0.1181  0.4788  0.3356
 5110TIP3    H236746   2.839   1.951   2.103  0.9600  0.6200 -0.1878
 5111TIP3   OH236747   4.648   3.324  13.651 -0.3413 -0.1634 -0.2455
 5111TIP3    H136748   4.578   3.371  13.696  0.6648  1.5447 -0.3692
 5111TIP3    H236749   4.660   3.244  13.701 -1.2252  0.3281  0.7870
 5112TIP3   OH236750   1.944   6.442   6.123  0.3510  0.7009 -0.3138
 5112TIP3    H136751   2.000   6.484   6.058  0.9235 -1.6060 -1.4359
 5112TIP3    H236752   1.954   6.348   6.106 -4.5227  0.0978 -1.1954
 5113TIP3   OH236753   4.795   2.715  11.454 -0.0533 -0.5569 -0.2010
 5113TIP3    H136754   4.888   2.715  11.430  0.1757 -0.7923  0.6537
 5113TIP3    H236755   4.794   2.751  11.542 -0.9445  0.9065 -0.7777
 5114TIP3   OH236756   4.910   1.668  14.248  0.3072  0.0854  0.1913
 5114TIP3    H136757   4.838   1.719  14.208  1.2999  0.7532 -0.8210
 5114TIP3    H236758   4.950   1.622  14.174 -0.4878 -2.1554  1.0627
 5115TIP3   OH236759   3.308   5.447   3.634  0.1452 -0.2424  0.3269
 5115TIP3    H136760   3.366   5.397   3.577  0.7263  0.0548  0.6457
 5115TIP3    H236761   3.367   5.493   3.695 -0.3998  0.3521  0.4246
 5116TIP3   OH236762   0.874   1.393  16.011 -0.2894 -0.3550 -0.3160
 5116TIP3    H136763   0.870   1.404  16.106 -2.6782  1.1981 -0.5156
 5116TIP3    H236764   0.835   1.473  15.975  1.0556 -0.6486 -2.6491
 5117TIP3   OH236765   5.513   4.851   0.717 -0.1214 -0.2118 -0.0122
 5117TIP3    H136766   5.607   4.838   0.712  0.1113  1.1928  0.1933
 5117TIP3    H236767   5.503   4.943   0.744 -1.5403 -0.3530  0.0231
 5118TIP3   OH236768   5.684   5.987   0.976 -0.2198  0.7474 -0.0015
 5118TIP3    H136769   5.759   5.967   1.032 -0.2583 -0.5140 -0.3801
 5118TIP3    H236770   5.720   5.991   0.888 -1.0424 -3.6058 -0.7587
 5119TIP3   OH236771   4.859   6.443  16.638  0.0077  0.6904 -0.6693
 5119TIP3    H136772   4.780   6.479  16.677 -0.4412 -1.3569  0.4513
 5119TIP3    H236773   4.918   6.519  16.628 -1.6491  2.0510 -0.4977
 5120TIP3   OH236774   4.939   1.874   2.019  1.0156  0.2597 -0.2228
 5120TIP3    H136775   4.867   1.848   1.961  1.3406  1.9473 -1.4535
 5120TIP3    H236776   5.018   1.843   1.976  1.0918 -1.4325  1.0405
 5121TIP3   OH236777   5.465   3.319   3.361  0.0522  0.1569 -0.3438
 5121TIP3    H136778   5.393   3.355   3.310 -1.5368 -1.4666  0.6429
 5121TIP3    H236779   5.440   3.334   3.452  0.4889 -1.2299  0.0337
 5122TIP3   OH236780   0.175   2.056   1.339  0.2740  0.4131 -0.1358
 5122TIP3    H136781   0.227   2.017   1.269  0.2914  0.6895 -0.2767
 5122TIP3    H236782   0.101   1.996   1.349 -0.8645  1.4284 -1.8410
 5123TIP3   OH236783   2.490   5.905   3.581  0.3838 -0.1145 -0.4725
 5123TIP3    H136784   2.558   5.859   3.630 -0.8782  0.3079  1.8666
 5123TIP3    H236785   2.409   5.881   3.626 -0.9073  0.2254 -2.5102
 5124TIP3   OH236786   4.357   1.030   3.810  0.6298 -0.2745  0.1829
 5124TIP3    H136787   4.284   0.985   3.853 -0.7262 -0.1160 -1.8216
 5124TIP3    H236788   4.346   1.011   3.717  2.6214  0.5531 -0.2857
 5125TIP3   OH236789   6.591   2.156   4.023  0.0798 -0.1315  0.5843
 5125TIP3    H136790   6.498   2.136   4.020  0.0007  0.3116 -0.3129
 5125TIP3    H236791   6.614   2.177   3.933  0.6066  1.7071  1.0961
 5126TIP3   OH236792   5.485   1.302  17.026  0.0061 -0.5941 -0.5727
 5126TIP3    H136793   5.457   1.342  17.108 -1.2649 -1.1309 -0.7160
 5126TIP3    H236794   5.502   1.210  17.048  1.0521 -0.4364 -0.6371
 5127TIP3   OH236795   3.550   2.376  12.271  1.2801  0.1179 -0.9336
 5127TIP3    H136796   3.531   2.469  12.259  0.2244 -0.0113 -0.3954
 5127TIP3    H236797   3.634   2.374  12.317  0.4889  0.8873  0.6335
 5128TIP3   OH236798   0.972   0.995   4.624 -0.5186  0.0366  0.0084
 5128TIP3    H136799   0.936   1.077   4.658  0.6670  0.0933  1.2122
 5128TIP3    H236800   1.046   0.975   4.682  0.9655 -0.4224 -1.9428
 5129TIP3   OH236801   4.575   6.612   1.844 -1.3394  0.7277  0.3487
 5129TIP3    H136802   4.487   6.619   1.804 -0.7567  1.4746 -0.8839
 5129TIP3    H236803   4.598   6.702   1.866 -1.3156  0.4103  1.7055
 5130TIP3   OH236804   5.034   1.183  12.863 -0.3493  0.3027  0.0810
 5130TIP3    H136805   5.067   1.159  12.777  0.0695  0.0083  0.3246
 5130TIP3    H236806   5.111   1.184  12.919 -0.9124 -1.8144  0.9904
 5131TIP3   OH236807   3.501   6.182  16.729 -0.1998  0.4896  0.2207
 5131TIP3    H136808   3.472   6.270  16.705 -1.2252  0.4395  1.2043
 5131TIP3    H236809   3.420   6.132  16.737  0.1239  0.2496  2.7261
 5132TIP3   OH236810   2.829   3.511   2.090 -0.0578 -0.0497 -0.2514
 5132TIP3    H136811   2.877   3.576   2.141 -0.1466  0.2980 -0.6061
 5132TIP3    H236812   2.861   3.427   2.121  0.9979  0.1772 -0.6933
 5133TIP3   OH236813   2.888   4.754  11.790  0.5300 -0.3154 -0.4651
 5133TIP3    H136814   2.933   4.814  11.730 -1.0022 -1.1645 -2.5935
 5133TIP3    H236815   2.930   4.670  11.776 -0.0475 -0.5872 -0.6027
 5134TIP3   OH236816   5.526   2.137  13.451 -0.3871  0.3797 -0.4852
 5134TIP3    H136817   5.576   2.062  13.483  0.0054  0.4484 -0.9318
 5134TIP3    H236818   5.469   2.160  13.524  0.3092  0.3685  0.0715
 5135TIP3   OH236819   3.721   5.267  12.475 -0.0208  0.5116  0.1016
 5135TIP3    H136820   3.631   5.243  12.495 -0.1387  0.3101 -0.6329
 5135TIP3    H236821   3.756   5.302  12.557  0.2627 -2.4655  1.3700
 5136TIP3   OH236822   3.892   5.070   5.278  0.2524 -0.1293  1.0721
 5136TIP3    H136823   3.842   5.145   5.310  0.1785  0.9282 -1.2905
 5136TIP3    H236824   3.841   4.994   5.305 -2.6901  0.8795 -1.1118
 5137TIP3   OH236825   5.782   2.275  12.356  0.3859  0.1404 -0.2076
 5137TIP3    H136826   5.732   2.318  12.287 -0.8348 -0.6788  0.1165
 5137TIP3    H236827   5.716   2.225  12.405  1.6344 -1.6361 -0.2407
 5138TIP3   OH236828   5.703   4.711   6.771 -0.2986  0.0316  0.1761
 5138TIP3    H136829   5.767   4.748   6.711  0.8696 -0.5885  1.0054
 5138TIP3    H236830   5.645   4.659   6.715  0.6077 -0.3248 -0.4625
 5139TIP3   OH236831   4.214   4.516  16.323 -0.5832 -0.1214 -0.0628
 5139TIP3    H136832   4.120   4.528  16.334 -0.7432 -0.8401 -0.6088
 5139TIP3    H236833   4.249   4.524  16.412 -1.2275 -0.4640  0.2271
 5140TIP3   OH236834   2.648   6.640   2.956 -0.2446  0.7781 -0.0312
 5140TIP3    H136835   2.582   6.701   2.989 -0.5144 -0.1666  1.2620
 5140TIP3    H236836   2.617   6.617   2.869  0.2118  2.9504 -0.8260
 5141TIP3   OH236837   3.366   4.268  11.538  0.0713  0.7796  0.5581
 5141TIP3    H136838   3.368   4.201  11.606  0.6066  0.9096  0.6722
 5141TIP3    H236839   3.273   4.283  11.522 -0.0588 -0.4166  0.1020
 5142TIP3   OH236840   5.487   4.613   0.425  0.3740 -0.7152 -0.0860
 5142TIP3    H136841   5.546   4.644   0.355 -1.6542 -1.7697 -2.4147
 5142TIP3    H236842   5.540   4.552   0.476  2.0546  0.4217 -0.3846
 5143TIP3   OH236843   5.665   4.972   2.415  0.1371  0.0453 -0.1868
 5143TIP3    H136844   5.614   5.040   2.458 -0.5563 -0.8585  0.4389
 5143TIP3    H236845   5.698   5.014   2.335 -2.4003  0.3864 -1.1426
 5144TIP3   OH236846   4.155   2.132   1.405 -0.4221 -0.1217  0.3266
 5144TIP3    H136847   4.178   2.043   1.381 -1.6755 -0.9033  1.8184
 5144TIP3    H236848   4.094   2.160   1.336  0.0742 -0.3698 -0.2162
 5145TIP3   OH236849   2.014   5.830   5.489  0.0120  0.3103  0.3997
 5145TIP3    H136850   2.080   5.798   5.427 -0.3328  1.5198 -0.6293
 5145TIP3    H236851   2.037   5.788   5.572  0.7191 -1.0508 -0.4478
 5146TIP3   OH236852   2.838   1.150   1.579 -0.0964 -0.0270  0.2688
 5146TIP3    H136853   2.859   1.118   1.667  0.7352 -1.5856 -0.4469
 5146TIP3    H236854   2.752   1.113   1.560  1.1549 -2.6699 -0.8296
 5147TIP3   OH236855   6.557   4.204  14.073 -0.2457  0.4683  0.3991
 5147TIP3    H136856   6.537   4.169  13.986  0.1263  0.9533  0.1133
 5147TIP3    H236857   6.474   4.198  14.121  0.1248 -2.1902  0.8585
 5148TIP3   OH236858   6.416   6.169  15.633  0.2070  0.1319  0.1902
 5148TIP3    H136859   6.406   6.219  15.552  0.8282 -0.2289 -0.1191
 5148TIP3    H236860   6.376   6.223  15.701  1.8851  1.5866  0.0728
 5149TIP3   OH236861   1.180   0.315  13.032 -0.0289 -0.1967  0.0336
 5149TIP3    H136862   1.244   0.278  12.972 -0.7990  0.1804 -1.0609
 5149TIP3    H236863   1.127   0.240  13.059 -0.8748 -0.1198 -1.2916
 5150TIP3   OH236864   0.143   0.983   0.167 -0.1482  0.6865 -0.1287
 5150TIP3    H136865   0.121   0.928   0.091 -0.5573 -1.4223  1.4293
 5150TIP3    H236866   0.236   1.003   0.156 -0.3052  0.7863 -1.3967
 5151TIP3   OH236867   5.514   2.454   0.557  1.0578 -0.0793  0.6168
 5151TIP3    H136868   5.519   2.526   0.494 -0.7131 -0.0726  0.4137
 5151TIP3    H236869   5.574   2.388   0.522 -0.4267 -0.3988 -1.5864
 5152TIP3   OH236870   1.514   2.739   0.822  0.2024  0.7263  0.2466
 5152TIP3    H136871   1.472   2.819   0.790  0.2231  0.8068  0.4186
 5152TIP3    H236872   1.577   2.717   0.754 -1.0810 -0.1787 -0.6894
 5153TIP3   OH236873   1.839   0.743  13.300 -0.0789 -0.4228 -0.0458
 5153TIP3    H136874   1.772   0.807  13.277  2.4718  2.0882 -1.2021
 5153TIP3    H236875   1.884   0.782  13.375  3.0603  0.5977 -2.2294
 5154TIP3   OH236876   4.603   6.463  15.813  0.0486 -0.2049 -0.1486
 5154TIP3    H136877   4.573   6.414  15.890  0.2386 -0.5851 -0.3204
 5154TIP3    H236878   4.547   6.541  15.812  1.2709  0.7634  1.4638
 5155TIP3   OH236879   2.102   1.506  14.932  0.1195  1.3108  0.3404
 5155TIP3    H136880   2.073   1.452  14.858  0.1333  1.2714  0.3640
 5155TIP3    H236881   2.065   1.462  15.009 -2.1396  2.7596  0.1938
 5156TIP3   OH236882   5.670   5.097  13.500 -0.0670  0.3062  0.2268
 5156TIP3    H136883   5.608   5.064  13.566  0.8345 -0.2340  0.8343
 5156TIP3    H236884   5.625   5.084  13.417 -1.4008  1.3729  0.7434
 5157TIP3   OH236885   4.569   0.294  11.499  0.3417  0.7857 -0.1023
 5157TIP3    H136886   4.579   0.208  11.459  1.6730  0.7154  0.3471
 5157TIP3    H236887   4.526   0.276  11.583  1.2326  0.4656  0.2968
 5158TIP3   OH236888   4.328   1.014  14.119 -0.3373  0.6028 -0.0926
 5158TIP3    H136889   4.252   0.999  14.176 -1.0525  0.9687 -0.9216
 5158TIP3    H236890   4.376   1.084  14.163 -1.2439  1.3554 -0.2647
 5159TIP3   OH236891   5.167   1.080  16.180 -0.6124 -0.0385  0.0827
 5159TIP3    H136892   5.194   1.163  16.140 -0.1222  1.2819  2.9084
 5159TIP3    H236893   5.083   1.099  16.220 -2.3887 -2.0695 -2.3380
 5160TIP3   OH236894   4.213   3.929  12.093  0.0813  0.5371  0.8884
 5160TIP3    H136895   4.243   3.884  12.172 -0.6985 -1.5548  0.0620
 5160TIP3    H236896   4.163   3.863  12.045  0.3806  1.7943 -1.2904
 5161TIP3   OH236897   5.992   4.055   3.162  0.3399  0.3290 -0.4512
 5161TIP3    H136898   5.985   4.075   3.255  2.0493  2.1277 -0.6471
 5161TIP3    H236899   5.991   3.959   3.157 -0.4784  0.2141  1.3107
 5162TIP3   OH236900   2.085   5.725  13.718 -1.1157 -0.5496 -0.1224
 5162TIP3    H136901   2.059   5.816  13.733 -0.4537 -0.6624  2.0127
 5162TIP3    H236902   2.009   5.674  13.745 -1.4384 -0.6681 -1.1964
 5163TIP3   OH236903   6.496   6.565  12.141  0.6758 -0.6904  0.1603
 5163TIP3    H136904   6.544   6.542  12.061 -1.8513 -1.1310 -1.3212
 5163TIP3    H236905   6.565   6.585  12.205  2.8710 -3.0653 -1.2572
 5164TIP3   OH236906   0.733   4.789  13.326  0.2845 -0.1110 -0.6236
 5164TIP3    H136907   0.794   4.850  13.286  1.5784 -0.4260  0.8223
 5164TIP3    H236908   0.781   4.707  13.332  0.5331  0.1467  2.4121
 5165TIP3   OH236909   5.408   6.002  13.553 -0.5059  0.1412 -0.1963
 5165TIP3    H136910   5.412   5.950  13.473 -0.6840  1.5146 -1.1335
 5165TIP3    H236911   5.387   6.091  13.523 -0.8288  0.6362  1.3948
 5166TIP3   OH236912   0.105   2.781  11.821  0.1661  0.4545 -0.0601
 5166TIP3    H136913   0.159   2.703  11.827  1.4141  1.2661 -0.3127
 5166TIP3    H236914   0.130   2.821  11.737  1.5368  2.4965  1.2285
 5167TIP3   OH236915   3.931   6.177  10.899  0.2735  0.5687 -0.4033
 5167TIP3    H136916   3.945   6.107  10.963 -0.3095 -0.2528 -1.1634
 5167TIP3    H236917   3.905   6.253  10.953 -2.1258 -0.6226  0.2458
 5168TIP3   OH236918   4.297   5.522   3.698 -0.4503  0.1024 -1.1359
 5168TIP3    H136919   4.377   5.471   3.708  0.6629  1.7802 -1.0072
 5168TIP3    H236920   4.267   5.538   3.787  0.7683  1.9303 -0.9870
 5169TIP3   OH236921   6.126   0.331  15.053  0.0738 -0.2320  0.5894
 5169TIP3    H136922   6.156   0.242  15.034 -0.5106 -0.2113 -0.5480
 5169TIP3    H236923   6.037   0.319  15.088 -0.3918 -0.0625 -0.4946
 5170TIP3   OH236924   2.546   3.413  11.979 -0.0201  0.0161 -0.0632
 5170TIP3    H136925   2.569   3.504  11.994 -0.3306  0.1544 -0.4038
 5170TIP3    H236926   2.571   3.367  12.059  1.3401  0.1748 -0.3801
 5171TIP3   OH236927   5.474   3.607  10.807 -0.5628  0.3443  0.4281
 5171TIP3    H136928   5.382   3.616  10.831 -0.2407  0.2636  1.7720
 5171TIP3    H236929   5.473   3.559  10.724 -1.7584  1.4214 -0.2081
 5172TIP3   OH236930   3.456   5.226   3.882  0.1740 -0.2199  0.3463
 5172TIP3    H136931   3.369   5.266   3.892  0.0583  0.0015 -1.2258
 5172TIP3    H236932   3.509   5.268   3.949 -0.3518  1.4466 -0.2173
 5173TIP3   OH236933   3.175   3.377   5.671  0.4947 -0.3715  0.0542
 5173TIP3    H136934   3.188   3.313   5.601  0.6926 -2.5774  1.9604
 5173TIP3    H236935   3.238   3.446   5.653  1.6240 -1.6373 -1.1052
 5174TIP3   OH236936   3.097   1.080  13.705 -0.1647 -1.0382 -0.2540
 5174TIP3    H136937   3.073   1.165  13.743  1.2500 -1.1735  1.0326
 5174TIP3    H236938   3.024   1.022  13.727  0.0037 -0.7725  1.1133
 5175TIP3   OH236939   3.147   4.392   4.165 -0.1228 -0.4411 -0.1415
 5175TIP3    H136940   3.110   4.306   4.148  3.3458 -1.9380 -1.0048
 5175TIP3    H236941   3.194   4.414   4.085  0.0540  1.7563  0.4952
 5176TIP3   OH236942   3.259   2.917   0.934 -0.4700  0.1669  0.0080
 5176TIP3    H136943   3.331   2.917   0.997 -1.3179 -1.0701  1.0326
 5176TIP3    H236944   3.300   2.890   0.852  0.0757 -1.6628  0.8274
 5177TIP3   OH236945   2.149   1.023  13.622 -0.5655 -0.2416  0.0689
 5177TIP3    H136946   2.167   1.042  13.530 -1.2743 -2.5478 -0.6286
 5177TIP3    H236947   2.235   1.010  13.662 -0.2086  1.5553 -0.0171
 5178TIP3   OH236948   3.574   4.549   2.865 -0.4956 -0.2413 -0.4264
 5178TIP3    H136949   3.518   4.626   2.878 -1.5314 -1.0976  0.4502
 5178TIP3    H236950   3.518   4.475   2.889  1.3111 -1.0791  1.5201
 5179TIP3   OH236951   5.512   3.602  15.896  0.5242  0.6883  0.5310
 5179TIP3    H136952   5.507   3.510  15.923 -0.4294  0.8720  1.0476
 5179TIP3    H236953   5.489   3.602  15.803 -0.5738  0.5032  0.7849
 5180TIP3   OH236954   3.660   4.982   4.643 -0.7598  0.4944 -0.2341
 5180TIP3    H136955   3.696   4.920   4.579  0.8166  0.5841  0.5354
 5180TIP3    H236956   3.575   5.007   4.605 -0.7877 -0.9978 -1.2780
 5181TIP3   OH236957   6.419   2.097  14.183  0.1847  0.2103 -0.1903
 5181TIP3    H136958   6.492   2.157  14.197  1.2153 -0.7062 -1.5315
 5181TIP3    H236959   6.342   2.154  14.179  1.0955  1.4147 -1.0447
 5182TIP3   OH236960   3.094   3.563  15.327  0.1509 -0.1347  0.7054
 5182TIP3    H136961   3.188   3.570  15.309  0.4405 -0.3796  2.0505
 5182TIP3    H236962   3.083   3.474  15.362 -0.6285 -0.1907  0.3380
 5183TIP3   OH236963   4.868   5.971  13.822  0.2892 -0.5931 -0.3545
 5183TIP3    H136964   4.860   6.055  13.868  1.0901  0.9639 -2.8283
 5183TIP3    H236965   4.778   5.951  13.795  0.3971  1.0758 -2.2207
 5184TIP3   OH236966   4.174   5.872   2.433  0.2571 -0.0910 -0.3480
 5184TIP3    H136967   4.183   5.911   2.520 -1.9006 -1.4412  0.5857
 5184TIP3    H236968   4.255   5.822   2.420 -0.4356 -2.0849  2.1624
 5185TIP3   OH236969   6.221   1.221   5.687 -0.0652 -0.5371  0.5337
 5185TIP3    H136970   6.313   1.200   5.671  0.1627 -0.2911  1.4674
 5185TIP3    H236971   6.200   1.286   5.621  1.0389  0.9425  1.5722
 5186TIP3   OH236972   4.315   1.175   3.498  0.8406  0.0482  0.0967
 5186TIP3    H136973   4.393   1.165   3.444 -0.0935 -1.4301 -1.0772
 5186TIP3    H236974   4.247   1.127   3.450 -1.1297  2.3259  0.4155
 5187TIP3   OH236975   4.189   1.613   0.801  0.0573 -0.0749 -0.2245
 5187TIP3    H136976   4.135   1.630   0.878  0.5536  0.4483  0.0145
 5187TIP3    H236977   4.165   1.524   0.774  0.2160 -0.4519  0.8217
 5188TIP3   OH236978   2.277   4.097  15.959 -0.4752  0.8496 -0.3414
 5188TIP3    H136979   2.341   4.068  16.023  0.7210  0.7996 -1.5167
 5188TIP3    H236980   2.192   4.087  16.003  0.0721 -1.8506  0.2346
 5189TIP3   OH236981   0.539   1.960   1.634 -0.0133 -0.0854 -0.6199
 5189TIP3    H136982   0.562   2.052   1.644 -1.0062  0.4223 -2.3916
 5189TIP3    H236983   0.443   1.959   1.635 -0.0974 -1.6440  3.0940
 5190TIP3   OH236984   6.103   5.931   3.536 -0.3785  0.2891  0.0841
 5190TIP3    H136985   6.186   5.908   3.494  0.3453  1.6827  0.7009
 5190TIP3    H236986   6.070   6.006   3.487 -0.5825  0.6109  0.6983
 5191TIP3   OH236987   3.606   4.409   0.064  0.1686 -0.4722  0.2907
 5191TIP3    H136988   3.681   4.464   0.042 -0.5327  0.1272 -0.7195
 5191TIP3    H236989   3.613   4.395   0.158  0.7720  0.7374  0.4421
 5192TIP3   OH236990   4.682   3.088  13.393  0.1975  0.3684  0.5257
 5192TIP3    H136991   4.643   3.029  13.329  0.3610 -0.0124  0.7694
 5192TIP3    H236992   4.630   3.168  13.388  0.4807  0.5072 -0.3896
 5193TIP3   OH236993   2.611   6.543   1.146  0.0726  0.1598  0.0857
 5193TIP3    H136994   2.632   6.487   1.071 -2.6547 -1.9368  0.7274
 5193TIP3    H236995   2.528   6.585   1.122  0.3819  1.3466  1.0010
 5194TIP3   OH236996   1.313   2.116  15.657 -0.4140 -0.3903  0.0650
 5194TIP3    H136997   1.320   2.150  15.568 -0.2329 -1.5587 -0.3893
 5194TIP3    H236998   1.351   2.184  15.712 -3.2015  1.7172 -0.3795
 5195TIP3   OH236999   4.829   6.691  15.743  0.2056  0.1560  0.3706
 5195TIP3    H137000   4.865   6.614  15.785  0.6576  0.2628  0.1802
 5195TIP3    H237001   4.876   6.765  15.782  0.7896  0.2420 -0.4672
 5196TIP3   OH237002   0.270   1.574   1.695 -0.6161 -0.2713 -0.2551
 5196TIP3    H137003   0.293   1.645   1.754 -1.3249 -0.1261 -0.1434
 5196TIP3    H237004   0.344   1.568   1.635 -0.1919  0.0253  0.2265
 5197TIP3   OH237005   4.842   3.540   4.985  0.3606 -0.2562 -0.1168
 5197TIP3    H137006   4.831   3.596   4.909  0.5639  0.2358  0.2134
 5197TIP3    H237007   4.799   3.458   4.961  2.3129 -0.9267 -1.6464
 5198TIP3   OH237008   2.118   3.705  16.073  0.1145 -0.4713 -0.3067
 5198TIP3    H137009   2.085   3.764  16.006 -2.4874  0.4035  1.5889
 5198TIP3    H237010   2.179   3.758  16.124  0.6739 -0.5899 -0.8374
 5199TIP3   OH237011   0.368   3.527  12.248  0.2344  0.5090  0.2322
 5199TIP3    H137012   0.399   3.521  12.158 -0.8558 -0.7381 -0.0878
 5199TIP3    H237013   0.446   3.508  12.301  0.9292  1.4382 -0.4160
 5200TIP3   OH237014   3.169   4.400  16.881 -0.0878  0.0408 -0.6628
 5200TIP3    H137015   3.101   4.412  16.815  0.6505  1.2326 -1.2531
 5200TIP3    H237016   3.127   4.425  16.964 -0.2887  1.1448 -1.0748
 5201TIP3   OH237017   3.404   5.209  13.632 -1.0716  0.6441  0.0912
 5201TIP3    H137018   3.337   5.206  13.700 -1.0980  1.2834  0.0986
 5201TIP3    H237019   3.429   5.301  13.626  2.8324  0.0296  2.9861
 5202TIP3   OH237020   3.887   5.174   3.214  0.9134  0.0828  0.3216
 5202TIP3    H137021   3.817   5.129   3.261  0.7650 -0.8003 -0.7165
 5202TIP3    H237022   3.869   5.157   3.121  1.8564  0.8068 -0.0108
 5203TIP3   OH237023   3.913   0.462  16.238 -0.5873 -0.4395 -0.1329
 5203TIP3    H137024   3.916   0.558  16.241 -2.3192 -0.3655  0.7589
 5203TIP3    H237025   3.948   0.440  16.152 -1.8165  1.1107 -1.0972
 5204TIP3   OH237026   0.700   0.790   3.189  0.1575  0.0355 -0.2641
 5204TIP3    H137027   0.663   0.721   3.134 -0.2121  1.5605 -1.9832
 5204TIP3    H237028   0.713   0.747   3.274 -0.7510 -1.9368 -1.0539
 5205TIP3   OH237029   0.683   6.033  15.176  0.4389 -0.5845  0.5520
 5205TIP3    H137030   0.599   6.061  15.212  0.3401 -2.3601  1.8416
 5205TIP3    H237031   0.660   5.971  15.107  0.6889  0.8680 -0.8985
 5206TIP3   OH237032   6.487   1.620   0.001  0.3340  0.5150  0.4853
 5206TIP3    H137033   6.428   1.588  -0.067  2.2527 -0.3060 -0.8887
 5206TIP3    H237034   6.557   1.554   0.004  1.0515  1.2991  2.2433
 5207TIP3   OH237035   0.809   3.883   2.481  0.2162 -0.1705 -0.2238
 5207TIP3    H137036   0.812   3.788   2.469 -2.2047 -0.4783  1.0192
 5207TIP3    H237037   0.834   3.897   2.572  0.4593  0.3755 -0.3704
 5208TIP3   OH237038   1.527   1.755  11.855  0.1994 -0.2860 -0.0424
 5208TIP3    H137039   1.621   1.770  11.869  0.0307 -0.4070  1.4019
 5208TIP3    H237040   1.503   1.691  11.922 -1.1625  0.6962  0.4442
 5209TIP3   OH237041   5.480   0.409   5.437  0.1147 -0.0274 -0.1457
 5209TIP3    H137042   5.404   0.356   5.414 -1.0748  1.7736 -0.5397
 5209TIP3    H237043   5.514   0.439   5.352  1.5208 -1.0752 -0.0043
 5210TIP3   OH237044   6.604   5.282   1.083  0.2493  0.2789 -0.3256
 5210TIP3    H137045   6.619   5.276   0.989 -2.2505  0.9914 -0.8616
 5210TIP3    H237046   6.589   5.192   1.111 -0.6431  0.2208 -0.9607
 5211TIP3   OH237047   6.288   0.202   0.346  0.2398 -0.3308  0.0702
 5211TIP3    H137048   6.368   0.204   0.293 -0.0587 -0.4637 -0.3857
 5211TIP3    H237049   6.250   0.116   0.328 -1.3929  0.6907 -1.7751
 5212TIP3   OH237050   6.710   3.596   0.335  0.3694 -0.4457 -0.2358
 5212TIP3    H137051   6.759   3.516   0.352 -3.4575 -2.9503  0.2047
 5212TIP3    H237052   6.722   3.612   0.241  2.6889 -0.3392  0.0304
 5213TIP3   OH237053   0.031   1.659   4.842  0.1384  0.5692  0.0164
 5213TIP3    H137054   0.052   1.687   4.931 -1.4931 -0.0014  0.6121
 5213TIP3    H237055  -0.057   1.621   4.848  0.9374 -1.7249 -1.3550
 5214TIP3   OH237056   2.091   2.230  16.443 -0.4542 -0.5136  0.7164
 5214TIP3    H137057   2.066   2.147  16.483  0.8335 -1.2608  0.0354
 5214TIP3    H237058   2.171   2.210  16.394  0.2322  1.2748  1.0345
 5215TIP3   OH237059   0.979   1.199   0.108 -0.2112 -0.0163 -0.2881
 5215TIP3    H137060   1.059   1.232   0.149 -0.1665 -1.2794  0.6966
 5215TIP3    H237061   1.002   1.112   0.076 -1.2565 -0.5173  0.2637
 5216TIP3   OH237062   2.628   0.301   4.008 -0.4465  0.5694  0.3513
 5216TIP3    H137063   2.629   0.354   3.928  1.2743 -1.8071 -1.3617
 5216TIP3    H237064   2.558   0.238   3.993 -0.9843  0.9142  1.3464
 5217TIP3   OH237065   3.852   5.208   1.497 -0.2850 -0.5577  0.0368
 5217TIP3    H137066   3.860   5.156   1.577 -0.3410  1.1396  1.1818
 5217TIP3    H237067   3.883   5.149   1.427  1.4946 -1.4838  1.5143
 5218TIP3   OH237068   4.437   3.762   0.331  0.1365 -0.0753  0.3849
 5218TIP3    H137069   4.412   3.854   0.342 -0.3290 -0.1590  0.0721
 5218TIP3    H237070   4.354   3.717   0.312  0.5281 -0.3289 -0.8278
 5219TIP3   OH237071   1.973   2.326  14.954  0.2459 -0.8322 -0.3770
 5219TIP3    H137072   2.017   2.348  14.872 -0.6782  2.5375 -0.0986
 5219TIP3    H237073   1.884   2.303  14.929 -1.3152  4.0830 -0.3121
 5220TIP3   OH237074   4.476   4.803  14.739  0.3269  0.0214 -0.5744
 5220TIP3    H137075   4.382   4.806  14.756  0.4868  0.1232  0.3636
 5220TIP3    H237076   4.504   4.895  14.741  0.5233 -0.0404 -0.3387
 5221TIP3   OH237077   0.715   2.561   1.417  0.6997  0.3644  0.3153
 5221TIP3    H137078   0.784   2.603   1.468  0.4857 -0.6241  1.4718
 5221TIP3    H237079   0.754   2.547   1.331  1.5906  0.7295  0.6441
 5222TIP3   OH237080   5.169   4.477  14.926 -0.6280  0.1185 -0.2144
 5222TIP3    H137081   5.118   4.405  14.965  0.7308 -1.2311 -0.8328
 5222TIP3    H237082   5.182   4.450  14.835  0.6584  0.7181 -0.2215
 5223TIP3   OH237083   6.456   1.999   0.396 -0.5299 -0.2909  0.4041
 5223TIP3    H137084   6.364   1.975   0.401 -2.2075  4.7219 -0.7382
 5223TIP3    H237085   6.480   1.983   0.305 -0.5269 -0.6643  0.4661
 5224TIP3   OH237086   4.350   3.338   2.770 -0.5306 -0.3045  0.3887
 5224TIP3    H137087   4.445   3.342   2.775 -0.4107  0.2501 -1.5991
 5224TIP3    H237088   4.330   3.246   2.752 -0.3076 -0.2667 -0.0618
 5225TIP3   OH237089   0.853   4.702  14.243 -0.1148  0.0554  0.0839
 5225TIP3    H137090   0.937   4.669  14.210 -0.0998 -0.2825  0.4562
 5225TIP3    H237091   0.853   4.680  14.336 -0.4516  0.3973  0.1678
 5226TIP3   OH237092   1.363   1.603   2.387 -0.0607  0.0637  0.7338
 5226TIP3    H137093   1.310   1.626   2.464  1.1982 -1.3587  2.0743
 5226TIP3    H237094   1.423   1.536   2.418 -0.1822 -1.3218 -1.7590
 5227TIP3   OH237095   2.981   5.568   1.428 -0.6074  0.2622 -0.8935
 5227TIP3    H137096   2.929   5.645   1.451 -0.6040  0.0346 -0.0956
 5227TIP3    H237097   3.072   5.599   1.428 -0.3702 -0.1793  1.6100
 5228TIP3   OH237098   0.093   3.964   1.065 -0.0708 -0.9849  0.9021
 5228TIP3    H137099   0.059   3.876   1.080 -3.7595  0.3032  1.0077
 5228TIP3    H237100   0.054   3.992   0.982  0.6231  0.7456  1.1075
 5229TIP3   OH237101   3.539   4.173  14.955  0.3052  0.6457  0.6106
 5229TIP3    H137102   3.521   4.085  14.987  1.0853  1.0501  2.2879
 5229TIP3    H237103   3.498   4.231  15.019 -0.9117  1.5329 -0.9073
 5230TIP3   OH237104   2.828   3.095   4.745  0.1673  0.1638 -0.7093
 5230TIP3    H137105   2.738   3.111   4.715  0.0143  0.5636 -0.0323
 5230TIP3    H237106   2.847   3.167   4.804  0.3078 -0.8527  0.5278
 5231TIP3   OH237107   4.851   2.624  14.241  0.8095 -0.6703  0.1569
 5231TIP3    H137108   4.865   2.577  14.323  0.4811 -0.3202  0.4158
 5231TIP3    H237109   4.855   2.557  14.174  0.9187 -0.9831  0.4735
 5232TIP3   OH237110   2.582   6.092  14.913 -0.0698  0.4124 -0.9240
 5232TIP3    H137111   2.666   6.135  14.930  0.2333 -0.4120 -0.2244
 5232TIP3    H237112   2.518   6.147  14.957  0.5227 -0.7804  1.6321
 5233TIP3   OH237113   0.751   0.236  15.780  0.3639 -0.0864 -0.5502
 5233TIP3    H137114   0.843   0.255  15.762  0.4128  0.0624 -0.1567
 5233TIP3    H237115   0.719   0.313  15.826  0.7616 -1.1998  1.7441
 5234TIP3   OH237116   5.067   4.695  15.284 -0.0519  0.4193 -0.2800
 5234TIP3    H137117   4.999   4.722  15.345 -0.0892  0.2794 -0.2583
 5234TIP3    H237118   5.112   4.624  15.330 -0.9110 -0.5813 -0.9442
 5235TIP3   OH237119   0.585   6.139   4.993 -0.5030 -0.0359 -0.7458
 5235TIP3    H137120   0.540   6.057   5.015  1.0692 -1.4153 -2.2974
 5235TIP3    H237121   0.636   6.118   4.915  1.6100  1.8211  0.0076
 5236TIP3   OH237122   6.611   0.067   5.320  0.2760  0.4339  0.6733
 5236TIP3    H137123   6.676   0.003   5.293 -0.5380 -0.6428  1.2170
 5236TIP3    H237124   6.564   0.026   5.393 -1.8188  0.6659 -0.4601
 5237TIP3   OH237125   3.501   4.562   2.571 -0.0574 -0.3047  0.2628
 5237TIP3    H137126   3.407   4.572   2.582 -0.0742  1.7418 -1.1938
 5237TIP3    H237127   3.531   4.521   2.653 -1.8986  1.1369  1.7359
 5238TIP3   OH237128   5.691   5.955   2.029 -0.2198 -0.1747  0.1512
 5238TIP3    H137129   5.753   5.902   1.978 -1.7405 -1.4477 -0.4530
 5238TIP3    H237130   5.743   5.988   2.102  1.2496 -0.9513 -0.4868
 5239TIP3   OH237131   3.242   3.609  15.717 -0.3847  0.1776 -0.1149
 5239TIP3    H137132   3.175   3.667  15.682 -1.0917 -0.4147  0.2148
 5239TIP3    H237133   3.232   3.615  15.812  0.5343  0.6558 -0.0479
 5240TIP3   OH237134   1.537   0.658   5.717  0.0532 -0.0235  0.3812
 5240TIP3    H137135   1.561   0.740   5.674 -0.6034 -0.4236 -0.7879
 5240TIP3    H237136   1.620   0.622   5.749  0.9647 -0.8466 -2.6029
 5241TIP3   OH237137   6.112   5.669   4.035 -0.0181  0.1033  0.0880
 5241TIP3    H137138   6.067   5.690   3.953 -1.2080  1.2278  0.9880
 5241TIP3    H237139   6.100   5.575   4.045 -0.1387  0.0034 -0.8568
 5242TIP3   OH237140   3.609   2.252   2.282  0.3550 -0.2763  0.4237
 5242TIP3    H137141   3.538   2.271   2.221  1.2087  0.7336 -0.2941
 5242TIP3    H237142   3.665   2.190   2.234  0.4257 -0.3772  0.6372
 5243TIP3   OH237143   5.230   1.556  12.842 -0.0437 -0.6384  0.1868
 5243TIP3    H137144   5.151   1.585  12.797  0.3708 -1.3162 -1.0266
 5243TIP3    H237145   5.222   1.460  12.845 -0.1589 -0.6097  1.7840
 5244TIP3   OH237146   0.788   4.592   2.360  0.0693 -0.2419  0.3745
 5244TIP3    H137147   0.876   4.564   2.385  0.7145  0.9323 -0.4930
 5244TIP3    H237148   0.744   4.512   2.331  0.1270 -1.2186  2.7548
 5245TIP3   OH237149   6.430   0.353   2.300 -0.4454  0.0726 -0.1171
 5245TIP3    H137150   6.481   0.406   2.361 -1.7725  1.4938 -0.1759
 5245TIP3    H237151   6.492   0.287   2.268  0.7128  0.2961  1.5094
 5246TIP3   OH237152   2.971   5.780  12.112  0.1394  0.4342 -0.3267
 5246TIP3    H137153   2.901   5.846  12.114  0.4342  0.8506 -2.0643
 5246TIP3    H237154   2.948   5.725  12.037  1.5402  0.4199 -0.7570
 5247TIP3   OH237155   3.694   1.903  14.489 -0.1453  0.2953  0.4691
 5247TIP3    H137156   3.666   1.902  14.581 -0.7408 -2.9605  0.3954
 5247TIP3    H237157   3.789   1.905  14.493 -0.1742  1.5751  1.0657
 5248TIP3   OH237158   1.561   3.478   0.164  0.2347  0.1645  0.5450
 5248TIP3    H137159   1.531   3.484   0.255  0.0530  1.0892  0.4312
 5248TIP3    H237160   1.537   3.561   0.125  1.0333  0.0887 -0.1414
 5249TIP3   OH237161   4.104   2.157   2.140 -0.0568  0.4237  0.8958
 5249TIP3    H137162   4.021   2.121   2.109  0.3085  0.7903 -0.5509
 5249TIP3    H237163   4.080   2.239   2.183 -0.4947  0.2944  0.9014
 5250TIP3   OH237164   0.990   0.835   3.206  0.2975  0.1333 -0.2715
 5250TIP3    H137165   0.998   0.748   3.167  0.2783 -0.1994  0.4372
 5250TIP3    H237166   0.959   0.891   3.135  0.1212 -0.4816 -0.6878
 5251TIP3   OH237167   0.269   2.930   3.574 -0.0748  0.5544 -0.0256
 5251TIP3    H137168   0.177   2.955   3.561  0.2971  2.0838  0.1129
 5251TIP3    H237169   0.319   2.998   3.529  1.0162  0.3146  0.7837
 5252TIP3   OH237170   4.648   2.152   4.173 -0.4267 -0.4513  0.3322
 5252TIP3    H137171   4.654   2.107   4.089 -0.9621  2.5302 -1.4670
 5252TIP3    H237172   4.579   2.107   4.221 -0.7992 -1.6092 -1.2381
 5253TIP3   OH237173   2.605   5.386  12.794  0.0303  0.4775  0.0005
 5253TIP3    H137174   2.567   5.300  12.811 -2.2747  0.8382 -2.5512
 5253TIP3    H237175   2.658   5.373  12.715 -0.0163  1.2858 -0.1744
 5254TIP3   OH237176   1.768   6.043  11.687 -0.0782 -0.3036 -0.4321
 5254TIP3    H137177   1.805   6.096  11.617 -0.0141 -0.9686 -0.9089
 5254TIP3    H237178   1.816   6.068  11.766  0.4884 -0.2248 -0.8035
 5255TIP3   OH237179   0.481   6.665  11.877 -0.0061 -0.1140  0.5748
 5255TIP3    H137180   0.563   6.694  11.836 -0.2983  1.2291  0.8996
 5255TIP3    H237181   0.443   6.604  11.814  0.3704  0.6303 -0.4033
 5256TIP3   OH237182   0.335   2.077  15.399 -0.0423  0.7414 -0.5225
 5256TIP3    H137183   0.337   2.171  15.418 -1.9929  1.0699 -1.5969
 5256TIP3    H237184   0.241   2.056  15.398  0.2491 -0.6977 -2.5495
 5257TIP3   OH237185   6.213   4.000   0.548 -0.0580  0.4055 -0.0853
 5257TIP3    H137186   6.257   3.915   0.544 -1.1569 -0.4801  3.3108
 5257TIP3    H237187   6.278   4.062   0.513  2.6015 -1.2739  1.4770
 5258TIP3   OH237188   3.168   1.213   0.446 -0.1095  0.1103 -0.6443
 5258TIP3    H137189   3.238   1.225   0.511  1.9937  0.8895 -2.9045
 5258TIP3    H237190   3.193   1.270   0.373 -3.2884  0.6144 -1.4872
 5259TIP3   OH237191   5.289   2.666   4.162  0.3289  0.0329 -0.1795
 5259TIP3    H137192   5.373   2.703   4.191  0.0371  0.1560  0.5499
 5259TIP3    H237193   5.243   2.741   4.123 -0.2435  0.4738  1.2584
 5260TIP3   OH237194   1.760   2.024   0.926 -0.3919 -0.0289 -0.2225
 5260TIP3    H137195   1.815   2.088   0.880 -1.5506  0.0390 -1.5998
 5260TIP3    H237196   1.781   1.941   0.884 -0.4726 -0.2062  0.0851
 5261TIP3   OH237197   6.547   1.294  12.516 -0.1782  0.0228 -0.2393
 5261TIP3    H137198   6.621   1.356  12.516 -1.5664  1.7987  1.7342
 5261TIP3    H237199   6.493   1.323  12.442  0.6564 -0.8202 -1.2247
 5262TIP3   OH237200   2.315   3.955   4.119  0.1148  0.2296  0.3985
 5262TIP3    H137201   2.309   3.860   4.110  3.9851  0.0322 -2.4111
 5262TIP3    H237202   2.268   3.990   4.043 -0.7921  0.6228  1.1105
 5263TIP3   OH237203   6.257   1.364   6.275 -0.0197 -0.4847 -0.2829
 5263TIP3    H137204   6.319   1.338   6.343  1.4440 -0.2213 -1.4578
 5263TIP3    H237205   6.273   1.458   6.263 -0.8439 -0.3571 -0.4188
 5264TIP3   OH237206   4.465   0.926   5.515  0.1359 -0.0218  0.2951
 5264TIP3    H137207   4.521   0.878   5.576  1.2574 -0.7867 -1.2500
 5264TIP3    H237208   4.418   0.990   5.569  1.7993 -0.0039  1.7844
 5265TIP3   OH237209   0.483   6.736  16.066  0.0044  0.1057  0.2288
 5265TIP3    H137210   0.529   6.659  16.032  1.0565  1.2239 -0.9442
 5265TIP3    H237211   0.485   6.723  16.161 -1.0153 -1.9556  0.0297
 5266TIP3   OH237212   2.493   5.588  14.334 -0.0820 -0.0427 -0.4354
 5266TIP3    H137213   2.505   5.670  14.382 -0.1148 -0.0848 -0.3546
 5266TIP3    H237214   2.474   5.615  14.244  0.0279  0.0356 -0.4349
 5267TIP3   OH237215   6.435   1.690  14.752  0.4714 -0.0011  0.1302
 5267TIP3    H137216   6.512   1.727  14.796 -0.4813  2.6625 -0.2162
 5267TIP3    H237217   6.459   1.690  14.659  0.1711  0.5858  0.0481
 5268TIP3   OH237218   1.821   1.894   1.628 -0.1223 -0.0286 -0.4902
 5268TIP3    H137219   1.851   1.891   1.537  0.5670  3.0742 -0.4644
 5268TIP3    H237220   1.895   1.929   1.677  0.4183 -3.9195  1.8406
 5269TIP3   OH237221   5.919   2.179   1.061  0.2849  0.2070  0.0074
 5269TIP3    H137222   5.936   2.254   1.118 -1.1363 -0.4192  1.3233
 5269TIP3    H237223   5.823   2.175   1.054  0.1775 -2.5256  1.5101
 5270TIP3   OH237224   2.656   2.366   3.224  0.1704 -0.0177 -0.6126
 5270TIP3    H137225   2.682   2.456   3.247  0.0061  0.1173 -0.9469
 5270TIP3    H237226   2.560   2.368   3.227  0.1035  0.2645 -2.2464
 5271TIP3   OH237227   6.650   4.399  13.820 -0.6567  0.6832 -0.4364
 5271TIP3    H137228   6.745   4.399  13.805 -0.7317  1.3670 -0.9747
 5271TIP3    H237229   6.623   4.309  13.801 -0.0205  0.2966  0.4274
 5272TIP3   OH237230   5.671   1.625  17.072  0.4344  0.2223 -0.0691
 5272TIP3    H137231   5.585   1.639  17.111 -0.1466  1.2874 -1.6439
 5272TIP3    H237232   5.724   1.697  17.106  0.8398 -0.6286  1.1728
 5273TIP3   OH237233   1.410   4.223   2.905 -0.0122  0.1855  0.1251
 5273TIP3    H137234   1.367   4.225   2.991 -2.8294  3.6145 -1.1432
 5273TIP3    H237235   1.487   4.278   2.916 -0.6858  1.1096  0.3563
 5274TIP3   OH237236   5.215   5.357  14.720  0.2959  0.1862  0.2895
 5274TIP3    H137237   5.214   5.339  14.814  1.1754  1.2547  0.5270
 5274TIP3    H237238   5.302   5.329  14.692  0.6956  1.4888  0.1583
 5275TIP3   OH237239   3.908   3.819   5.222  0.0366  0.3047 -0.1180
 5275TIP3    H137240   3.974   3.792   5.286  1.7547  3.7798 -0.1830
 5275TIP3    H237241   3.954   3.879   5.164 -2.7865  1.4966 -1.2957
 5276TIP3   OH237242   2.089   1.942  17.207  0.0573 -0.1560 -1.0624
 5276TIP3    H137243   2.039   2.016  17.241 -1.2163 -0.8563 -1.3403
 5276TIP3    H237244   2.166   1.981  17.165  0.8316  0.8377  1.1208
 5277TIP3   OH237245   5.752   3.434  14.767  0.5539 -0.2424 -0.0643
 5277TIP3    H137246   5.733   3.482  14.686 -2.5543 -0.0925  0.6364
 5277TIP3    H237247   5.747   3.342  14.741 -0.1538 -0.1908 -0.1488
 5278TIP3   OH237248   5.729   2.697  14.096  0.1478  0.3746 -0.2529
 5278TIP3    H137249   5.756   2.740  14.015  0.1647 -0.0256 -0.4614
 5278TIP3    H237250   5.805   2.706  14.154  0.2461  0.3993 -0.3841
 5279TIP3   OH237251   6.653   0.065  13.122 -0.7654 -0.3079 -0.1468
 5279TIP3    H137252   6.680   0.128  13.056  0.6613 -0.1734  0.5287
 5279TIP3    H237253   6.632  -0.014  13.073  0.9141 -0.4191 -0.7327
 5280TIP3   OH237254   5.968   2.246   0.505  0.6319  0.7990  0.0394
 5280TIP3    H137255   5.938   2.169   0.458  0.0182  1.4933 -0.7267
 5280TIP3    H237256   6.023   2.211   0.576  2.4294 -0.2147 -1.7698
 5281TIP3   OH237257   2.303   5.739  11.477 -0.1138  0.5498  0.4315
 5281TIP3    H137258   2.365   5.796  11.433  0.9017  0.5748  1.8217
 5281TIP3    H237259   2.327   5.651  11.448 -0.4064  0.6643 -0.1803
 5282TIP3   OH237260   2.562   5.567  13.691  0.1559 -0.4171 -0.5548
 5282TIP3    H137261   2.607   5.536  13.612  0.2812  3.1965 -2.0805
 5282TIP3    H237262   2.473   5.587  13.661 -0.4012 -0.8304  0.7493
 5283TIP3   OH237263   3.967   5.435   2.854  0.0090 -0.5236 -0.7121
 5283TIP3    H137264   3.971   5.371   2.783  1.8470 -1.1630 -0.0912
 5283TIP3    H237265   3.990   5.385   2.933  0.0785  0.5983  0.0033
 5284TIP3   OH237266   2.062   2.419  14.148  0.0913 -0.5383 -0.0976
 5284TIP3    H137267   2.149   2.385  14.124  0.4513  1.2677 -1.5378
 5284TIP3    H237268   2.009   2.404  14.070 -0.3097  0.2918  0.0121
 5285TIP3   OH237269   2.875   5.559  11.069  0.9953  0.0197 -0.2992
 5285TIP3    H137270   2.966   5.580  11.051  1.0614  1.0735  1.0455
 5285TIP3    H237271   2.848   5.625  11.134  0.1821 -2.0678  1.6305
 5286TIP3   OH237272   0.653   5.949  11.794  0.1155 -0.0070  0.3716
 5286TIP3    H137273   0.604   5.945  11.876 -2.8539 -2.1416 -1.3027
 5286TIP3    H237274   0.706   5.869  11.793 -1.4746 -1.1083 -0.5986
 5287TIP3   OH237275   2.889   5.357   0.062 -0.7035  0.6529 -0.1353
 5287TIP3    H137276   2.810   5.390   0.105 -1.0180  1.6917 -1.4329
 5287TIP3    H237277   2.951   5.344   0.133 -1.4332  1.6411  0.7207
 5288TIP3   OH237278   4.876   5.280  16.475 -0.0427 -0.0431 -0.1446
 5288TIP3    H137279   4.948   5.225  16.504  0.2838  0.5652  0.2181
 5288TIP3    H237280   4.821   5.222  16.422  0.0194 -0.8510  0.6410
 5289TIP3   OH237281   5.447   4.122   5.639 -0.1870  0.4469  0.4795
 5289TIP3    H137282   5.467   4.081   5.723  0.3509  2.6756  1.5026
 5289TIP3    H237283   5.531   4.154   5.608 -0.1260 -1.4723 -1.6388
 5290TIP3   OH237284   5.432   3.124   2.543 -0.0991 -0.6036 -0.1901
 5290TIP3    H137285   5.356   3.177   2.567 -1.2572 -1.7764 -1.1337
 5290TIP3    H237286   5.396   3.037   2.525  1.4275 -1.1030 -0.9795
 5291TIP3   OH237287   2.926   0.517   1.043  0.1442 -0.2462  0.3549
 5291TIP3    H137288   2.980   0.571   1.099  2.2484  0.8265 -2.4624
 5291TIP3    H237289   2.881   0.457   1.103  1.4530  1.3975  3.1715
 5292TIP3   OH237290   0.956   5.440  11.967 -0.5433  0.0782 -0.1630
 5292TIP3    H137291   0.897   5.458  12.040  0.5396  1.3235  0.4710
 5292TIP3    H237292   1.043   5.459  12.002  0.0024  0.7912 -1.7872
 5293TIP3   OH237293   5.941   2.262  12.888 -0.2180 -0.0773 -0.0447
 5293TIP3    H137294   5.892   2.263  12.970  0.1512 -1.9305  0.2429
 5293TIP3    H237295   6.011   2.326  12.901 -1.3954  1.2076  0.2484
 5294TIP3   OH237296   4.174   1.284  11.140  0.5168 -0.5997  0.0898
 5294TIP3    H137297   4.222   1.299  11.222 -1.3147  1.1797  0.9374
 5294TIP3    H237298   4.086   1.315  11.159  0.5056  1.9120 -3.1531
 5295TIP3   OH237299   1.145   3.307   0.904  0.4225 -0.4074  0.0257
 5295TIP3    H137300   1.162   3.213   0.915 -1.9174 -0.9313 -0.3399
 5295TIP3    H237301   1.087   3.330   0.976  0.9935  0.7926  0.1275
 5296TIP3   OH237302   5.476   2.657  15.252 -0.3633  0.0201  0.1525
 5296TIP3    H137303   5.400   2.715  15.254 -0.7276 -0.4670  0.5306
 5296TIP3    H237304   5.474   2.618  15.164 -0.7595 -0.2664  0.2864
 5297TIP3   OH237305   0.433   4.220  16.886  0.5014  0.2000 -0.1662
 5297TIP3    H137306   0.369   4.153  16.911 -1.0602  1.3003 -1.0353
 5297TIP3    H237307   0.451   4.202  16.793  0.9713  0.2864 -0.0935
 5298TIP3   OH237308   1.585   6.116   3.722 -0.1872 -0.5672 -0.3754
 5298TIP3    H137309   1.676   6.089   3.732  0.2553  1.2642  1.1225
 5298TIP3    H237310   1.554   6.131   3.812 -1.6032 -0.0649 -0.9108
 5299TIP3   OH237311   1.283   2.263  15.408 -0.4597 -0.0496  0.3208
 5299TIP3    H137312   1.372   2.289  15.383  0.6037 -1.0318  2.7959
 5299TIP3    H237313   1.230   2.286  15.332  1.9453  0.2316 -1.4079
 5300TIP3   OH237314   0.727   3.580   0.643 -0.2571  0.3012  0.0757
 5300TIP3    H137315   0.807   3.549   0.686 -1.4045  1.2143  3.1970
 5300TIP3    H237316   0.750   3.668   0.612  0.4934 -0.2218 -0.9056
 5301TIP3   OH237317   2.570   2.216  15.477 -1.0879  0.1552 -0.0242
 5301TIP3    H137318   2.486   2.173  15.460 -1.0847  0.0058  0.3429
 5301TIP3    H237319   2.597   2.249  15.391 -1.1963 -0.3826 -0.2712
 5302TIP3   OH237320   0.074   1.745  17.161 -0.0217 -0.7906 -0.4390
 5302TIP3    H137321   0.052   1.674  17.101  1.3485 -0.4498 -1.3800
 5302TIP3    H237322   0.162   1.726  17.191 -0.6952 -0.9852  1.5761
 5303TIP3   OH237323   5.137   4.911  16.596 -0.2991 -0.9085  0.3127
 5303TIP3    H137324   5.057   4.962  16.586  0.9297  1.4409  1.4809
 5303TIP3    H237325   5.189   4.932  16.518  0.4744  0.2178  1.0996
 5304TIP3   OH237326   3.902   0.997  17.124 -0.0566  0.0953 -0.2818
 5304TIP3    H137327   3.953   1.068  17.163 -0.9230 -0.1486  1.3723
 5304TIP3    H237328   3.825   1.040  17.087  0.2199  0.2026 -0.7325
 5305TIP3   OH237329   3.795   5.865   1.412 -0.5076  0.0533  0.3508
 5305TIP3    H137330   3.748   5.917   1.346  1.7872  3.1719  0.9100
 5305TIP3    H237331   3.870   5.830   1.365 -0.4542 -0.2452  0.6568
 5306TIP3   OH237332   5.053   6.638   2.890 -0.0422 -0.0431 -0.2952
 5306TIP3    H137333   4.982   6.582   2.920 -0.5030  0.1486 -0.9995
 5306TIP3    H237334   5.025   6.668   2.803  1.5672 -1.1842 -1.2665
 5307TIP3   OH237335   1.683   2.132   4.359  0.3469 -0.1050  0.0259
 5307TIP3    H137336   1.655   2.046   4.327 -1.5323  0.5386 -0.1688
 5307TIP3    H237337   1.649   2.194   4.294 -1.0020  0.9982  1.7026
 5308TIP3   OH237338   1.060   1.414  16.737  0.5242 -0.1369 -0.2890
 5308TIP3    H137339   0.984   1.464  16.707  2.0673  2.5399 -0.0834
 5308TIP3    H237340   1.108   1.392  16.657  0.9042  0.6082 -0.2782
 5309TIP3   OH237341   4.823   1.485   1.442 -0.3131  0.3036  0.0504
 5309TIP3    H137342   4.835   1.412   1.381 -2.5300  0.8413 -1.1319
 5309TIP3    H237343   4.901   1.483   1.497  0.4062 -1.9995 -0.9304
 5310TIP3   OH237344   0.802   1.783  16.237 -0.1856  0.4091  0.0506
 5310TIP3    H137345   0.831   1.867  16.272 -1.4424  0.6630  0.5321
 5310TIP3    H237346   0.716   1.801  16.198  0.0998 -0.3858 -1.0089
 5311TIP3   OH237347   6.092   0.182   3.750  0.6637 -0.8460 -0.5764
 5311TIP3    H137348   6.121   0.272   3.736  1.5991 -0.9585  0.4433
 5311TIP3    H237349   6.113   0.165   3.842 -0.2810 -1.8282 -0.5255
 5312TIP3   OH237350   2.436   3.054   2.469 -0.1890 -0.3653  0.3469
 5312TIP3    H137351   2.354   3.103   2.461  0.1429  0.1644  0.1499
 5312TIP3    H237352   2.487   3.082   2.393  0.4402 -0.1923  0.8307
 5313TIP3   OH237353   5.328   4.023   3.883  0.0560  0.1267 -0.2152
 5313TIP3    H137354   5.377   4.102   3.859  0.3846 -0.2244 -0.7274
 5313TIP3    H237355   5.366   3.954   3.828 -0.9289 -0.1830 -0.5264
 5314TIP3   OH237356   4.381   0.258   1.879 -0.2393 -0.5467  0.1492
 5314TIP3    H137357   4.311   0.225   1.823 -0.5621 -0.3990  0.4630
 5314TIP3    H237358   4.404   0.343   1.841  0.0845 -0.7970 -0.2213
 5315TIP3   OH237359   2.799   0.880  16.663 -0.5375 -0.1606  0.7361
 5315TIP3    H137360   2.818   0.834  16.581 -1.7810  0.8325 -0.1527
 5315TIP3    H237361   2.824   0.818  16.731  4.0364  0.3418 -0.2026
 5316TIP3   OH237362   4.189   5.555  12.430  0.5522 -0.3257  0.3051
 5316TIP3    H137363   4.097   5.559  12.457  0.3932 -1.0003 -0.0945
 5316TIP3    H237364   4.235   5.518  12.506  0.1342 -2.0463 -0.2288
 5317TIP3   OH237365   0.093   3.470   3.544 -0.0414 -0.9893 -0.0148
 5317TIP3    H137366   0.101   3.512   3.629  0.5196 -0.9811 -0.0681
 5317TIP3    H237367   0.010   3.422   3.548 -0.4036 -0.3585  0.2525
 5318TIP3   OH237368   6.090   5.122  14.353  0.2805  0.0262  0.5546
 5318TIP3    H137369   6.030   5.110  14.427 -2.2880 -1.5093 -1.5720
 5318TIP3    H237370   6.052   5.194  14.303  1.1620  0.1141 -0.0151
 5319TIP3   OH237371   5.725   4.716  17.097  0.4571  0.0154 -0.2266
 5319TIP3    H137372   5.688   4.800  17.069  1.9241  0.4529 -0.9424
 5319TIP3    H237373   5.656   4.677  17.151 -1.9400 -0.1771 -3.1497
 5320TIP3   OH237374   3.326   1.590   1.972  0.2537 -0.4681 -0.3738
 5320TIP3    H137375   3.342   1.684   1.975 -0.6409 -0.2398 -1.8541
 5320TIP3    H237376   3.245   1.578   2.022  0.2641 -0.4330 -0.3482
 5321TIP3   OH237377   3.654   5.094   5.575 -0.0379 -0.0260 -0.8812
 5321TIP3    H137378   3.587   5.100   5.643 -0.4123 -0.6287 -1.1826
 5321TIP3    H237379   3.710   5.021   5.604 -0.5297 -0.6574 -1.4919
 5322TIP3   OH237380   4.038   0.314   5.267 -0.3343 -0.4668 -0.4349
 5322TIP3    H137381   4.056   0.342   5.177 -2.4986  1.7667 -0.2954
 5322TIP3    H237382   3.989   0.232   5.257 -2.4328  0.8197 -1.5087
 5323TIP3   OH237383   6.005   5.886  16.740 -0.5783  0.3917  0.2231
 5323TIP3    H137384   5.915   5.855  16.736 -0.3068 -0.6224  1.2161
 5323TIP3    H237385   6.056   5.818  16.696 -0.0918 -0.0689  1.4420
 5324TIP3   OH237386   2.642   4.836   2.757 -0.1817 -0.0647 -0.3588
 5324TIP3    H137387   2.600   4.863   2.676 -0.1142  3.5132  0.6225
 5324TIP3    H237388   2.706   4.770   2.731 -0.0704  1.0562 -3.2247
 5325TIP3   OH237389   5.616   5.439   1.584 -0.2870 -0.2901  0.7800
 5325TIP3    H137390   5.640   5.424   1.492  0.0027 -2.3973  1.1609
 5325TIP3    H237391   5.581   5.528   1.585  1.6195  0.5621 -0.9787
 5326TIP3   OH237392   0.534   6.594   4.967 -0.0802  0.1177  0.0065
 5326TIP3    H137393   0.572   6.653   4.902  0.7462  0.7082  0.9932
 5326TIP3    H237394   0.598   6.523   4.976 -0.7167 -0.5552 -0.6218
 5327TIP3   OH237395   5.223   2.070   3.778 -0.3063 -0.7051 -0.2685
 5327TIP3    H137396   5.297   2.011   3.762  0.5471  0.2053  0.1818
 5327TIP3    H237397   5.222   2.129   3.703 -0.9449 -1.0779 -0.5551
 5328TIP3   OH237398   0.333   1.319   5.349  0.5369  0.2908 -0.6261
 5328TIP3    H137399   0.308   1.390   5.408  0.2512  0.2466 -0.6920
 5328TIP3    H237400   0.373   1.363   5.274  0.8774  0.3488 -0.4097
 5329TIP3   OH237401   0.818   5.986  14.375  0.3610 -0.7841 -0.8267
 5329TIP3    H137402   0.772   5.904  14.392 -0.5967 -0.2075 -0.5568
 5329TIP3    H237403   0.785   6.015  14.290  0.0130 -0.2217 -0.4990
 5330TIP3   OH237404   5.141   5.168   2.777  0.2146  0.2209  0.2849
 5330TIP3    H137405   5.068   5.106   2.774 -1.3320  1.9416  0.9238
 5330TIP3    H237406   5.141   5.210   2.691  0.5277  0.1482  0.2475
 5331TIP3   OH237407   4.491   2.472  10.958 -0.4716  0.0445 -0.3433
 5331TIP3    H137408   4.425   2.527  11.002 -0.2765  0.3873 -0.4726
 5331TIP3    H237409   4.540   2.533  10.902  0.7440  0.0130  0.6508
 5332TIP3   OH237410   0.471   6.119  14.336 -0.1542 -0.0427  0.2061
 5332TIP3    H137411   0.502   6.098  14.424  0.1240  1.5734  0.5147
 5332TIP3    H237412   0.433   6.037  14.304 -1.4716 -0.3298  2.3229
 5333TIP3   OH237413   6.611   0.595   3.365 -0.1386 -0.1688  0.1205
 5333TIP3    H137414   6.609   0.504   3.394  2.1168  0.0894  1.2773
 5333TIP3    H237415   6.624   0.590   3.270  0.0786 -1.0476  0.1886
 5334TIP3   OH237416   2.773   6.060  16.657  0.7349 -0.4046  0.2231
 5334TIP3    H137417   2.714   6.072  16.582  1.3904  1.4003 -0.0366
 5334TIP3    H237418   2.729   5.994  16.711 -0.9487  0.0261 -0.5515
 5335TIP3   OH237419   2.213   6.004  16.247 -0.1856 -1.7353  0.2185
 5335TIP3    H137420   2.260   6.041  16.322  0.1838 -0.9092 -0.4083
 5335TIP3    H237421   2.123   6.035  16.258  0.2536 -0.0750 -0.6400
 5336TIP3   OH237422   6.245   6.458   5.535 -0.5138  0.2277 -0.0165
 5336TIP3    H137423   6.211   6.430   5.620 -0.3825 -0.0179 -0.0446
 5336TIP3    H237424   6.221   6.550   5.530 -0.7661  0.1749  0.1667
 5337TIP3   OH237425   4.945   1.017   2.117 -0.5048  0.4717  0.1067
 5337TIP3    H137426   4.993   0.950   2.167  1.4827  1.8223  0.1164
 5337TIP3    H237427   4.889   0.967   2.058  0.2942 -1.2038  0.6955
 5338TIP3   OH237428   2.584   4.350  17.248 -0.0229 -0.4575  0.6263
 5338TIP3    H137429   2.515   4.363  17.314 -0.2078  0.0289  0.3433
 5338TIP3    H237430   2.537   4.350  17.164  0.3138 -0.1902  0.4359
 5339TIP3   OH237431   3.118   5.996   3.960 -0.0841  0.1506  0.1186
 5339TIP3    H137432   3.197   6.042   3.988  0.6313 -0.7961 -0.3167
 5339TIP3    H237433   3.150   5.923   3.906 -1.0064 -2.2028  2.5385
 5340TIP3   OH237434   1.343   1.901  11.409  0.2715 -0.0440 -0.1559
 5340TIP3    H137435   1.428   1.934  11.380  0.9115  0.7516  2.3622
 5340TIP3    H237436   1.359   1.810  11.432 -0.2081 -0.6385 -1.9693
 5341TIP3   OH237437   2.669   6.301   4.435  0.0891 -0.2017  0.0031
 5341TIP3    H137438   2.757   6.326   4.462 -0.2522 -1.1845  2.1997
 5341TIP3    H237439   2.649   6.360   4.363  1.7008  1.5455  0.9022
 5342TIP3   OH237440   3.294   4.459  15.268  0.0318  0.4099  0.7477
 5342TIP3    H137441   3.327   4.475  15.180 -0.5484  0.5542  0.5495
 5342TIP3    H237442   3.233   4.386  15.258 -0.0940  0.4771  1.0124
 5343TIP3   OH237443   0.087   4.605   3.885  0.4530  0.8924  0.0713
 5343TIP3    H137444   0.033   4.682   3.905 -1.0734 -0.6162  2.3327
 5343TIP3    H237445   0.026   4.544   3.843  0.4448 -0.5867  2.0602
 5344TIP3   OH237446   6.373   1.928  11.104 -0.2919  0.1876 -0.1011
 5344TIP3    H137447   6.392   1.839  11.133 -0.3578 -0.3054 -1.4826
 5344TIP3    H237448   6.336   1.971  11.181 -3.1771 -1.9010 -0.1179
 5345TIP3   OH237449   0.054   6.529   3.829  0.2256 -0.0558 -0.1284
 5345TIP3    H137450   0.102   6.586   3.889 -0.4844  0.5655 -0.1346
 5345TIP3    H237451   0.092   6.443   3.843 -0.0884  0.0248  1.4161
 5346TIP3   OH237452   3.891   4.558   0.501  0.2897  0.1283  0.6267
 5346TIP3    H137453   3.919   4.476   0.460 -1.5790 -0.1497 -0.1795
 5346TIP3    H237454   3.898   4.541   0.595  0.3982 -0.7807  0.4668
 5347TIP3   OH237455   2.656   5.502  14.986 -0.1864 -0.0489  0.4152
 5347TIP3    H137456   2.702   5.573  15.031  1.6003 -0.1631 -1.0759
 5347TIP3    H237457   2.624   5.542  14.905  0.3062 -0.7738 -0.1531
 5348TIP3   OH237458   4.695   5.699   2.220  0.6615 -0.1444 -0.0298
 5348TIP3    H137459   4.734   5.703   2.307  0.1246 -1.3799  0.2931
 5348TIP3    H237460   4.731   5.619   2.182 -1.3787 -1.2516  0.2282
 5349TIP3   OH237461   4.342   4.342   1.338 -0.4745 -0.2911  0.4846
 5349TIP3    H137462   4.338   4.435   1.359 -1.7306 -1.0495  4.4355
 5349TIP3    H237463   4.435   4.321   1.338 -0.2533  0.5983  1.7692
 5350TIP3   OH237464   5.227   4.291  16.245 -0.2041 -0.5412 -0.5289
 5350TIP3    H137465   5.202   4.262  16.157  1.2497  0.4920 -1.3324
 5350TIP3    H237466   5.175   4.370  16.260  0.8139  0.2981 -1.2412
 5351TIP3   OH237467   4.162   5.775  12.844 -0.0507  0.1333 -0.1858
 5351TIP3    H137468   4.242   5.799  12.891 -0.5662  1.2014  0.1642
 5351TIP3    H237469   4.193   5.721  12.771  0.8085 -1.3005  1.1548
 5352TIP3   OH237470   0.048   5.938  14.980  0.0903 -0.4469 -0.5737
 5352TIP3    H137471  -0.006   5.949  14.901  0.6223  3.2609 -0.5693
 5352TIP3    H237472  -0.016   5.922  15.050 -0.5389 -1.5766 -1.3706
 5353TIP3   OH237473   5.312   2.540   0.926 -0.3585 -0.0804 -1.0784
 5353TIP3    H137474   5.367   2.617   0.911 -0.1298 -0.1625 -0.6602
 5353TIP3    H237475   5.361   2.468   0.885  0.6928 -0.4640  0.7251
 5354TIP3   OH237476   0.055   5.141   0.600  0.2099  0.0945 -0.1597
 5354TIP3    H137477   0.055   5.059   0.550 -0.2457  0.2107 -0.3597
 5354TIP3    H237478   0.090   5.117   0.685  2.0118  0.1089 -0.8503
 5355TIP3   OH237479   0.219   6.373  16.010 -0.1682  0.2981 -0.5966
 5355TIP3    H137480   0.185   6.329  16.088 -0.7742 -1.0829 -1.6185
 5355TIP3    H237481   0.201   6.313  15.938  1.3323  1.0798 -1.6718
 5356TIP3   OH237482   5.532   2.077   6.467 -0.4373 -0.4630  0.0608
 5356TIP3    H137483   5.524   2.124   6.550 -0.2858  0.5638 -0.4741
 5356TIP3    H237484   5.578   1.996   6.488 -3.1893 -1.7772  1.5145
 5357TIP3   OH237485   1.882   6.053  14.703  0.1600 -0.3752  0.0069
 5357TIP3    H137486   1.870   6.095  14.617  0.4486 -2.1257 -0.9454
 5357TIP3    H237487   1.886   6.125  14.765 -0.5310  0.9265 -1.4024
 5358TIP3   OH237488   6.680   4.571  15.569 -0.3039  0.6490  0.7461
 5358TIP3    H137489   6.633   4.493  15.599 -0.6651  1.3326  2.0261
 5358TIP3    H237490   6.772   4.543  15.563 -0.5528 -0.1006  0.3354
 5359TIP3   OH237491   1.395   5.819  11.280  0.0968  0.2384 -0.0161
 5359TIP3    H137492   1.319   5.873  11.259  0.4004  1.0705  0.9194
 5359TIP3    H237493   1.361   5.750  11.337 -0.2373 -0.3828 -0.9545
 5360TIP3   OH237494   1.167   1.427   4.812  0.2865 -0.7131  0.3322
 5360TIP3    H137495   1.210   1.471   4.739 -0.4237 -1.4547 -0.5572
 5360TIP3    H237496   1.182   1.485   4.887 -2.1707  2.0893 -1.1160
 5361TIP3   OH237497   3.282   0.460  15.780  0.2429 -0.1632 -0.2431
 5361TIP3    H137498   3.285   0.425  15.869 -0.1706 -0.0964 -0.2007
 5361TIP3    H237499   3.235   0.394  15.730 -0.3206  0.2052 -0.2164
 5362TIP3   OH237500   3.714   0.619  11.174  0.1184  0.0965  0.3996
 5362TIP3    H137501   3.716   0.710  11.144 -1.3921 -0.2238 -0.8471
 5362TIP3    H237502   3.798   0.583  11.146 -0.1363  0.5630 -1.0840
 5363TIP3   OH237503   2.581   0.926   5.714  0.3364 -0.2881  0.0794
 5363TIP3    H137504   2.638   0.886   5.648 -1.0645 -0.3069 -1.1536
 5363TIP3    H237505   2.492   0.904   5.687 -0.2815 -0.6586  2.2244
 5364TIP3   OH237506   4.065   5.085   5.041 -0.5671  0.1495 -0.0073
 5364TIP3    H137507   4.008   5.048   4.974 -2.6135  1.7504  0.7294
 5364TIP3    H237508   4.018   5.070   5.123  1.2443 -0.5814  0.9641
 5365TIP3   OH237509   0.887   5.859  11.549 -0.8272  0.0793  0.2961
 5365TIP3    H137510   0.879   5.941  11.597  2.9192  0.4847  0.5048
 5365TIP3    H237511   0.889   5.884  11.457 -0.6269  0.1518  0.3188
 5366TIP3   OH237512   0.028   5.470  11.463  0.3184  0.1086 -0.2066
 5366TIP3    H137513   0.048   5.377  11.473 -1.3505 -0.0565  3.4049
 5366TIP3    H237514   0.113   5.512  11.451  1.7075 -1.5682  2.6718
 5367TIP3   OH237515   2.394   3.982  17.009 -0.1237  0.1247  0.2281
 5367TIP3    H137516   2.376   3.974  17.103  1.1803 -2.4696  0.3262
 5367TIP3    H237517   2.337   4.054  16.980 -1.7524 -0.0657  2.6752
 5368TIP3   OH237518   2.163   3.630  11.418 -0.5491 -0.2754 -0.0042
 5368TIP3    H137519   2.143   3.561  11.480 -1.0174  1.1396  1.4987
 5368TIP3    H237520   2.191   3.704  11.472 -0.7767  0.9541 -1.4805
 5369TIP3   OH237521   2.751   3.987   4.933  0.6051  0.6529 -0.0779
 5369TIP3    H137522   2.847   3.989   4.936  0.5819  1.8459  1.8329
 5369TIP3    H237523   2.729   3.897   4.910  2.2000 -0.3901  2.1167
 5370TIP3   OH237524   4.358   1.087  14.674  0.1198  0.1069 -0.5044
 5370TIP3    H137525   4.430   1.120  14.621 -0.3159  0.7319 -0.7104
 5370TIP3    H237526   4.371   0.992  14.675  0.3927  0.1264 -1.3386
 5371TIP3   OH237527   2.749   3.126   5.796  0.9190 -1.2269  0.0983
 5371TIP3    H137528   2.842   3.127   5.774  0.9978  0.0196  0.4278
 5371TIP3    H237529   2.736   3.045   5.846  1.3257 -2.6474 -1.9608
 5372TIP3   OH237530   3.704   3.736   4.865 -0.0737  0.4494  0.2543
 5372TIP3    H137531   3.796   3.711   4.863  0.0618  0.7224 -3.5540
 5372TIP3    H237532   3.697   3.807   4.801 -2.6145  1.9190  1.9703
 5373TIP3   OH237533   3.250   1.520  14.980  0.5175  0.6817  0.6662
 5373TIP3    H137534   3.243   1.474  14.897  1.7744  1.8563 -0.1262
 5373TIP3    H237535   3.259   1.612  14.956 -1.9986  1.4377  2.2009
 5374TIP3   OH237536   0.454   2.968  13.336 -0.3052 -0.1981 -0.6897
 5374TIP3    H137537   0.489   3.046  13.380  0.7536 -0.8390 -0.3576
 5374TIP3    H237538   0.521   2.901  13.349 -0.5751 -0.7870 -2.1581
 5375TIP3   OH237539   2.969   0.922  12.862  0.1172 -0.0814  0.3225
 5375TIP3    H137540   2.974   0.960  12.950  1.1990 -1.3381  0.8313
 5375TIP3    H237541   3.050   0.873  12.853  0.8064  1.3492 -2.0265
 5376TIP3   OH237542   2.555   0.930   3.626  0.1553 -0.1490 -0.0669
 5376TIP3    H137543   2.540   1.025   3.618 -0.7309 -0.4307 -3.3289
 5376TIP3    H237544   2.502   0.904   3.701 -1.4343  1.6429 -0.4797
 5377TIP3   OH237545   3.145   4.494  12.136  0.5932 -0.0254  0.2379
 5377TIP3    H137546   3.076   4.520  12.076  2.2356 -1.2192 -2.3273
 5377TIP3    H237547   3.206   4.568  12.137  1.1821 -0.4863 -0.5850
 5378TIP3   OH237548   5.669   5.994   4.535 -0.4388  0.1115 -0.1482
 5378TIP3    H137549   5.616   6.008   4.613  0.0917 -3.0370  0.9283
 5378TIP3    H237550   5.606   5.988   4.463 -1.0056  2.0624  0.1233
 5379TIP3   OH237551   6.730   1.886  14.064  0.2012 -0.0237  0.3584
 5379TIP3    H137552   6.813   1.870  14.020 -0.0623 -1.6397  0.3960
 5379TIP3    H237553   6.726   1.819  14.133 -1.2606 -0.1789  0.1520
 5380TIP3   OH237554   4.457   2.064   4.326 -0.1623  0.5379 -0.3349
 5380TIP3    H137555   4.384   2.079   4.266 -0.5537 -0.2218 -0.0649
 5380TIP3    H237556   4.416   2.035   4.407  0.4318  0.1479 -0.1636
 5381TIP3   OH237557   2.948   6.102   2.657 -0.3646 -0.3522 -0.1941
 5381TIP3    H137558   2.857   6.123   2.681  0.3767  0.7433  1.9906
 5381TIP3    H237559   2.979   6.046   2.728  1.2924  1.1304  0.3333
 5382TIP3   OH237560   6.332   0.373   3.059  0.2689  0.4313  0.2619
 5382TIP3    H137561   6.277   0.392   2.983  3.3285  0.7480 -2.0817
 5382TIP3    H237562   6.348   0.279   3.054  0.1626  0.3851  0.7515
 5383TIP3   OH237563   3.065   0.877  13.267  0.3263 -0.1301  0.4483
 5383TIP3    H137564   2.991   0.818  13.259 -0.1908  0.5339  0.2926
 5383TIP3    H237565   3.124   0.851  13.196 -1.0625  1.1708 -1.3015
 5384TIP3   OH237566   3.287   5.192  16.163 -0.0281  0.4968  0.2480
 5384TIP3    H137567   3.379   5.221  16.162  0.0273  0.3488 -0.7809
 5384TIP3    H237568   3.236   5.273  16.163  0.1248  0.6680 -1.8448
 5385TIP3   OH237569   6.370   5.441   0.784 -0.1206 -0.0561  0.1168
 5385TIP3    H137570   6.318   5.518   0.760  0.7147  0.3110 -0.5550
 5385TIP3    H237571   6.368   5.385   0.707 -0.1795 -0.4145  0.3745
 5386TIP3   OH237572   6.169   0.196   2.168  0.0874 -0.3378  0.4870
 5386TIP3    H137573   6.199   0.121   2.219  1.4089  0.1310  0.4332
 5386TIP3    H237574   6.184   0.171   2.077  0.9496  0.1445  0.4848
 5387TIP3   OH237575   3.727   6.457  11.775  0.6234 -0.3609 -0.4331
 5387TIP3    H137576   3.756   6.409  11.852 -0.9348  1.4094  1.3969
 5387TIP3    H237577   3.633   6.438  11.769  0.3078  1.1303 -0.6206
 5388TIP3   OH237578   0.364   1.437   1.120 -0.6870  0.3961  0.5174
 5388TIP3    H137579   0.398   1.352   1.094  0.1019  0.1065  2.3252
 5388TIP3    H237580   0.349   1.483   1.038 -0.9831 -1.4155 -0.4907
 5389TIP3   OH237581   4.835   2.401   5.077  0.7396 -0.1631 -0.0063
 5389TIP3    H137582   4.864   2.311   5.093  0.3889 -0.2237  0.2906
 5389TIP3    H237583   4.743   2.393   5.054  0.5675  0.1611  0.5455
 5390TIP3   OH237584   2.346   5.404  11.005  0.4247  0.0661  0.4856
 5390TIP3    H137585   2.374   5.426  10.916  0.4225 -1.4493  0.0864
 5390TIP3    H237586   2.376   5.314  11.018 -2.4111 -0.9256  0.8050
 5391TIP3   OH237587   2.896   4.730  12.316 -0.1860 -0.5330  0.0279
 5391TIP3    H137588   2.935   4.643  12.315  0.3857 -0.4011  2.7084
 5391TIP3    H237589   2.970   4.790  12.325 -0.4939  0.3997 -2.5779
 5392TIP3   OH237590   3.106   3.093  16.846 -0.3195 -0.2169  0.2278
 5392TIP3    H137591   3.069   3.036  16.913 -0.3177  0.3284  0.6965
 5392TIP3    H237592   3.198   3.102  16.869 -0.9511  2.7970  2.2755
 5393TIP3   OH237593   3.834   1.354  12.401  0.3267  0.8524  0.7519
 5393TIP3    H137594   3.772   1.398  12.460 -1.3005  0.2180 -0.4109
 5393TIP3    H237595   3.846   1.416  12.329 -2.4992 -0.6667 -1.2351
 5394TIP3   OH237596   1.828   2.946  14.942  0.0006 -0.5172  0.0417
 5394TIP3    H137597   1.805   2.873  15.000 -1.7334  0.6856  0.9492
 5394TIP3    H237598   1.764   3.014  14.963  0.8983  0.8768 -1.5496
 5395TIP3   OH237599   2.204   1.244   4.615  0.3813  0.4443  0.3484
 5395TIP3    H137600   2.256   1.273   4.690  1.0104  0.1723  0.0280
 5395TIP3    H237601   2.252   1.168   4.580  1.3941  1.9165 -1.7143
 5396TIP3   OH237602   1.136   2.283   0.648  0.2267  0.1860  0.5227
 5396TIP3    H137603   1.139   2.378   0.651 -0.8244  0.2375  0.2439
 5396TIP3    H237604   1.043   2.261   0.654  0.4598 -0.8282  0.6912
 5397TIP3   OH237605   1.612   6.044  15.764 -0.0222  0.5016  0.2321
 5397TIP3    H137606   1.640   6.093  15.842  0.1193  0.1008  0.4402
 5397TIP3    H237607   1.517   6.036  15.773 -0.0308  0.6377  0.2582
 5398TIP3   OH237608   0.921   6.080   3.346  0.0226 -0.1536  0.0262
 5398TIP3    H137609   0.887   6.000   3.387  1.1079 -0.7176 -0.1497
 5398TIP3    H237610   0.872   6.151   3.388 -1.3365 -0.9302 -0.1936
 5399TIP3   OH237611   5.486   3.290  15.026 -0.1387 -0.2562 -0.1737
 5399TIP3    H137612   5.408   3.297  15.080  1.5387 -1.4509  2.6178
 5399TIP3    H237613   5.493   3.375  14.983 -0.7671  1.4034  2.7274
 5400TIP3   OH237614   3.549   0.665  15.790 -0.6125  0.1791  0.6986
 5400TIP3    H137615   3.610   0.613  15.843  0.3656  0.4453 -0.1289
 5400TIP3    H237616   3.463   0.628  15.810  0.0757 -2.0128 -0.1031
 5401TIP3   OH237617   6.047   3.115   5.213  0.6423  0.0768  0.0798
 5401TIP3    H137618   5.996   3.076   5.283  4.0318 -0.7353  2.3329
 5401TIP3    H237619   6.034   3.056   5.138 -0.7693 -0.6704  0.8710
 5402TIP3   OH237620   3.702   1.209  16.125 -0.0425 -0.1883  0.3164
 5402TIP3    H137621   3.780   1.256  16.094 -0.9853  2.2474  1.3466
 5402TIP3    H237622   3.629   1.249  16.076 -0.7921 -1.5122  0.3088
 5403TIP3   OH237623   6.580   5.147  11.547 -0.1092  0.6725 -0.3366
 5403TIP3    H137624   6.591   5.057  11.578  2.4776  0.8364 -0.5382
 5403TIP3    H237625   6.522   5.139  11.472  2.2184 -1.3053 -2.0930
 5404TIP3   OH237626   3.637   2.452   3.354  0.1662  0.2394 -0.3327
 5404TIP3    H137627   3.635   2.387   3.284  2.2217 -1.6868  1.2703
 5404TIP3    H237628   3.705   2.514   3.328 -0.1250  0.3859 -0.7433
 5405TIP3   OH237629   2.148   0.674  13.458  0.7479  0.7284 -0.4831
 5405TIP3    H137630   2.181   0.661  13.547  1.7880  0.4722 -0.8833
 5405TIP3    H237631   2.083   0.743  13.466  0.4294  0.3190  0.5623
 5406TIP3   OH237632   5.356   6.685   5.646 -0.2826 -0.0391  0.1536
 5406TIP3    H137633   5.366   6.731   5.563  0.6761  2.6353  1.6089
 5406TIP3    H237634   5.440   6.695   5.690 -0.8634 -1.0662  1.5951
 5407TIP3   OH237635   3.400   5.179   1.526 -0.3218 -0.3167 -0.4290
 5407TIP3    H137636   3.363   5.189   1.614 -0.6162  0.3125 -0.6204
 5407TIP3    H237637   3.337   5.221   1.469 -0.9558 -2.1193 -1.1418
 5408TIP3   OH237638   3.119   0.699   2.443 -0.0486  0.2289 -0.0463
 5408TIP3    H137639   3.056   0.770   2.458 -0.0636  0.5195 -1.3631
 5408TIP3    H237640   3.158   0.684   2.529  0.0626  1.9513  0.2525
 5409TIP3   OH237641   1.689   2.548   0.649  0.3251  0.1468 -0.4520
 5409TIP3    H137642   1.658   2.539   0.559  1.1490  0.0211 -0.7362
 5409TIP3    H237643   1.758   2.615   0.645 -0.9592  1.5882  0.4361
 5410TIP3   OH237644   0.600   1.421   6.606 -0.1139 -0.5972  0.2767
 5410TIP3    H137645   0.528   1.476   6.576  0.2886 -0.1574  0.0879
 5410TIP3    H237646   0.578   1.333   6.576 -1.1411 -0.6894  1.2514
 5411TIP3   OH237647   6.392   2.442   6.326  0.1822  0.5399  0.0400
 5411TIP3    H137648   6.485   2.451   6.306 -0.0615  1.9190 -0.6286
 5411TIP3    H237649   6.357   2.531   6.319 -1.2031  0.0398  0.1874
 5412TIP3   OH237650   5.696   6.554  15.220  0.1516  0.3035  0.5502
 5412TIP3    H137651   5.786   6.559  15.254  1.1963 -0.5928 -1.8771
 5412TIP3    H237652   5.664   6.644  15.223  1.9239  1.0091 -0.4775
 5413TIP3   OH237653   0.841   4.023   6.209  0.3036 -0.2230  0.6050
 5413TIP3    H137654   0.912   3.978   6.254 -0.6048 -1.9429  0.3894
 5413TIP3    H237655   0.773   4.033   6.276 -0.5646 -1.6781 -0.0185
 5414TIP3   OH237656   4.936   2.234   0.548  0.2610  1.1549 -0.3392
 5414TIP3    H137657   4.891   2.153   0.521 -3.2023  1.6813  3.0550
 5414TIP3    H237658   4.979   2.212   0.630 -1.6963  2.9085  1.2560
 5415TIP3   OH237659   0.388   0.218   2.560 -0.0289  0.2861  0.6436
 5415TIP3    H137660   0.410   0.204   2.468 -0.7392 -1.6986  0.7181
 5415TIP3    H237661   0.443   0.291   2.587 -2.0899  3.2231 -2.1798
 5416TIP3   OH237662   3.331   1.431  14.724 -0.2414 -0.3461 -0.4587
 5416TIP3    H137663   3.362   1.379  14.650 -2.0382 -0.1174 -1.4221
 5416TIP3    H237664   3.372   1.517  14.711  0.9843 -0.8453 -0.0757
 5417TIP3   OH237665   3.216   0.129  15.158 -0.0402  0.2164 -0.3351
 5417TIP3    H137666   3.199   0.197  15.222  0.5829  0.3973 -0.3535
 5417TIP3    H237667   3.287   0.077  15.196  0.2355  0.2395 -0.8113
 5418TIP3   OH237668   0.308   2.663   5.463 -0.1687 -0.3464  0.1997
 5418TIP3    H137669   0.266   2.663   5.377  1.3895 -1.4860 -0.6138
 5418TIP3    H237670   0.238   2.640   5.524 -1.3866  0.8418 -0.6886
 5419TIP3   OH237671   4.150   6.504   3.038 -0.2378  0.5021  0.3622
 5419TIP3    H137672   4.195   6.487   2.955 -0.6076  2.2831 -0.2479
 5419TIP3    H237673   4.057   6.511   3.014 -0.5711 -0.6613  1.2192
 5420TIP3   OH237674   0.213   0.400  15.802 -0.3089 -0.4553 -0.1887
 5420TIP3    H137675   0.269   0.470  15.768  0.1387 -1.6263 -2.0106
 5420TIP3    H237676   0.273   0.339  15.844 -0.2502 -1.4086 -1.6037
 5421TIP3   OH237677   2.092   6.433  11.137  0.0697 -0.3179  0.0794
 5421TIP3    H137678   2.073   6.342  11.112 -0.1116 -0.5131  0.8909
 5421TIP3    H237679   2.179   6.428  11.176  0.3005 -0.0400 -0.4001
 5422TIP3   OH237680   0.872   5.469  16.716 -0.2022  0.1665 -0.1262
 5422TIP3    H137681   0.790   5.517  16.728 -0.3910  0.1531 -1.2957
 5422TIP3    H237682   0.846   5.388  16.672  0.1568 -0.8891  1.4880
 5423TIP3   OH237683   5.217   3.918  11.736  0.1624  0.2495  0.2767
 5423TIP3    H137684   5.183   3.940  11.650 -0.9454 -3.1162 -0.2951
 5423TIP3    H237685   5.140   3.894  11.787  1.0959 -2.6598  0.5299
 5424TIP3   OH237686   4.762   2.341  16.394 -0.4391  0.5884 -0.1350
 5424TIP3    H137687   4.741   2.434  16.392 -0.1781  0.7805  2.4480
 5424TIP3    H237688   4.805   2.324  16.310 -0.3989  2.8046 -0.6159
 5425TIP3   OH237689   3.779   1.686  14.018 -0.0571 -0.3486 -0.1177
 5425TIP3    H137690   3.799   1.623  13.949 -0.8079  0.3005 -0.9494
 5425TIP3    H237691   3.703   1.734  13.985  1.3336  1.9840 -0.1716
 5426TIP3   OH237692   0.863   2.757  14.439 -0.2101  0.2432 -0.1290
 5426TIP3    H137693   0.800   2.691  14.470  0.5165  0.4271  1.8767
 5426TIP3    H237694   0.918   2.710  14.376  0.1806 -1.0396  1.1370
 5427TIP3   OH237695   6.346   2.610  11.946  0.5144  0.5424 -0.0097
 5427TIP3    H137696   6.390   2.661  11.878 -0.3662 -0.0207 -1.0468
 5427TIP3    H237697   6.361   2.659  12.027  0.9036  1.6752 -0.7422
 5428TIP3   OH237698   1.532   0.728  14.535  0.2700 -0.0890  0.3959
 5428TIP3    H137699   1.584   0.780  14.595  0.5393 -0.1271  0.1967
 5428TIP3    H237700   1.595   0.668  14.494  0.3520  0.8961 -0.9840
 5429TIP3   OH237701   6.676   1.881   5.162 -0.6401 -0.5030  0.0523
 5429TIP3    H137702   6.684   1.871   5.256 -2.4166 -0.5755  0.2297
 5429TIP3    H237703   6.694   1.794   5.127 -0.4499 -0.5923  0.3738
 5430TIP3   OH237704   3.612   1.365   4.998 -0.2814 -0.3966  0.1977
 5430TIP3    H137705   3.613   1.273   5.025 -0.9554 -0.0871  1.3570
 5430TIP3    H237706   3.589   1.363   4.905 -0.9075 -1.3727  0.3563
 5431TIP3   OH237707   6.614   0.650  15.358  0.0598 -0.1318  0.2265
 5431TIP3    H137708   6.564   0.569  15.354  0.0373 -0.1236  0.3470
 5431TIP3    H237709   6.665   0.650  15.277 -2.1911  1.2198 -1.2594
 5432TIP3   OH237710   3.416   1.224  14.510  0.8867 -0.1098  0.2730
 5432TIP3    H137711   3.456   1.229  14.596  1.6868 -0.1362 -0.0897
 5432TIP3    H237712   3.350   1.156  14.518  0.0030  0.8097  1.2274
 5433TIP3   OH237713   1.915   4.380   6.269 -0.3167 -0.8459  0.8837
 5433TIP3    H137714   1.961   4.403   6.349 -0.8603  0.1557  0.9269
 5433TIP3    H237715   1.861   4.457   6.249  0.1307 -0.8898 -0.6740
 5434TIP3   OH237716   5.277   3.667  11.915 -0.8745  0.6495 -0.2436
 5434TIP3    H137717   5.354   3.670  11.858 -2.1301 -1.3697 -2.2076
 5434TIP3    H237718   5.206   3.699  11.860 -1.7617  0.8247  0.9719
 5435TIP3   OH237719   4.116   0.421   4.337  0.1192 -0.3050  0.0227
 5435TIP3    H137720   4.024   0.430   4.314 -0.0273 -0.7153  0.4426
 5435TIP3    H237721   4.126   0.329   4.359  1.1383 -0.8102 -2.2425
 5436TIP3   OH237722   1.220   3.528  16.808 -0.0068 -0.2685 -0.4201
 5436TIP3    H137723   1.191   3.591  16.742 -0.2004  1.5040  1.2422
 5436TIP3    H237724   1.179   3.559  16.889 -0.2319 -2.6817  0.4478
 5437TIP3   OH237725   4.653   3.116  15.796  0.2842  0.4663  0.0451
 5437TIP3    H137726   4.660   3.207  15.825  1.4250  0.8667 -1.3742
 5437TIP3    H237727   4.695   3.115  15.710  0.3023 -1.4140  0.0368
 5438TIP3   OH237728   0.822   2.092  16.653  0.1146  0.2610  0.4949
 5438TIP3    H137729   0.780   2.155  16.596  1.7706 -0.1598 -1.2926
 5438TIP3    H237730   0.887   2.142  16.702  0.5253  0.1665  0.0465
 5439TIP3   OH237731   1.648   4.607   0.450  0.0640 -0.8916 -0.7926
 5439TIP3    H137732   1.688   4.691   0.429 -0.2484 -0.6619 -0.4833
 5439TIP3    H237733   1.697   4.576   0.527  0.7033 -1.3734 -1.3757
 5440TIP3   OH237734   6.064   0.930  16.268 -0.5908  0.2454  0.5108
 5440TIP3    H137735   6.061   0.946  16.363  0.4571  0.1141  0.5671
 5440TIP3    H237736   6.157   0.930  16.246 -0.7389 -1.2684 -0.2598
 5441TIP3   OH237737   2.069   6.398  12.392  0.1977  0.3685 -0.3289
 5441TIP3    H137738   2.149   6.379  12.442  0.5595  0.4899 -0.8489
 5441TIP3    H237739   2.094   6.470  12.334 -0.3157  0.4570 -0.4396
 5442TIP3   OH237740   6.475   3.464   0.823 -0.1178 -0.7474 -0.2091
 5442TIP3    H137741   6.452   3.544   0.777  0.9027  0.2734  0.9895
 5442TIP3    H237742   6.529   3.415   0.761  2.0629  1.0477  0.1734
 5443TIP3   OH237743   4.636   5.312   5.441  0.0819  0.2495  1.1725
 5443TIP3    H137744   4.578   5.262   5.384  1.4595 -0.5260  0.4247
 5443TIP3    H237745   4.592   5.396   5.452  0.1862  0.7706 -1.7736
 5444TIP3   OH237746   6.443   0.417  11.799  0.4774  0.7260  0.2033
 5444TIP3    H137747   6.498   0.466  11.738 -0.0154  0.1207 -0.7670
 5444TIP3    H237748   6.387   0.364  11.742  0.1698 -0.0472  1.2010
 5445TIP3   OH237749   5.068   0.919  14.328  0.7864  0.1692  0.3296
 5445TIP3    H137750   5.059   0.925  14.423 -0.3558  1.2273  0.1741
 5445TIP3    H237751   5.045   1.006  14.296 -0.5740 -0.6527 -1.0394
 5446TIP3   OH237752   5.760   2.717  13.743  0.4850  0.1240  0.0963
 5446TIP3    H137753   5.721   2.716  13.655 -2.4684 -1.4778  1.2913
 5446TIP3    H237754   5.689   2.748  13.800  0.9277 -2.6964  2.4036
 5447TIP3   OH237755   3.888   2.248  11.440 -0.2095  0.1959  0.0173
 5447TIP3    H137756   3.960   2.247  11.503 -0.2237 -0.9950  0.0378
 5447TIP3    H237757   3.810   2.225  11.492 -0.3495 -0.0215 -0.2825
 5448TIP3   OH237758   1.172   4.095   2.670  0.3797  0.8254 -0.0426
 5448TIP3    H137759   1.220   4.012   2.678 -0.0965  0.5721  0.1726
 5448TIP3    H237760   1.205   4.134   2.588  1.8937  1.2612  0.7256
 5449TIP3   OH237761   1.035   0.183   1.933  0.0664 -0.0426  0.2830
 5449TIP3    H137762   1.072   0.100   1.963  0.2008  0.6345  2.0979
 5449TIP3    H237763   1.097   0.214   1.867 -1.2260 -2.4939 -2.2697
 5450TIP3   OH237764   5.164   4.356   2.379  0.3972  0.3310 -0.0353
 5450TIP3    H137765   5.181   4.449   2.398 -1.7442  0.4457  1.7322
 5450TIP3    H237766   5.197   4.310   2.455  0.4058 -0.2407 -0.3838
 5451TIP3   OH237767   4.436   3.302   0.056  0.0153 -0.2186 -0.2712
 5451TIP3    H137768   4.437   3.248  -0.024 -0.0216  0.6600 -0.8725
 5451TIP3    H237769   4.521   3.346   0.055 -1.1061  2.0619 -1.4127
 5452TIP3   OH237770   3.571   1.262  10.602  0.1750  0.0543 -0.3018
 5452TIP3    H137771   3.504   1.195  10.593  0.9321 -0.5406 -1.8061
 5452TIP3    H237772   3.528   1.343  10.576  0.1151 -0.3813 -1.6431
 5453TIP3   OH237773   5.992   1.036  10.288  0.2143 -0.0650 -0.2541
 5453TIP3    H137774   6.019   0.980  10.360  0.3074 -0.5567 -0.6667
 5453TIP3    H237775   6.032   1.121  10.307  0.3499 -0.2301  0.1985
 5454TIP3   OH237776   0.812   3.600   6.208  0.1716 -0.0543  0.0952
 5454TIP3    H137777   0.820   3.585   6.302  0.9081 -0.4395 -0.0244
 5454TIP3    H237778   0.718   3.591   6.191  0.1676 -1.1691  0.6014
 5455TIP3   OH237779   6.733   4.809   2.633  0.2761  0.2856 -0.1552
 5455TIP3    H137780   6.729   4.804   2.729 -1.0399  0.8091 -0.1590
 5455TIP3    H237781   6.696   4.726   2.603 -0.3262  0.5711 -0.2070
 5456TIP3   OH237782   0.319   2.723   0.189 -0.0813  0.2282 -0.3652
 5456TIP3    H137783   0.264   2.695   0.262 -0.4163  0.8188 -0.3879
 5456TIP3    H237784   0.258   2.751   0.122  0.2389  0.7995 -0.4269
 5457TIP3   OH237785   3.725   4.369   4.577 -0.0843  0.4087 -0.3749
 5457TIP3    H137786   3.759   4.374   4.487 -0.0918  0.3691 -0.3796
 5457TIP3    H237787   3.655   4.435   4.579  1.1897  1.8137  0.1520
 5458TIP3   OH237788   3.346   5.451  16.828 -0.1801 -1.1281  0.1453
 5458TIP3    H137789   3.403   5.397  16.774  1.6006 -0.2840  1.1060
 5458TIP3    H237790   3.275   5.477  16.768  1.1382 -1.1038 -1.4846
 5459TIP3   OH237791   2.867   0.844   3.186 -0.4010  0.9910 -0.2169
 5459TIP3    H137792   2.944   0.893   3.155 -1.0749  2.6969  0.6884
 5459TIP3    H237793   2.904   0.773   3.238  0.6203  0.1236 -2.0202
 5460TIP3   OH237794   3.653   2.077  14.688 -0.5050 -0.1965 -0.4293
 5460TIP3    H137795   3.599   2.153  14.667 -0.3086  0.3264  0.8354
 5460TIP3    H237796   3.739   2.113  14.708 -0.1592 -0.8479 -0.7324
 5461TIP3   OH237797   2.160   3.953  11.345  0.2183  0.2690  0.1451
 5461TIP3    H137798   2.155   3.914  11.432  0.1206  2.2406  1.0847
 5461TIP3    H237799   2.089   3.913  11.296  1.2081 -2.0063  0.4427
 5462TIP3   OH237800   2.294   3.696   4.486  0.2465  0.2746 -0.3451
 5462TIP3    H137801   2.230   3.675   4.418  1.1319 -0.1966 -1.0594
 5462TIP3    H237802   2.372   3.644   4.463  0.7001  0.3940  0.8163
 5463TIP3   OH237803   1.392   2.220  13.072 -0.1071  0.6851 -0.0578
 5463TIP3    H137804   1.360   2.274  13.145 -1.3582 -1.1144  0.8183
 5463TIP3    H237805   1.330   2.238  13.001 -0.6373  0.2904  0.2922
 5464TIP3   OH237806   6.688   0.079   0.999  0.0482 -0.5928 -0.3344
 5464TIP3    H137807   6.666   0.141   1.069 -1.2906  0.7608 -1.8694
 5464TIP3    H237808   6.781   0.094   0.982  0.0375  0.1014  0.1629
 5465TIP3   OH237809   0.600   4.537   6.393 -0.2431  0.2960 -0.3317
 5465TIP3    H137810   0.516   4.533   6.438 -2.1264  0.3438 -3.5563
 5465TIP3    H237811   0.622   4.446   6.375 -0.4541  0.3591 -0.9192
 5466TIP3   OH237812   3.513   2.637   2.430 -0.3466  0.1351  0.0171
 5466TIP3    H137813   3.426   2.620   2.395 -0.0702 -0.3832 -0.4398
 5466TIP3    H237814   3.532   2.560   2.484 -0.9730  1.1397  1.7538
 5467TIP3   OH237815   2.216   2.069   5.076 -0.0404 -0.8018  0.0255
 5467TIP3    H137816   2.241   2.125   5.003  0.5314 -0.6842  0.3023
 5467TIP3    H237817   2.136   2.026   5.047 -0.1007 -0.3702 -0.4652
 5468TIP3   OH237818   0.119   5.543  10.896  0.1515 -0.5175 -0.2118
 5468TIP3    H137819   0.064   5.573  10.968 -1.9305 -2.0436 -1.0885
 5468TIP3    H237820   0.142   5.624  10.849  0.5377  0.3663  1.4011
 5469TIP3   OH237821   1.963   2.251   4.891 -0.0349 -0.2791 -0.2888
 5469TIP3    H137822   2.052   2.270   4.860  0.6797 -2.2910  0.4328
 5469TIP3    H237823   1.969   2.255   4.986 -0.3534 -1.8496 -0.1821
 5470TIP3   OH237824   6.337   2.086   1.577 -0.2535  0.3692  0.4686
 5470TIP3    H137825   6.253   2.044   1.599 -0.3454 -0.4117 -1.2202
 5470TIP3    H237826   6.321   2.129   1.493  1.3602 -0.8858 -0.5441
 5471TIP3   OH237827   1.288   4.396   0.886 -0.7095  0.1171 -0.6142
 5471TIP3    H137828   1.352   4.408   0.956 -0.0770 -0.8053 -1.0159
 5471TIP3    H237829   1.331   4.337   0.824 -2.3049 -1.3107 -0.4303
 5472TIP3   OH237830   6.551   2.440   2.291  0.1567 -0.3340 -0.1264
 5472TIP3    H137831   6.644   2.420   2.282 -0.0567 -1.6142  0.2035
 5472TIP3    H237832   6.511   2.402   2.213  0.1015  1.7973 -1.1895
 5473TIP3   OH237833   2.129   3.834   3.236  0.2174 -0.0259  0.2119
 5473TIP3    H137834   2.044   3.811   3.274 -0.1583  0.3023 -0.4253
 5473TIP3    H237835   2.128   3.795   3.149  1.0191 -0.6434  0.4684
 5474TIP3   OH237836   5.622   4.714  15.876 -0.5499  0.8242  0.1746
 5474TIP3    H137837   5.531   4.686  15.878 -0.0194 -1.2981 -1.8246
 5474TIP3    H237838   5.633   4.764  15.957 -3.1246  0.0943  1.0732
 5475TIP3   OH237839   2.961   6.568  10.603 -0.1812 -0.4149  0.2327
 5475TIP3    H137840   2.886   6.529  10.649 -0.2191 -2.4350 -1.4504
 5475TIP3    H237841   2.989   6.639  10.661 -3.7917  0.9019  0.6531
 5476TIP3   OH237842   2.689   3.463  12.570 -0.1691 -0.0560  0.3829
 5476TIP3    H137843   2.676   3.410  12.648  0.5765 -1.2442 -0.2799
 5476TIP3    H237844   2.747   3.534  12.598  0.5761 -0.8115  0.7742
 5477TIP3   OH237845   3.527   2.101  12.135 -0.7860  0.5064 -0.1994
 5477TIP3    H137846   3.509   2.181  12.183 -1.3138  1.0590 -1.2907
 5477TIP3    H237847   3.509   2.123  12.044 -0.7467 -0.7981 -0.5382
 5478TIP3   OH237848   1.826   2.312  13.625 -0.2581 -0.5274  0.5796
 5478TIP3    H137849   1.805   2.348  13.539  0.6596  2.1706  1.3778
 5478TIP3    H237850   1.743   2.313  13.673 -0.3327  0.1611  0.4418
 5479TIP3   OH237851   3.955   5.806   3.568 -0.8478  0.3316 -0.5533
 5479TIP3    H137852   3.990   5.717   3.572 -0.5323  0.3802 -1.7483
 5479TIP3    H237853   4.017   5.859   3.618 -0.8732 -0.0680 -0.0924
 5480TIP3   OH237854   6.483   0.168  12.192 -0.9585 -0.2779  0.0436
 5480TIP3    H137855   6.522   0.192  12.108  2.0366  1.5192  1.7646
 5480TIP3    H237856   6.508   0.077  12.204 -1.5910 -0.6213 -1.0399
 5481TIP3   OH237857   0.475   3.693   2.358  0.3862  0.0650  0.0659
 5481TIP3    H137858   0.476   3.697   2.263  1.0844  0.7026  0.0916
 5481TIP3    H237859   0.403   3.750   2.385 -0.0380 -0.3924 -0.0828
 5482TIP3   OH237860   5.711   5.461   6.877 -0.3665  0.7433  0.0135
 5482TIP3    H137861   5.662   5.523   6.824  0.1880  1.0042 -0.2057
 5482TIP3    H237862   5.648   5.393   6.901 -0.6743  0.7528 -0.7696
 5483TIP3   OH237863   4.290   2.492  16.326  0.1904  0.2458  0.0287
 5483TIP3    H137864   4.229   2.442  16.271 -0.4423  0.1990  0.7500
 5483TIP3    H237865   4.375   2.480  16.284 -0.0056 -1.1389 -0.0214
 5484TIP3   OH237866   2.777   5.752  13.739 -0.4786 -0.0041  0.0991
 5484TIP3    H137867   2.702   5.695  13.759 -0.5157 -0.6413 -1.6433
 5484TIP3    H237868   2.827   5.703  13.673  0.5328  1.1706 -0.0397
 5485TIP3   OH237869   0.843   0.656  14.488  0.3242  0.3350 -0.2067
 5485TIP3    H137870   0.779   0.585  14.482  0.4249  0.2071  0.2263
 5485TIP3    H237871   0.795   0.734  14.457  0.1329  0.1337 -0.4249
 5486TIP3   OH237872   3.597   4.994  16.981  0.1152 -0.5230  0.1794
 5486TIP3    H137873   3.521   5.034  16.940 -0.8455 -1.9593  0.4850
 5486TIP3    H237874   3.594   4.903  16.954  0.6105 -1.0437  1.7631
 5487TIP3   OH237875   3.885   4.542  16.335 -0.1546  0.4508 -0.3628
 5487TIP3    H137876   3.798   4.581  16.344 -0.0547  0.6671 -0.3210
 5487TIP3    H237877   3.872   4.467  16.277 -0.6071 -0.2842  0.6478
 5488TIP3   OH237878   4.180   2.856   5.840  0.2665  0.7331  0.5646
 5488TIP3    H137879   4.226   2.773   5.830 -2.6249 -1.1364  1.5957
 5488TIP3    H237880   4.206   2.888   5.926  1.0127  0.6631  0.3700
 5489TIP3   OH237881   1.631   6.149   1.795  0.1174  0.3762 -0.1020
 5489TIP3    H137882   1.585   6.231   1.775  0.7829  1.1946  1.5628
 5489TIP3    H237883   1.615   6.135   1.888  0.6495 -0.9978 -0.2052
 5490TIP3   OH237884   0.645   4.483  16.696  0.2428  0.2630  0.4384
 5490TIP3    H137885   0.723   4.501  16.749  0.2324  0.7889  0.2784
 5490TIP3    H237886   0.669   4.405  16.645  0.2510 -0.2498  1.2083
 5491TIP3   OH237887   6.595   5.449   5.491  0.1285  0.0963 -0.3904
 5491TIP3    H137888   6.651   5.384   5.449  0.1690 -0.0925 -0.0470
 5491TIP3    H237889   6.506   5.422   5.470 -0.0028 -1.6797  2.0016
 5492TIP3   OH237890   3.756   1.315   0.370 -0.4890 -0.4878  0.3835
 5492TIP3    H137891   3.814   1.384   0.401 -0.2008 -1.3431  1.7842
 5492TIP3    H237892   3.669   1.342   0.399 -0.2327 -1.2417  1.9504
 5493TIP3   OH237893   2.954   0.901   5.201  0.0275 -0.3466 -0.3163
 5493TIP3    H137894   2.970   0.972   5.138  1.3212  0.2492  0.6306
 5493TIP3    H237895   3.037   0.892   5.248 -0.0826 -2.5783 -0.4709
 5494TIP3   OH237896   2.447   3.397   4.706 -0.2532 -0.1786 -0.3592
 5494TIP3    H137897   2.400   3.322   4.741  0.2249 -0.0818  0.5055
 5494TIP3    H237898   2.447   3.383   4.611 -2.1866 -0.0892 -0.4240
 5495TIP3   OH237899   2.248   6.511  15.342  0.0760 -0.2938 -0.2037
 5495TIP3    H137900   2.274   6.423  15.368  3.0842  0.3655 -0.6494
 5495TIP3    H237901   2.271   6.566  15.417 -0.8620  0.2651 -0.3088
 5496TIP3   OH237902   1.294   2.182  14.789 -0.1339  0.4800 -0.2978
 5496TIP3    H137903   1.363   2.247  14.807  0.6340 -1.1999  4.0474
 5496TIP3    H237904   1.333   2.124  14.724  1.2067  1.5039 -0.4565
 5497TIP3   OH237905   5.502   1.350  10.585 -0.2088  0.2050  0.3001
 5497TIP3    H137906   5.471   1.441  10.592 -0.8328  0.1988 -1.6802
 5497TIP3    H237907   5.423   1.297  10.588  0.1860 -0.3397  1.8706
 5498TIP3   OH237908   3.651   1.704  16.368  0.4351 -0.0013  0.5926
 5498TIP3    H137909   3.711   1.630  16.379 -0.0768 -0.5040  0.1363
 5498TIP3    H237910   3.681   1.747  16.288 -0.2614 -0.7212 -0.0822
 5499TIP3   OH237911   0.970   0.531   4.235 -0.5093  0.1359 -0.5092
 5499TIP3    H137912   0.963   0.611   4.287 -0.2764 -1.5877  2.3997
 5499TIP3    H237913   1.054   0.539   4.190 -1.4388  2.4022 -2.0460
 5500TIP3   OH237914   6.103   2.955   0.886  0.0536  0.2072  0.2372
 5500TIP3    H137915   6.088   2.922   0.797  0.5180 -1.5706  0.7726
 5500TIP3    H237916   6.046   3.031   0.893 -0.2336  0.1990 -1.4721
 5501TIP3   OH237917   1.812   5.363  16.591 -0.2318 -0.5726 -0.2281
 5501TIP3    H137918   1.846   5.359  16.680 -1.0753 -0.2086  0.1198
 5501TIP3    H237919   1.837   5.280  16.551  2.2065  0.1750 -0.4240
 5502TIP3   OH237920   0.048   4.136  16.123 -0.0769 -0.2308  0.4820
 5502TIP3    H137921   0.039   4.093  16.038  0.9529 -1.5627  1.0113
 5502TIP3    H237922   0.141   4.156  16.130 -0.3179  0.8253  0.8713
 5503TIP3   OH237923   6.515   5.443   2.009 -0.1306 -0.2617  0.2246
 5503TIP3    H137924   6.467   5.509   2.059 -0.1548 -0.3201  0.2787
 5503TIP3    H237925   6.474   5.445   1.922 -1.3110 -1.4342  0.7230
 5504TIP3   OH237926   3.999   0.072   5.041 -0.2310 -0.3134 -0.4915
 5504TIP3    H137927   3.930   0.074   5.107  0.3207  1.2211  0.0753
 5504TIP3    H237928   3.956   0.100   4.960 -0.6979 -1.2877 -0.5898
 5505TIP3   OH237929   2.647   5.172   1.550 -0.2455 -0.3758  0.4200
 5505TIP3    H137930   2.562   5.216   1.547  0.0192  0.1912  0.9204
 5505TIP3    H237931   2.707   5.235   1.510  0.5293  0.7123  3.0626
 5506TIP3   OH237932   2.729   6.771  16.316 -0.1106  0.0593 -0.6895
 5506TIP3    H137933   2.774   6.854  16.335 -0.2867 -0.2571  1.3562
 5506TIP3    H237934   2.800   6.710  16.296  0.0696  0.5242 -1.5003
 5507TIP3   OH237935   0.100   0.463   0.507 -0.5413 -0.2409 -0.2702
 5507TIP3    H137936   0.128   0.553   0.487 -1.3883 -0.2397 -1.6248
 5507TIP3    H237937   0.104   0.418   0.423 -0.6320 -1.3452  0.3002
 5508TIP3   OH237938   3.099   6.026   2.211  0.1077 -0.9245 -0.1424
 5508TIP3    H137939   3.105   5.982   2.126  0.8895 -1.2240  0.0590
 5508TIP3    H237940   3.177   6.081   2.215 -0.7593  0.3550 -0.3065
 5509TIP3   OH237941   4.752   4.590   0.274 -0.1910  0.9233  0.7562
 5509TIP3    H137942   4.821   4.656   0.272 -0.4150  1.1906  1.4788
 5509TIP3    H237943   4.768   4.541   0.354 -1.7728  2.0255  1.8113
 5510TIP3   OH237944   0.828   4.408  16.133  0.2804 -0.3250 -0.1029
 5510TIP3    H137945   0.765   4.393  16.063 -0.6479 -1.0080  0.8410
 5510TIP3    H237946   0.896   4.341  16.119  0.1689 -0.3717 -0.4261
 5511TIP3   OH237947   4.971   1.418  13.546  0.3171  0.5468  0.0489
 5511TIP3    H137948   5.005   1.506  13.537 -1.5724  1.3477  0.2097
 5511TIP3    H237949   4.904   1.411  13.477 -0.0063 -0.5161  0.4444
 5512TIP3   OH237950   4.938   4.668   5.946 -0.4308 -0.4234 -0.0845
 5512TIP3    H137951   4.893   4.588   5.972  0.7732 -0.5905  1.6175
 5512TIP3    H237952   4.904   4.735   6.005 -1.0980  0.2653 -1.2038
 5513TIP3   OH237953   3.299   6.673   6.520 -0.1453 -0.0683 -0.2281
 5513TIP3    H137954   3.258   6.754   6.551 -3.1382 -1.8054  0.7753
 5513TIP3    H237955   3.386   6.674   6.561 -1.0645  1.4266  1.8795
 5514TIP3   OH237956   6.656   5.989   0.280 -0.0815  0.7386  0.1320
 5514TIP3    H137957   6.724   5.938   0.236 -0.8962 -0.3625  0.0919
 5514TIP3    H237958   6.689   6.079   0.281  2.0802 -0.0145  1.5341
 5515TIP3   OH237959   1.740   2.068  15.054 -0.4498  0.1484 -0.1280
 5515TIP3    H137960   1.778   2.121  14.983  1.0966  0.1317  0.6297
 5515TIP3    H237961   1.809   2.005  15.076 -1.3606 -0.6229  0.5959
 5516TIP3   OH237962   1.231   4.506  15.055 -0.2958  0.4886  0.8326
 5516TIP3    H137963   1.289   4.579  15.078  0.6932  0.0108 -0.0052
 5516TIP3    H237964   1.187   4.534  14.975  1.4600 -0.4800 -0.5542
 5517TIP3   OH237965   3.773   5.946   4.118  0.0464  0.1093  0.0014
 5517TIP3    H137966   3.739   5.922   4.204 -1.4325  0.1101 -0.5638
 5517TIP3    H237967   3.832   6.019   4.135 -0.8382  0.6247  0.9335
 5518TIP3   OH237968   4.160   3.416  13.211  0.4472 -0.4502 -0.1970
 5518TIP3    H137969   4.232   3.353  13.213  2.0347  1.3089  1.8817
 5518TIP3    H237970   4.195   3.495  13.252 -1.9487  1.3067 -1.2942
 5519TIP3   OH237971   0.277   0.455  14.856  0.2899  0.3527 -0.6687
 5519TIP3    H137972   0.226   0.494  14.927  3.3293  0.3830  1.6829
 5519TIP3    H237973   0.329   0.527  14.820  0.6203 -0.1552 -1.2339
 5520TIP3   OH237974   2.089   2.695  14.544 -0.2778 -0.1298  0.8367
 5520TIP3    H137975   2.004   2.732  14.567 -0.3252 -0.2243  0.8119
 5520TIP3    H237976   2.135   2.685  14.627 -0.3902 -0.3266  0.8729
 5521TIP3   OH237977   0.149   0.221  17.221 -0.0989 -0.0180  0.3897
 5521TIP3    H137978   0.203   0.210  17.298  1.2827 -1.0092 -0.6654
 5521TIP3    H237979   0.207   0.200  17.147 -1.0457  1.8970 -1.0138
 5522TIP3   OH237980   6.554   5.821  12.343  0.5230 -0.1776  0.3065
 5522TIP3    H137981   6.613   5.883  12.299  0.3629 -0.3115 -0.1049
 5522TIP3    H237982   6.550   5.851  12.433  1.7983 -0.5755  0.5167
 5523TIP3   OH237983   6.562   0.863  12.868  0.0945  0.4659  0.8441
 5523TIP3    H137984   6.499   0.811  12.819  2.2524 -1.0156 -0.5075
 5523TIP3    H237985   6.620   0.798  12.909  0.8846  1.7719  1.8816
 5524TIP3   OH237986   0.541   1.975  14.312  0.7574  1.0327 -0.1449
 5524TIP3    H137987   0.528   1.986  14.407  0.2412  2.7002 -0.3802
 5524TIP3    H237988   0.454   1.949  14.279  0.8918  0.6398 -0.1971
 5525TIP3   OH237989   6.404   5.452  12.863  0.0684 -0.0288  0.2974
 5525TIP3    H137990   6.383   5.502  12.942 -1.6360 -1.0929  0.5518
 5525TIP3    H237991   6.326   5.400  12.845  0.8742 -0.7435 -1.3962
 5526TIP3   OH237992   3.055   1.992   1.301  0.6627  0.0624 -0.4552
 5526TIP3    H137993   3.064   2.033   1.387  0.2097 -0.5439 -0.1079
 5526TIP3    H237994   3.067   1.899   1.318 -1.2916 -0.2811 -0.7241
 5527TIP3   OH237995   3.423   5.596   3.063 -0.2054 -0.6059 -0.2485
 5527TIP3    H137996   3.497   5.547   3.098 -0.5972 -0.5742  0.6435
 5527TIP3    H237997   3.442   5.688   3.083 -0.1940 -0.5354 -0.5696
 5528TIP3   OH237998   1.876   2.327   2.989  0.3765 -0.0607 -0.0674
 5528TIP3    H137999   1.817   2.344   2.915  0.6236 -0.3764 -0.3398
 5528TIP3    H238000   1.957   2.295   2.948 -0.1637 -2.2063  0.4381
 5529TIP3   OH238001   2.430   5.228  16.492 -0.9125  0.0338 -0.4534
 5529TIP3    H138002   2.381   5.287  16.435  0.4114 -0.4894 -2.2436
 5529TIP3    H238003   2.453   5.154  16.435 -0.9562 -1.3442  1.2381
 5530TIP3   OH238004   2.576   0.024  14.791  1.1160  0.0258 -0.4536
 5530TIP3    H138005   2.494  -0.022  14.806  1.1907  0.2029  0.5964
 5530TIP3    H238006   2.605  -0.006  14.705  0.9814 -1.6208  0.0260
 5531TIP3   OH238007   2.247   5.417  13.775  0.0291 -0.8474  0.3915
 5531TIP3    H138008   2.282   5.488  13.721 -0.9449 -1.3785 -0.9930
 5531TIP3    H238009   2.174   5.457  13.822 -2.0343 -1.3775 -2.1324
 5532TIP3   OH238010   6.694   4.957  13.345 -0.2302 -0.0124  0.0380
 5532TIP3    H138011   6.644   5.001  13.414  0.4533 -0.0782  0.5775
 5532TIP3    H238012   6.705   5.025  13.278  0.0672  0.3842  0.4842
 5533TIP3   OH238013   0.396   6.382  14.300  0.1379  0.2558  0.3617
 5533TIP3    H138014   0.447   6.301  14.297 -0.7004 -0.4194  2.4147
 5533TIP3    H238015   0.461   6.452  14.292  1.0534 -0.5993  0.1867
 5534TIP3   OH238016   6.188   2.771   3.906 -0.6987 -0.3338  0.0398
 5534TIP3    H138017   6.223   2.766   3.995 -1.5187  1.4716  0.4975
 5534TIP3    H238018   6.112   2.713   3.907  0.7209 -2.3389 -0.2694
 5535TIP3   OH238019   3.321   2.738   5.954  0.0253  0.2581  0.2038
 5535TIP3    H138020   3.378   2.669   5.922  1.9541  0.6407  2.5465
 5535TIP3    H238021   3.289   2.705   6.038 -1.9378  0.7553 -0.2957
 5536TIP3   OH238022   0.763   5.603   1.700 -0.1484 -0.5384  0.0466
 5536TIP3    H138023   0.848   5.579   1.662 -0.5767 -0.4683 -0.9928
 5536TIP3    H238024   0.732   5.675   1.644 -0.0809  0.6662  1.5127
 5537TIP3   OH238025   2.442   5.739  11.877  0.1144  0.1865  0.1536
 5537TIP3    H138026   2.459   5.665  11.935  0.5440  0.5038  0.4296
 5537TIP3    H238027   2.350   5.760  11.892 -0.8807 -2.0867 -1.9731
 5538TIP3   OH238028   6.649   0.429   0.159 -0.1188  0.0514 -0.3110
 5538TIP3    H138029   6.592   0.354   0.177  0.7305 -0.5907 -0.2548
 5538TIP3    H238030   6.621   0.495   0.222  0.2053 -0.7893  0.7561
 5539TIP3   OH238031   3.651   5.055  13.686 -0.5969  0.4290  0.6669
 5539TIP3    H138032   3.559   5.077  13.673 -0.4527  0.8860  0.3825
 5539TIP3    H238033   3.662   4.973  13.638 -0.6763  0.7862  0.0109
 5540TIP3   OH238034   5.406   2.178  13.723 -0.7027  0.1785  0.0474
 5540TIP3    H138035   5.352   2.234  13.778 -0.5767 -0.3198  0.6902
 5540TIP3    H238036   5.479   2.234  13.695  0.3129 -0.0711  2.0150
 5541TIP3   OH238037   1.813   1.900   4.768  0.1085 -0.1298 -0.0153
 5541TIP3    H138038   1.855   1.980   4.735  0.7616 -0.5745 -0.2867
 5541TIP3    H238039   1.850   1.830   4.714 -0.0563 -0.6778  0.5811
 5542TIP3   OH238040   5.855   5.757  16.225  0.0620  0.1981  0.1312
 5542TIP3    H138041   5.788   5.697  16.257  0.0409  0.0833 -0.1232
 5542TIP3    H238042   5.810   5.812  16.161  0.0634  0.5357  0.4240
 5543TIP3   OH238043   3.864   6.350   6.672 -0.4742  0.1817  0.0268
 5543TIP3    H138044   3.830   6.427   6.626 -1.1444 -0.1474 -0.0453
 5543TIP3    H238045   3.925   6.386   6.737  1.3119  0.5883 -1.7838
 5544TIP3   OH238046   6.379   1.670  12.225  0.0696 -0.4184 -0.3921
 5544TIP3    H138047   6.324   1.642  12.152  1.6198  0.7814 -2.0983
 5544TIP3    H238048   6.445   1.727  12.185  1.9367 -0.9701  1.7111
 5545TIP3   OH238049   3.998   5.329  14.856 -0.1106  0.0284 -0.0616
 5545TIP3    H138050   3.960   5.303  14.772  1.3925 -0.8589 -0.4996
 5545TIP3    H238051   3.941   5.399  14.887 -2.0051 -1.1623 -0.7305
 5546TIP3   OH238052   0.720   4.556  14.837 -0.2684  0.7471 -0.8706
 5546TIP3    H138053   0.644   4.510  14.801  0.9588 -0.4349 -2.0635
 5546TIP3    H238054   0.719   4.532  14.930 -0.0582 -1.2295 -1.3179
 5547TIP3   OH238055   3.130   6.249  12.821  0.0900  0.3061 -0.1999
 5547TIP3    H138056   3.221   6.277  12.828 -0.3282  1.5249  0.8475
 5547TIP3    H238057   3.116   6.197  12.900 -0.4385  1.1492  0.2768
 5548TIP3   OH238058   2.463   2.647  10.744 -0.2066 -0.0047  0.4886
 5548TIP3    H138059   2.389   2.616  10.797  0.7071 -3.2504  0.1333
 5548TIP3    H238060   2.501   2.566  10.709  1.0362  1.8044 -2.6929
 5549TIP3   OH238061   4.984   4.532  15.785  0.4761 -0.2933 -0.0439
 5549TIP3    H138062   5.048   4.462  15.778  1.1980  0.0520  2.2736
 5549TIP3    H238063   4.937   4.530  15.702  1.3943 -2.5973 -0.5816
 5550TIP3   OH238064   2.124   0.660  16.640 -0.5090  0.0655 -0.2658
 5550TIP3    H138065   2.193   0.695  16.695 -0.1685 -0.2420 -0.4896
 5550TIP3    H238066   2.167   0.591  16.589 -1.0132 -0.2308 -0.2993
 5551TIP3   OH238067   4.556   0.987   2.133 -0.3413 -1.0568 -0.2662
 5551TIP3    H138068   4.527   1.067   2.178 -1.1850 -0.5996 -1.5770
 5551TIP3    H238069   4.502   0.917   2.172 -0.3828 -0.8239  0.1000
 5552TIP3   OH238070   4.843   5.541  14.244  0.1515  0.1809  0.2272
 5552TIP3    H138071   4.796   5.619  14.275 -1.8786 -0.2916 -1.4513
 5552TIP3    H238072   4.926   5.575  14.210  0.1484  1.3297  1.2958
 5553TIP3   OH238073   0.727   6.755  11.404 -0.3526  0.6216 -0.3354
 5553TIP3    H138074   0.632   6.757  11.403 -0.3463  1.6567  0.1664
 5553TIP3    H238075   0.754   6.835  11.358  0.2743  0.2372 -0.6563
 5554TIP3   OH238076   6.436   0.573  13.242 -0.0387  0.2203  0.0995
 5554TIP3    H138077   6.484   0.621  13.309  0.8105 -0.0536 -0.2874
 5554TIP3    H238078   6.485   0.491  13.231 -1.1829 -0.5315  0.4030
 5555TIP3   OH238079   1.882   6.085  11.954 -0.0009  0.2825 -0.4664
 5555TIP3    H138080   1.968   6.108  11.921  0.1091  0.1365 -0.2863
 5555TIP3    H238081   1.867   6.146  12.027 -0.4923  0.9971 -1.1429
 5556TIP3   OH238082   3.775   0.849   0.564  0.5379  0.0535 -0.2870
 5556TIP3    H138083   3.710   0.794   0.521 -0.9307  2.7525 -1.7612
 5556TIP3    H238084   3.767   0.934   0.522  0.8265  2.2431  3.5741
 5557TIP3   OH238085   5.209   0.156  16.534 -0.0150 -0.4596  0.6508
 5557TIP3    H138086   5.245   0.070  16.513  0.0412  0.4339 -3.9176
 5557TIP3    H238087   5.286   0.210  16.551  0.2392 -0.5033 -0.3052
 5558TIP3   OH238088   1.271   5.936   1.032  0.6762  1.3761  0.3919
 5558TIP3    H138089   1.259   6.000   0.962  0.6223  2.1209  1.0693
 5558TIP3    H238090   1.199   5.952   1.093  1.3052  1.4301  1.1377
 5559TIP3   OH238091   2.109   4.951  15.514 -0.2819 -0.4123  0.1512
 5559TIP3    H138092   2.187   5.007  15.510 -0.8734  0.4895  0.7634
 5559TIP3    H238093   2.128   4.888  15.584  0.1875 -0.6619 -0.1998
 5560TIP3   OH238094   1.094   3.251   0.566 -0.5300 -0.3595  0.4042
 5560TIP3    H138095   1.039   3.329   0.561 -1.7036 -1.0637  1.6678
 5560TIP3    H238096   1.086   3.210   0.480 -1.7655 -0.2919  0.4792
 5561TIP3   OH238097   6.077   3.686  11.684 -0.0983 -0.5729  0.4418
 5561TIP3    H138098   6.160   3.703  11.729 -0.7036  1.3906  0.9042
 5561TIP3    H238099   6.102   3.664  11.595  0.8913  2.4504 -0.1250
 5562TIP3   OH238100   1.811   2.418   4.337 -0.3028  0.7441 -0.4277
 5562TIP3    H138101   1.902   2.436   4.312  0.2805 -1.1976  0.1908
 5562TIP3    H238102   1.774   2.371   4.262  0.3666 -1.8320  0.7778
 5563TIP3   OH238103   6.490   0.814  14.817  0.4537  0.0970 -0.2007
 5563TIP3    H138104   6.396   0.828  14.830  0.5529 -0.1096  0.8049
 5563TIP3    H238105   6.518   0.891  14.767 -0.1872  0.3293 -0.2165
 5564TIP3   OH238106   6.590   0.572   0.392 -0.0890  0.3879 -0.0783
 5564TIP3    H138107   6.620   0.522   0.468 -1.2277  0.7687  0.6459
 5564TIP3    H238108   6.664   0.630   0.372  0.3694  0.0227  0.4958
 5565TIP3   OH238109   0.699   0.740   3.463  0.0660  0.4560 -0.1300
 5565TIP3    H138110   0.742   0.797   3.527  0.2425  0.4855 -0.2725
 5565TIP3    H238111   0.605   0.755   3.476  0.0896  0.1610  0.3922
 5566TIP3   OH238112   1.379   4.859   0.385 -0.0760  0.0657 -0.5693
 5566TIP3    H138113   1.290   4.844   0.353 -0.2994 -2.4509  1.0265
 5566TIP3    H238114   1.435   4.815   0.321  0.0043  1.0082 -1.1678
 5567TIP3   OH238115   2.013   3.910   4.448 -0.0865  0.1930  0.1470
 5567TIP3    H138116   1.934   3.950   4.411  0.6225  1.5877  0.0786
 5567TIP3    H238117   2.030   3.960   4.528  1.6368  1.0222 -0.6904
 5568TIP3   OH238118   6.114   0.236   1.559  0.0335  0.0153 -0.5367
 5568TIP3    H138119   6.051   0.271   1.496 -1.6001 -2.5663 -0.4367
 5568TIP3    H238120   6.063   0.219   1.638  1.7507  1.7640  1.0707
 5569TIP3   OH238121   3.185   6.245  13.731  0.3366  0.6274 -0.0918
 5569TIP3    H138122   3.124   6.259  13.804  1.5383  1.4077  0.8096
 5569TIP3    H238123   3.131   6.253  13.653 -0.6183  1.9673  0.6576
 5570TIP3   OH238124   0.882   1.008  16.209  0.5356  0.3228  0.2690
 5570TIP3    H138125   0.871   0.986  16.302  0.1256 -0.0519  0.1340
 5570TIP3    H238126   0.812   0.960  16.165 -1.4190  3.0667  0.1102
 5571TIP3   OH238127   3.760   5.854  16.664  0.4894  0.2944  0.1525
 5571TIP3    H138128   3.710   5.921  16.616  0.3174 -0.3121 -0.5428
 5571TIP3    H238129   3.840   5.843  16.612 -0.5810 -1.8104 -1.1756
 5572TIP3   OH238130   0.419   1.220  14.943  0.2621  0.5522  0.2932
 5572TIP3    H138131   0.346   1.257  14.894 -0.6228 -0.4975  0.7963
 5572TIP3    H238132   0.425   1.129  14.914  2.4440  1.0145 -0.9650
 5573TIP3   OH238133   0.445   0.068  15.499  0.5272  0.2233 -0.3765
 5573TIP3    H138134   0.372   0.128  15.482  0.6508  0.0604 -1.5595
 5573TIP3    H238135   0.431  -0.005  15.439  1.2075 -0.2099 -0.0192
 5574TIP3   OH238136   3.988   1.222  16.593 -0.0466 -0.6540  0.1059
 5574TIP3    H138137   4.007   1.312  16.622 -1.7808 -0.0066 -0.6180
 5574TIP3    H238138   3.918   1.233  16.529 -1.2135 -2.6500  0.9677
 5575TIP3   OH238139   2.399   4.538  11.104 -0.7620 -0.0154  0.2262
 5575TIP3    H138140   2.328   4.516  11.044  0.0680  0.3779 -0.9198
 5575TIP3    H238141   2.474   4.558  11.048  0.2141 -0.2196  1.4047
 5576TIP3   OH238142   5.954   0.670  16.249  0.7168  0.5394  0.5620
 5576TIP3    H138143   5.983   0.636  16.164 -0.2499  2.6270 -0.6632
 5576TIP3    H238144   5.960   0.765  16.240 -0.1740  0.8211  2.5708
 5577TIP3   OH238145   0.310   4.809   2.007  0.5147  0.3202 -0.2784
 5577TIP3    H138146   0.221   4.802   1.971 -0.3848  1.1134  1.6360
 5577TIP3    H238147   0.316   4.900   2.037  1.5487 -0.0461  0.6924
 5578TIP3   OH238148   5.973   5.280   0.263  0.0885 -0.4517  0.4285
 5578TIP3    H138149   5.910   5.330   0.211  1.9843  0.9034 -0.6887
 5578TIP3    H238150   5.919   5.225   0.320 -2.0837  0.9027 -0.2062
 5579TIP3   OH238151   6.715   0.049   3.908  0.2793  1.1165 -0.1951
 5579TIP3    H138152   6.668  -0.024   3.949  0.0320  1.2566 -0.2251
 5579TIP3    H238153   6.666   0.065   3.827  0.9556  0.6252 -0.7100
 5580TIP3   OH238154   4.859   2.999   0.266  1.1286 -0.0584 -0.4092
 5580TIP3    H138155   4.906   3.075   0.300 -0.2683  1.2641 -1.2851
 5580TIP3    H238156   4.916   2.963   0.199  1.2560  1.0556 -0.9202
 5581TIP3   OH238157   6.497   2.188  15.614  0.5387 -0.2473 -0.8087
 5581TIP3    H138158   6.483   2.175  15.520  0.5163  0.5115 -0.9192
 5581TIP3    H238159   6.419   2.152  15.656  0.6743 -0.8428 -1.0591
 5582TIP3   OH238160   0.332   3.627   5.367  0.2113  0.4039 -0.1444
 5582TIP3    H138161   0.396   3.578   5.316  0.3502  0.4526 -0.0163
 5582TIP3    H238162   0.383   3.692   5.415  0.2282 -0.3893  0.9509
 5583TIP3   OH238163   3.275   2.151   1.974 -0.0424  0.9736 -0.1270
 5583TIP3    H138164   3.306   2.231   2.017 -0.0826  1.2262 -0.5541
 5583TIP3    H238165   3.304   2.161   1.883  0.2893  0.3160 -0.0917
 5584TIP3   OH238166   2.503   1.354   0.780 -0.3068  0.3517  0.5867
 5584TIP3    H138167   2.479   1.262   0.786  0.8649 -0.0713 -0.7166
 5584TIP3    H238168   2.552   1.371   0.861  0.5362 -0.5240  0.2791
 5585TIP3   OH238169   6.735   1.454   1.933  0.1002  0.4522 -0.6319
 5585TIP3    H138170   6.672   1.526   1.947  1.6692  2.1224 -1.7208
 5585TIP3    H238171   6.681   1.383   1.898 -1.6483  0.7777  1.2030
 5586TIP3   OH238172   2.824   5.580   0.443  0.2684  0.1517 -0.1797
 5586TIP3    H138173   2.837   5.541   0.530 -1.6813  2.8863  1.4866
 5586TIP3    H238174   2.910   5.614   0.419  1.3506 -2.5019 -0.4089
 5587TIP3   OH238175   4.716   3.796  13.644  0.1248  0.3745  0.3977
 5587TIP3    H138176   4.745   3.866  13.585 -1.3687  0.7092  0.0297
 5587TIP3    H238177   4.795   3.744  13.660  0.4992  0.0386 -2.1942
 5588TIP3   OH238178   3.099   4.509  10.811  0.2182 -0.2836 -0.2559
 5588TIP3    H138179   3.155   4.569  10.860 -0.5826  0.0376  0.2907
 5588TIP3    H238180   3.147   4.493  10.729  0.2419  1.4951 -0.6309
 5589TIP3   OH238181   4.726   1.868  15.121  0.0495 -0.6235 -0.1871
 5589TIP3    H138182   4.715   1.783  15.078  0.8420 -0.4359 -0.7770
 5589TIP3    H238183   4.741   1.929  15.049 -0.7132  0.0578  0.2191
 5590TIP3   OH238184   0.288   5.010  16.620  0.3702 -0.0183 -0.0291
 5590TIP3    H138185   0.230   5.041  16.550  0.7432 -1.2932 -0.9408
 5590TIP3    H238186   0.362   5.071  16.619  0.4831 -0.1558 -0.9058
 5591TIP3   OH238187   3.002   0.016  14.866  0.3162 -0.1084  0.1298
 5591TIP3    H138188   3.042  -0.059  14.822  2.9015  0.1683  1.7486
 5591TIP3    H238189   2.958  -0.021  14.942  0.5229 -0.1168  0.2469
 5592TIP3   OH238190   5.021   5.466  16.991 -0.5983  0.7520  0.4464
 5592TIP3    H138191   5.043   5.550  17.029 -0.6670  0.7213  0.5544
 5592TIP3    H238192   4.929   5.453  17.011 -0.8188  1.0610 -0.3441
 5593TIP3   OH238193   4.168   6.343  13.915  0.6192 -0.1751  0.1830
 5593TIP3    H138194   4.229   6.319  13.985  1.2354  2.2400  0.5455
 5593TIP3    H238195   4.222   6.342  13.836  0.3611 -1.0422  0.0006
 5594TIP3   OH238196   1.106   0.398   0.476  0.7681  0.7010 -0.2965
 5594TIP3    H138197   1.067   0.482   0.500  0.5103  0.4556  0.1694
 5594TIP3    H238198   1.183   0.421   0.424 -0.1341  1.1968 -1.4676
 5595TIP3   OH238199   4.342   0.682   0.077 -0.0321 -0.2932 -0.2821
 5595TIP3    H138200   4.408   0.730   0.125  0.0147  0.3773 -1.0052
 5595TIP3    H238201   4.374   0.592   0.075 -0.1686 -0.3921  1.1601
 5596TIP3   OH238202   1.436   4.688  12.838 -0.0093  0.4701  0.1595
 5596TIP3    H138203   1.491   4.613  12.862  0.5003  0.5164 -0.7999
 5596TIP3    H238204   1.388   4.709  12.917  0.3987 -0.4052  0.6526
 5597TIP3   OH238205   2.211   0.529   2.141  0.3636  0.3184  0.0213
 5597TIP3    H138206   2.169   0.591   2.201  0.1889  0.1111  0.1152
 5597TIP3    H238207   2.163   0.538   2.059  1.0418  1.1010 -0.3070
 5598TIP3   OH238208   3.279   3.032  14.716  0.7783  0.0056  0.0314
 5598TIP3    H138209   3.269   3.056  14.624 -1.4536 -1.6627 -0.2461
 5598TIP3    H238210   3.322   2.947  14.714 -0.2151 -0.5167  0.4653
 5599TIP3   OH238211   6.602   3.833   3.671  0.0608 -0.0323  0.1596
 5599TIP3    H138212   6.607   3.766   3.602 -1.0590 -0.0542  0.0913
 5599TIP3    H238213   6.536   3.895   3.640  0.9614  1.0336  0.3031
 5600TIP3   OH238214   6.525   4.944   5.357  0.1046  0.0314  0.1964
 5600TIP3    H138215   6.448   4.900   5.321  0.8571  0.5551 -2.2841
 5600TIP3    H238216   6.579   4.873   5.393 -0.5600 -0.5803  0.0128
 5601TIP3   OH238217   0.473   0.227  14.432  0.3743  0.4109  0.0852
 5601TIP3    H138218   0.395   0.267  14.394 -1.1200  0.3691  2.8712
 5601TIP3    H238219   0.502   0.290  14.498  0.8381 -0.9635  1.2342
 5602TIP3   OH238220   3.614   0.560   2.615  0.0220  0.5893 -0.3149
 5602TIP3    H138221   3.586   0.565   2.524  1.3108 -0.8502 -0.8242
 5602TIP3    H238222   3.702   0.524   2.611 -0.2758 -0.4297  1.5634
 5603TIP3   OH238223   6.537   6.657  12.728 -0.6994  0.4364  0.1880
 5603TIP3    H138224   6.618   6.708  12.732 -0.2404 -0.1947 -0.7444
 5603TIP3    H238225   6.502   6.660  12.817  1.0644 -0.4138  0.9516
 5604TIP3   OH238226   3.880   4.320   2.276 -0.1525 -1.1849  0.8406
 5604TIP3    H138227   3.834   4.237   2.261 -1.4443 -0.5918  1.4054
 5604TIP3    H238228   3.827   4.366   2.341  0.0788  0.4481 -0.0700
 5605TIP3   OH238229   4.831   4.571  15.537 -0.1912 -0.3105 -0.8589
 5605TIP3    H138230   4.832   4.656  15.494 -4.3297 -1.1980 -3.2160
 5605TIP3    H238231   4.826   4.508  15.466  1.6614 -2.5778  0.8403
 5606TIP3   OH238232   3.588   0.131  11.061  0.0266  0.1543  0.4576
 5606TIP3    H138233   3.510   0.085  11.092 -0.8539 -0.0037 -1.7933
 5606TIP3    H238234   3.574   0.222  11.087 -0.1250 -0.1389  1.4547
 5607TIP3   OH238235   0.504   5.489  15.990 -0.3133  0.2438 -0.4741
 5607TIP3    H138236   0.595   5.510  16.009 -0.5335 -0.3501  1.4459
 5607TIP3    H238237   0.461   5.490  16.076 -1.4941 -2.4099 -0.9467
 5608TIP3   OH238238   0.347   2.633   1.922  0.2966 -0.4546  0.0144
 5608TIP3    H138239   0.269   2.580   1.909 -0.4058  0.5939 -0.1439
 5608TIP3    H238240   0.392   2.632   1.837 -0.5099  0.4365 -0.4373
 5609TIP3   OH238241   5.672   3.022   2.439 -0.3475 -0.5344  0.3589
 5609TIP3    H138242   5.604   3.068   2.487 -0.1503  0.4719 -0.3084
 5609TIP3    H238243   5.732   2.989   2.507 -0.2487  0.5734  0.8236
 5610TIP3   OH238244   4.545   3.617  13.355 -0.2815 -0.4542  0.5032
 5610TIP3    H138245   4.633   3.641  13.325 -0.1252 -0.5863  0.8560
 5610TIP3    H238246   4.488   3.639  13.281 -0.0092  0.0330  0.4297
 5611TIP3   OH238247   3.804   6.365  12.648  0.8215 -0.2993 -0.3184
 5611TIP3    H138248   3.823   6.311  12.724  1.2260 -1.6259 -1.3353
 5611TIP3    H238249   3.764   6.305  12.584 -1.5447  1.1963 -0.3951
 5612TIP3   OH238250   3.263   2.075   6.146 -0.8280 -0.4707 -0.1298
 5612TIP3    H138251   3.328   2.004   6.147 -1.0257 -0.6749 -1.0072
 5612TIP3    H238252   3.222   2.069   6.060  0.2718  1.7057 -0.9124
 5613TIP3   OH238253   0.797   5.052   1.404 -0.3152 -0.2037 -0.1222
 5613TIP3    H138254   0.750   5.117   1.455 -3.6432  0.4402 -3.5291
 5613TIP3    H238255   0.858   5.103   1.350 -1.5686 -0.0126 -1.4243
 5614TIP3   OH238256   6.233   4.428  16.768 -0.2846 -0.6815 -0.1566
 5614TIP3    H138257   6.245   4.411  16.674 -2.7237 -1.4058 -0.3833
 5614TIP3    H238258   6.170   4.500  16.771 -2.2646 -2.3646  0.8885
 5615TIP3   OH238259   5.941   5.150  12.081  0.6922 -0.2318 -0.6566
 5615TIP3    H138260   5.955   5.066  12.036  0.6167 -0.9346  0.5793
 5615TIP3    H238261   5.846   5.159  12.087  0.6843 -0.9353  0.7266
 5616TIP3   OH238262   2.485   5.479   1.039 -0.3981  0.0443  0.1434
 5616TIP3    H138263   2.568   5.465   1.085 -1.1909 -0.2086  1.5470
 5616TIP3    H238264   2.481   5.574   1.026 -0.8609  0.3138  2.0134
 5617TIP3   OH238265   1.091   5.685  16.695 -0.4345 -0.0640 -0.3974
 5617TIP3    H138266   1.128   5.773  16.693  1.4937 -0.8306 -0.1251
 5617TIP3    H238267   1.013   5.691  16.640 -1.6083  2.3202  1.3236
 5618TIP3   OH238268   4.103   0.154   4.473  0.2426 -0.0467 -0.2336
 5618TIP3    H138269   4.015   0.115   4.469  0.0124  0.5619 -2.1219
 5618TIP3    H238270   4.161   0.081   4.493 -0.2969 -1.2633 -2.6928
 5619TIP3   OH238271   3.508   4.292   2.427  0.5159 -0.2670  0.3140
 5619TIP3    H138272   3.541   4.336   2.505 -0.0616 -1.8232  1.4808
 5619TIP3    H238273   3.546   4.204   2.431 -1.8005 -1.3296  0.4433
 5620TIP3   OH238274   6.036   3.447   1.493 -0.1843  0.4609 -0.3007
 5620TIP3    H138275   6.057   3.354   1.486 -1.4629  0.2543 -1.9055
 5620TIP3    H238276   6.088   3.478   1.568 -0.2747 -1.6788  0.7158
 5621TIP3   OH238277   0.300   3.333  10.884  0.7196  0.4809  0.2469
 5621TIP3    H138278   0.310   3.428  10.895 -2.1289  0.6922  2.1848
 5621TIP3    H238279   0.262   3.323  10.796  1.2324  1.0803 -0.0552
 5622TIP3   OH238280   6.008   0.732  14.482  0.1368 -0.3460 -0.2920
 5622TIP3    H138281   6.067   0.677  14.431  0.9983 -0.0601  0.3561
 5622TIP3    H238282   5.944   0.764  14.419  0.3649 -1.0785 -0.9140
 5623TIP3   OH238283   4.279   1.720  17.264 -0.3980 -1.0022  0.2502
 5623TIP3    H138284   4.330   1.639  17.255  0.5632 -0.3396 -0.5468
 5623TIP3    H238285   4.195   1.692  17.300 -0.3028 -2.4337 -0.5609
 5624TIP3   OH238286   1.415   3.585   1.178  0.0039  0.1635 -0.0848
 5624TIP3    H138287   1.348   3.654   1.184 -0.1962  0.0184 -0.5804
 5624TIP3    H238288   1.364   3.505   1.165  0.2889  0.0858 -0.7205
 5625TIP3   OH238289   1.085   4.649  16.968  0.2118  0.2434  0.3146
 5625TIP3    H138290   1.080   4.637  17.063 -2.8793 -1.9170  0.0181
 5625TIP3    H238291   1.152   4.588  16.940 -0.2579 -0.5829  0.9491
 5626TIP3   OH238292   6.564   2.530  13.235  0.0419 -0.3775  0.5113
 5626TIP3    H138293   6.653   2.504  13.210  0.1782  0.4046  0.1678
 5626TIP3    H238294   6.532   2.456  13.287 -0.0845 -1.8454 -1.5399
 5627TIP3   OH238295   4.484   5.150  17.053  0.2446 -0.0597  0.6182
 5627TIP3    H138296   4.396   5.113  17.057  0.7580 -1.2480  1.2233
 5627TIP3    H238297   4.469   5.244  17.040 -1.0812 -0.4440 -1.1059
 5628TIP3   OH238298   0.292   2.790   4.277  0.8779 -0.1363  0.4854
 5628TIP3    H138299   0.318   2.741   4.199  0.7495  0.4401  0.0746
 5628TIP3    H238300   0.353   2.863   4.281 -0.5159  1.1342 -0.3873
 5629TIP3   OH238301   0.123   5.960  13.178 -0.3188  0.2271 -0.2727
 5629TIP3    H138302   0.087   5.881  13.138 -1.2596  0.7032 -0.3773
 5629TIP3    H238303   0.047   6.009  13.208  0.2456  1.1911 -0.3725
 5630TIP3   OH238304   4.862   5.520   3.457  0.6487 -0.2124 -0.0584
 5630TIP3    H138305   4.831   5.571   3.382 -0.5176 -1.0462 -0.1697
 5630TIP3    H238306   4.892   5.586   3.519 -0.0803  0.5841 -0.5177
 5631TIP3   OH238307   6.219   0.360   4.311  0.3534 -0.3665  0.0360
 5631TIP3    H138308   6.259   0.275   4.330 -1.6508 -1.5796 -0.9758
 5631TIP3    H238309   6.164   0.378   4.387 -0.6680 -0.8839 -0.5724
 5632TIP3   OH238310   6.726   1.164   2.487  0.9889 -0.4767 -0.3639
 5632TIP3    H138311   6.631   1.153   2.480  0.6408  2.0651 -0.4559
 5632TIP3    H238312   6.752   1.204   2.404  1.7746  0.8009  0.4636
 5633TIP3   OH238313   4.762   5.182   4.016  0.0056 -0.6365 -0.6892
 5633TIP3    H138314   4.743   5.274   4.000  2.4710 -0.1527 -1.1985
 5633TIP3    H238315   4.795   5.179   4.106 -2.6335 -1.5124  0.3343
 5634TIP3   OH238316   6.328   6.740  13.623  0.2052 -0.0135 -0.6518
 5634TIP3    H138317   6.276   6.819  13.630 -0.8752 -0.5302 -2.2769
 5634TIP3    H238318   6.270   6.670  13.655  0.3248 -0.4416 -1.3582
 5635TIP3   OH238319   2.146   2.738  11.274 -0.6768  0.6581  0.1388
 5635TIP3    H138320   2.070   2.781  11.313 -2.3194 -2.2081  0.3914
 5635TIP3    H238321   2.133   2.745  11.180 -1.1161  0.4305  0.1825
 5636TIP3   OH238322   0.465   3.400   0.713  0.0900 -0.0864  0.1939
 5636TIP3    H138323   0.415   3.422   0.792 -1.0010  0.9396 -0.7430
 5636TIP3    H238324   0.537   3.464   0.712  0.2519 -0.2592  0.4701
 5637TIP3   OH238325   0.393   6.500   5.901 -0.4129  0.0135  0.1437
 5637TIP3    H138326   0.306   6.462   5.912 -0.9650  1.3301  0.5688
 5637TIP3    H238327   0.393   6.537   5.813 -0.0606 -0.4899 -0.0755
 5638TIP3   OH238328   2.498   4.001   1.737 -0.3359 -0.4877  0.2696
 5638TIP3    H138329   2.491   3.943   1.661 -1.9902 -0.1548  0.1367
 5638TIP3    H238330   2.472   3.947   1.811 -1.7687  0.0307  0.1616
 5639TIP3   OH238331   0.902   3.672  11.698 -0.3396 -0.3087 -0.4698
 5639TIP3    H138332   0.814   3.679  11.735 -0.5523  3.0057 -1.3230
 5639TIP3    H238333   0.948   3.748  11.731  0.6115  0.7698 -3.8859
 5640TIP3   OH238334   4.568   6.437   5.828  0.5522  0.2216  0.4099
 5640TIP3    H138335   4.506   6.505   5.855  0.0786 -0.3862  0.8953
 5640TIP3    H238336   4.514   6.371   5.784  1.1951  0.7764 -1.2799
 5641TIP3   OH238337   3.951   5.994  16.265 -0.4619  0.2041  0.3997
 5641TIP3    H138338   4.029   5.984  16.319  0.1246  1.6213 -0.1314
 5641TIP3    H238339   3.961   6.080  16.224 -2.5299  0.6198  0.6658
 5642TIP3   OH238340   3.454   6.519   0.243 -0.5387  0.0846  0.2749
 5642TIP3    H138341   3.506   6.504   0.322 -0.6598 -0.9061  0.1731
 5642TIP3    H238342   3.496   6.466   0.176  0.3234  1.8748 -0.6757
 5643TIP3   OH238343   0.356   2.073   0.463  0.1435  0.2676  0.1525
 5643TIP3    H138344   0.377   2.039   0.376  1.1719  1.5448 -0.1409
 5643TIP3    H238345   0.262   2.091   0.460 -0.2503 -1.6482  0.0373
 5644TIP3   OH238346   1.226   6.677  15.798 -0.2343 -0.4857  0.2499
 5644TIP3    H138347   1.215   6.642  15.709 -0.0537  1.5322 -0.6270
 5644TIP3    H238348   1.140   6.712  15.820  0.2100  0.8183  0.0113
 5645TIP3   OH238349   3.763   3.264   2.781 -0.3573 -0.1663 -0.0419
 5645TIP3    H138350   3.764   3.170   2.802  3.1382 -0.6357 -1.5751
 5645TIP3    H238351   3.675   3.292   2.803 -0.9560 -3.3450  2.4448
 5646TIP3   OH238352   2.241   5.071   6.073  0.3369  0.1139  0.0926
 5646TIP3    H138353   2.239   5.073   5.977  0.5430 -0.2389  0.0759
 5646TIP3    H238354   2.149   5.061   6.098  0.3040 -0.0199 -0.0767
 5647TIP3   OH238355   2.001   2.372   3.223  0.5469  0.0116 -0.2887
 5647TIP3    H138356   2.038   2.293   3.263 -0.2762  0.2994  1.1149
 5647TIP3    H238357   1.957   2.342   3.144 -2.2451 -1.4750  1.6619
 5648TIP3   OH238358   1.864   5.678  15.738 -0.2874 -0.0526 -0.4009
 5648TIP3    H138359   1.904   5.612  15.681  1.6546  0.5702  0.1710
 5648TIP3    H238360   1.869   5.759  15.688 -0.4516  0.1142 -0.1488
 5649TIP3   OH238361   6.385   4.500   6.529  0.2283  0.3281 -0.4473
 5649TIP3    H138362   6.339   4.577   6.495 -0.7380 -0.5082 -1.0981
 5649TIP3    H238363   6.316   4.436   6.545  0.7825  0.2270  1.9480
 5650TIP3   OH238364   5.195   1.661  14.951  0.6446  0.0458 -0.1664
 5650TIP3    H138365   5.163   1.599  14.886  0.5777  0.7204 -0.7845
 5650TIP3    H238366   5.160   1.746  14.924  2.9412  0.8465 -0.9178
 5651TIP3   OH238367   0.474   2.449   0.742  0.5996  0.6251  0.4018
 5651TIP3    H138368   0.409   2.436   0.673  1.1902  1.1064 -0.2474
 5651TIP3    H238369   0.537   2.510   0.705  1.1461  0.5707  1.2217
 5652TIP3   OH238370   4.029   2.567   6.437  0.4631  0.3196 -0.6828
 5652TIP3    H138371   3.939   2.537   6.424  0.5369 -0.7238  0.9056
 5652TIP3    H238372   4.082   2.487   6.436  0.8552  0.4382  2.2324
 5653TIP3   OH238373   1.582   3.148   3.207  0.3396 -0.0825 -0.6483
 5653TIP3    H138374   1.574   3.232   3.161  1.5214 -0.5011 -1.6702
 5653TIP3    H238375   1.501   3.142   3.259 -0.2231  1.2202 -1.3058
 5654TIP3   OH238376   5.573   1.856  10.744  0.2333  0.4023 -0.5584
 5654TIP3    H138377   5.646   1.919  10.745 -2.1005  3.3411 -0.5821
 5654TIP3    H238378   5.527   1.875  10.662 -1.3420 -0.3668  0.1208
 5655TIP3   OH238379   2.990   3.715   2.214  0.0543  0.1369  0.5194
 5655TIP3    H138380   3.024   3.803   2.233  0.7288 -0.0238  0.0868
 5655TIP3    H238381   3.052   3.656   2.257  1.8436 -0.2527 -2.3420
 5656TIP3   OH238382   3.962   2.929   2.771 -0.3741 -0.2576  0.3033
 5656TIP3    H138383   4.017   2.918   2.849 -0.3425 -4.1406 -0.0343
 5656TIP3    H238384   3.878   2.961   2.805 -0.6237 -2.6195  2.1758
 5657TIP3   OH238385   5.444   5.500  14.937  0.5650  0.1396  0.0889
 5657TIP3    H138386   5.440   5.462  14.849 -0.7088  0.5925 -0.0679
 5657TIP3    H238387   5.476   5.589  14.923 -0.9261  0.6630 -0.0844
 5658TIP3   OH238388   4.894   3.970   4.431  0.2621 -0.3365  0.0178
 5658TIP3    H138389   4.940   4.024   4.496 -0.0630  0.8184 -0.6691
 5658TIP3    H238390   4.821   3.931   4.479  0.4251 -0.0468  0.5073
 5659TIP3   OH238391   3.239   2.879  12.381  0.3344  0.0160 -0.2117
 5659TIP3    H138392   3.224   2.940  12.309 -0.1824  2.2966  1.7259
 5659TIP3    H238393   3.221   2.793  12.343 -0.2918  1.1545 -2.6849
 5660TIP3   OH238394   1.705   6.107  13.202 -0.3120  0.2325 -0.3587
 5660TIP3    H138395   1.741   6.095  13.114 -0.8015  0.4786 -0.5990
 5660TIP3    H238396   1.622   6.059  13.200  0.6402 -1.5612  0.6330
 5661TIP3   OH238397   1.533   0.948  16.833 -0.1153  0.4101  0.6207
 5661TIP3    H138398   1.462   1.012  16.830 -0.3324  0.1895  0.9369
 5661TIP3    H238399   1.556   0.942  16.926 -0.4562 -0.3589  0.6633
 5662TIP3   OH238400   3.146   4.501  15.856 -0.0153 -0.2361 -0.1175
 5662TIP3    H138401   3.115   4.584  15.818  0.5283 -0.7027 -1.6613
 5662TIP3    H238402   3.093   4.434  15.813  1.3281 -0.8622 -0.8586
 5663TIP3   OH238403   3.994   4.641   4.638  0.3712 -0.6811 -0.0134
 5663TIP3    H138404   4.089   4.647   4.642  0.2925  0.2262  0.9783
 5663TIP3    H238405   3.968   4.614   4.726 -0.3584  0.5855  0.1953
 5664TIP3   OH238406   5.505   2.319  12.441 -0.4277 -0.1939  0.5078
 5664TIP3    H138407   5.506   2.414  12.445  0.4659 -0.1541 -0.4410
 5664TIP3    H238408   5.414   2.296  12.421 -0.3309  0.5355 -0.8429
 5665TIP3   OH238409   1.943   2.815   3.781 -0.2691 -0.7690 -0.3420
 5665TIP3    H138410   1.947   2.900   3.737  0.3619 -0.3448  0.4990
 5665TIP3    H238411   1.944   2.751   3.710 -3.9451 -0.0860 -1.1888
 5666TIP3   OH238412   0.898   5.453   1.277 -0.1946 -0.4902  0.0512
 5666TIP3    H138413   0.951   5.381   1.311 -1.6594 -0.9057  1.5731
 5666TIP3    H238414   0.935   5.471   1.191  2.4397 -0.7192  1.0299
 5667TIP3   OH238415   1.029   0.721  13.999 -0.0261 -0.0024 -0.8461
 5667TIP3    H138416   0.972   0.750  14.071  0.5093 -0.8556 -0.0599
 5667TIP3    H238417   1.066   0.802  13.964 -1.2039  0.5162 -0.9425
 5668TIP3   OH238418   3.064   2.535   0.072  0.2106 -0.4666 -0.1894
 5668TIP3    H138419   2.982   2.567   0.111 -0.0195  0.3340 -1.2862
 5668TIP3    H238420   3.036   2.489  -0.007  0.7374 -1.3214  0.1117
 5669TIP3   OH238421   4.071   2.853   4.782 -0.2933 -0.4923  0.2095
 5669TIP3    H138422   4.049   2.887   4.868  0.9891 -1.6349  1.0213
 5669TIP3    H238423   3.998   2.795   4.759 -1.9055  1.7366 -0.6635
 5670TIP3   OH238424   6.443   3.845   2.975 -0.2566 -0.2814 -0.4227
 5670TIP3    H138425   6.393   3.773   2.938 -1.1716  0.9411 -1.6811
 5670TIP3    H238426   6.405   3.858   3.062 -0.6697 -0.7545 -0.5279
 5671TIP3   OH238427   5.843   6.724   4.848 -0.5039 -0.4534 -0.3895
 5671TIP3    H138428   5.820   6.732   4.941 -0.8573 -0.1779 -0.4938
 5671TIP3    H238429   5.930   6.686   4.848 -0.7294 -0.9817  0.0456
 5672TIP3   OH238430   0.075   2.000  14.793  0.1770 -0.1311 -0.0758
 5672TIP3    H138431   0.080   2.081  14.742 -0.0372  0.6926  1.1548
 5672TIP3    H238432   0.031   2.026  14.874 -0.0412 -1.5258  0.2822
 5673TIP3   OH238433   6.276   6.360  16.763  0.3838  0.4047  0.6768
 5673TIP3    H138434   6.195   6.322  16.729 -0.0115  1.1416  0.7712
 5673TIP3    H238435   6.281   6.447  16.723  0.3409  0.9666  1.8326
 5674TIP3   OH238436   4.604   0.110   6.276 -0.7109  0.0043 -0.6600
 5674TIP3    H138437   4.660   0.103   6.199 -1.3377 -0.1989 -1.1061
 5674TIP3    H238438   4.545   0.183   6.256 -0.2469  0.5757  0.0406
 5675TIP3   OH238439   1.726   0.100   1.958  0.0272 -0.3753  0.0949
 5675TIP3    H138440   1.636   0.103   1.925 -0.3241 -2.4538  0.6995
 5675TIP3    H238441   1.734   0.178   2.013 -0.9215  0.5921 -1.0974
 5676TIP3   OH238442   0.599   4.595   3.000 -0.4904 -0.6972 -0.9549
 5676TIP3    H138443   0.665   4.658   3.029 -0.0273 -1.3848 -0.4884
 5676TIP3    H238444   0.517   4.644   3.003  0.1429  0.5889 -2.8498
 5677TIP3   OH238445   0.371   0.953   1.381  0.4899  0.1481 -0.0029
 5677TIP3    H138446   0.397   0.960   1.472  0.9354  0.6558 -0.1679
 5677TIP3    H238447   0.320   1.032   1.364 -1.5587 -1.0057  0.4274
 5678TIP3   OH238448   2.091   1.974  12.292 -0.2532 -0.1701  0.0040
 5678TIP3    H138449   2.042   1.930  12.222  0.2658 -1.8121  0.6071
 5678TIP3    H238450   2.060   1.931  12.372  2.8022 -2.0370  0.3450
 5679TIP3   OH238451   2.684   3.666  14.230 -0.1464 -0.3230 -0.4808
 5679TIP3    H138452   2.771   3.699  14.207 -0.3598  0.4427 -0.1982
 5679TIP3    H238453   2.681   3.578  14.193  0.6901 -0.2897 -0.6331
 5680TIP3   OH238454   4.355   5.787  13.031 -0.1661  0.0821  0.3002
 5680TIP3    H138455   4.447   5.771  13.013 -0.2463  0.1643 -0.2339
 5680TIP3    H238456   4.354   5.868  13.081  0.1107 -0.4769  1.2197
 5681TIP3   OH238457   3.525   1.142  12.434  0.0650  0.0655  0.2921
 5681TIP3    H138458   3.605   1.102  12.466  0.0803  0.1539  0.3636
 5681TIP3    H238459   3.521   1.118  12.341  0.2522  0.1882  0.2513
 5682TIP3   OH238460   4.184   4.274   1.617  0.1624  0.0115  0.3935
 5682TIP3    H138461   4.264   4.324   1.634 -0.8412  1.4959  0.9395
 5682TIP3    H238462   4.148   4.257   1.705  0.3156 -1.4569  0.2097
 5683TIP3   OH238463   0.014   3.280   1.214 -0.4978 -0.4376  0.6003
 5683TIP3    H138464  -0.006   3.317   1.128  1.0225 -0.9664 -0.0132
 5683TIP3    H238465  -0.045   3.326   1.274 -0.4925  1.0732 -0.4970
 5684TIP3   OH238466   0.770   3.229   4.259  0.6859  0.1622  0.2022
 5684TIP3    H138467   0.804   3.141   4.274  2.2632  0.9326  1.5094
 5684TIP3    H238468   0.845   3.279   4.229 -0.2465  1.0237 -0.7615
 5685TIP3   OH238469   5.199   0.795   4.872 -0.4815 -0.1147 -0.0534
 5685TIP3    H138470   5.271   0.740   4.839 -1.6113 -0.8947 -1.3094
 5685TIP3    H238471   5.241   0.879   4.892  0.8216 -0.6057 -0.5692
 5686TIP3   OH238472   0.091   1.505  10.776  0.3291  0.1420 -0.2302
 5686TIP3    H138473   0.065   1.564  10.847 -0.9760 -0.3133 -0.3149
 5686TIP3    H238474   0.158   1.554  10.728  1.4914  0.3311  1.4950
 5687TIP3   OH238475   3.558   2.501   1.553  0.0088  0.1928  0.0655
 5687TIP3    H138476   3.509   2.572   1.595 -0.7525  0.8458 -1.8117
 5687TIP3    H238477   3.511   2.486   1.470  1.2475 -1.2377 -0.4067
 5688TIP3   OH238478   2.377   1.592   2.990  0.0759 -0.2680 -0.2532
 5688TIP3    H138479   2.358   1.675   2.947 -2.5054 -0.2256  0.7666
 5688TIP3    H238480   2.377   1.528   2.919  1.4773  0.4804 -0.9663
 5689TIP3   OH238481   4.267   6.332  15.298  0.1261 -0.4648 -0.4516
 5689TIP3    H138482   4.291   6.374  15.381  0.0203 -1.3709  0.0407
 5689TIP3    H238483   4.331   6.366  15.235  0.4197 -0.0414  0.0635
 5690TIP3   OH238484   1.051   6.680   1.854  0.1025  0.6837 -0.5255
 5690TIP3    H138485   0.989   6.610   1.834  0.1203  0.1721  1.0345
 5690TIP3    H238486   1.059   6.730   1.773 -2.2372  0.6764 -0.8189
 5691TIP3   OH238487   5.423   6.370   3.853  0.0740 -0.1961  0.3995
 5691TIP3    H138488   5.466   6.366   3.938  0.0400  1.9534  0.5779
 5691TIP3    H238489   5.351   6.307   3.859  0.6883 -0.8121  1.5702
 5692TIP3   OH238490   1.101   6.087   0.094  0.0568  0.1797  0.6494
 5692TIP3    H138491   1.137   6.066   0.008 -1.8497 -3.2097  0.4902
 5692TIP3    H238492   1.128   6.014   0.150 -1.7904  0.3935  1.9226
 5693TIP3   OH238493   5.439   1.329  16.764  0.3782 -0.0203 -0.1528
 5693TIP3    H138494   5.458   1.313  16.856 -1.0801 -1.2056 -0.0240
 5693TIP3    H238495   5.512   1.290  16.716  1.3959  1.0434  0.4937
 5694TIP3   OH238496   2.656   4.259   0.259 -0.0955  0.2062  0.1516
 5694TIP3    H138497   2.633   4.347   0.230  1.5012  0.5756 -0.0938
 5694TIP3    H238498   2.663   4.266   0.354 -0.5938  0.1783  0.1930
 5695TIP3   OH238499   1.943   3.207   4.751  0.4608  0.3533 -0.0974
 5695TIP3    H138500   1.906   3.184   4.665 -0.3494 -0.6033  0.4845
 5695TIP3    H238501   1.997   3.131   4.774  1.8736  1.2237 -0.3858
 5696TIP3   OH238502   5.109   0.814   2.192  0.2121 -0.0045 -0.1264
 5696TIP3    H138503   5.049   0.740   2.191 -0.7092  0.7228 -0.9319
 5696TIP3    H238504   5.111   0.842   2.284  0.6522 -1.0763  0.1980
 5697TIP3   OH238505   3.544   1.821  12.391  0.4312 -0.1632 -1.0410
 5697TIP3    H138506   3.507   1.906  12.414 -0.0347 -0.1903 -1.6795
 5697TIP3    H238507   3.491   1.790  12.317 -0.1565 -1.5389 -0.0841
 5698TIP3   OH238508   2.857   5.741   1.636  0.0569 -0.2404 -0.1528
 5698TIP3    H138509   2.780   5.776   1.681  0.6951  1.6978 -0.4697
 5698TIP3    H238510   2.894   5.679   1.698  0.3564  1.6296  1.6574
 5699TIP3   OH238511   3.806   4.258   4.976  0.5501  0.9983  0.0588
 5699TIP3    H138512   3.749   4.183   4.957 -0.5933  2.4479 -2.9084
 5699TIP3    H238513   3.856   4.231   5.053  0.3821 -2.8874 -0.9638
 5700TIP3   OH238514   0.158   5.125  13.802  0.6606  0.5305  0.2123
 5700TIP3    H138515   0.145   5.128  13.707  1.3567 -0.8332  0.0561
 5700TIP3    H238516   0.094   5.187  13.837  0.0600  0.6840 -1.1077
 5701TIP3   OH238517   1.813   2.265   4.569  0.3437 -0.4044  0.4872
 5701TIP3    H138518   1.749   2.201   4.539  1.3028 -2.2816  2.2089
 5701TIP3    H238519   1.854   2.297   4.489  1.4307 -3.6980 -0.4166
 5702TIP3   OH238520   1.025   1.226   3.019 -0.4190  0.8535  0.1005
 5702TIP3    H138521   1.113   1.192   3.004 -0.9228  0.1166 -1.3462
 5702TIP3    H238522   1.009   1.209   3.112 -0.3738 -2.3947 -0.3548
 5703TIP3   OH238523   3.960   4.191   5.203  0.3566  0.0741  0.4707
 5703TIP3    H138524   4.017   4.216   5.275  0.0162 -0.3718  0.8945
 5703TIP3    H238525   3.986   4.102   5.181  1.2011  0.5616 -0.6889
 5704TIP3   OH238526   6.152   4.417  13.233 -0.2520 -0.1914 -0.2363
 5704TIP3    H138527   6.200   4.479  13.177  0.1397  0.7693  1.1035
 5704TIP3    H238528   6.220   4.358  13.267 -0.5546 -1.0652 -1.1065
 5705TIP3   OH238529   0.440   2.857  13.997  0.2819  0.2166  0.0434
 5705TIP3    H138530   0.450   2.939  13.949 -1.1348  0.5988  0.3818
 5705TIP3    H238531   0.346   2.848  14.011  0.0557 -2.8264 -2.3456
 5706TIP3   OH238532   1.134   2.736  13.847 -0.0493  0.0308 -0.1610
 5706TIP3    H138533   1.057   2.726  13.903  0.0324  1.2404  0.1843
 5706TIP3    H238534   1.118   2.817  13.799  1.4579  0.8383  0.6442
 5707TIP3   OH238535   1.455   4.018  12.521  0.5909  0.7708 -0.0698
 5707TIP3    H138536   1.537   3.994  12.563  0.0344 -0.5013  0.3563
 5707TIP3    H238537   1.388   4.002  12.588 -0.1366  0.3517 -0.8701
 5708TIP3   OH238538   4.558   0.159  11.784 -0.4186  0.6407 -0.3123
 5708TIP3    H138539   4.634   0.198  11.827 -0.6911  0.8370 -0.0076
 5708TIP3    H238540   4.594   0.084  11.736 -0.3300 -0.5487  1.5067
 5709TIP3   OH238541   6.139   0.473   3.796  0.1909  1.1307  0.9733
 5709TIP3    H138542   6.118   0.472   3.889  0.2082 -0.5631  0.9772
 5709TIP3    H238543   6.228   0.508   3.792 -0.6918  3.6248  1.3502
 5710TIP3   OH238544   0.410   2.470  13.989  0.5213  0.2255 -0.0913
 5710TIP3    H138545   0.382   2.388  13.948  0.8837  0.7972 -1.5363
 5710TIP3    H238546   0.446   2.443  14.073 -0.3713 -0.9722 -0.0559
 5711TIP3   OH238547   1.568   5.165   5.621  0.4118  0.4414 -0.5617
 5711TIP3    H138548   1.600   5.147   5.709  2.9067 -1.7472 -1.7455
 5711TIP3    H238549   1.505   5.095   5.604  0.3503  0.5297 -0.6976
 5712TIP3   OH238550   4.309   3.383   1.591 -0.1433  0.3129  0.5740
 5712TIP3    H138551   4.239   3.323   1.615 -1.1438  1.1577 -0.1722
 5712TIP3    H238552   4.377   3.327   1.553 -1.2941 -0.3057 -0.6362
 5713TIP3   OH238553   0.550   5.915   0.355 -0.2562 -0.1682 -0.4818
 5713TIP3    H138554   0.548   5.823   0.326 -0.0321 -0.0454 -0.9023
 5713TIP3    H238555   0.643   5.938   0.355 -0.3819  0.3870 -1.4587
 5714TIP3   OH238556   2.027   2.506  16.342 -0.2243  0.1899  0.1799
 5714TIP3    H138557   2.089   2.574  16.319 -0.9170  1.0101  0.6569
 5714TIP3    H238558   2.080   2.436  16.380  0.4559  0.6204  0.0279
 5715TIP3   OH238559   3.166   3.839  15.973 -0.0110  0.5299  0.3197
 5715TIP3    H138560   3.112   3.774  15.928  2.9467 -0.6314 -1.9273
 5715TIP3    H238561   3.126   3.849  16.059 -2.5881 -1.6675 -0.4936
 5716TIP3   OH238562   3.772   2.009   2.450 -0.0929  0.5173  0.0709
 5716TIP3    H138563   3.719   2.085   2.427 -1.4452  0.5213  2.7788
 5716TIP3    H238564   3.732   1.975   2.530  1.1761 -2.3696 -0.3872
 5717TIP3   OH238565   5.935   1.067  14.554  0.5819  0.5771 -0.3734
 5717TIP3    H138566   5.937   1.149  14.505 -0.5968  0.0541 -1.3469
 5717TIP3    H238567   6.027   1.049  14.574  0.8329  2.3125  0.2072
 5718TIP3   OH238568   6.611   6.265  12.694 -0.2305  0.2461 -0.4878
 5718TIP3    H138569   6.516   6.271  12.702 -0.2347  0.5263 -0.7398
 5718TIP3    H238570   6.644   6.304  12.775 -0.3113  1.2676 -0.9254
 5719TIP3   OH238571   3.189   2.626   3.272  0.5058 -0.3320 -0.2092
 5719TIP3    H138572   3.123   2.619   3.202 -0.1833  0.0272  0.3891
 5719TIP3    H238573   3.221   2.537   3.283  1.2225 -0.2757 -1.5292
 5720TIP3   OH238574   5.915   1.617   5.763  0.4930  0.2287  0.7117
 5720TIP3    H138575   5.958   1.588   5.682  0.0424 -2.2427  1.2920
 5720TIP3    H238576   5.864   1.694   5.737  0.8369 -0.1469 -1.2154
 5721TIP3   OH238577   5.509   3.017  11.692  0.2625  0.4329 -0.2727
 5721TIP3    H138578   5.604   3.012  11.680  0.1910 -0.2738 -0.5907
 5721TIP3    H238579   5.473   2.972  11.616 -0.3493  1.4509 -0.5947
 5722TIP3   OH238580   0.617   0.694  17.216 -0.0757  0.0058 -0.1230
 5722TIP3    H138581   0.693   0.744  17.246 -0.5203 -0.6141  2.2787
 5722TIP3    H238582   0.545   0.757  17.217 -0.2489 -0.1798  1.0311
 5723TIP3   OH238583   4.474   2.990  11.892  0.0471 -0.4121  0.3943
 5723TIP3    H138584   4.535   2.926  11.928 -0.6290 -1.6471 -0.5775
 5723TIP3    H238585   4.519   3.074  11.901  1.1029 -1.0517  1.3815
 5724TIP3   OH238586   4.420   2.757   3.826 -0.1179 -0.1797 -0.2960
 5724TIP3    H138587   4.432   2.716   3.912 -2.3279  0.0639  0.1975
 5724TIP3    H238588   4.484   2.827   3.823 -0.7473  0.5492  1.6780
 5725TIP3   OH238589   3.120   5.600   3.498  0.0395  0.3437 -0.1297
 5725TIP3    H138590   3.189   5.550   3.541 -0.0197  0.0403 -0.3817
 5725TIP3    H238591   3.162   5.638   3.421 -0.0404  0.2562 -0.2182
 5726TIP3   OH238592   2.483   5.114   5.123  0.2457 -0.2444  0.3729
 5726TIP3    H138593   2.575   5.128   5.101  0.4729 -0.2369  1.2610
 5726TIP3    H238594   2.438   5.191   5.089 -0.2005 -2.1706 -4.0208
 5727TIP3   OH238595   5.275   2.070   5.499  0.3763 -0.2255 -0.4182
 5727TIP3    H138596   5.297   2.003   5.563  0.4915 -0.9478 -1.1925
 5727TIP3    H238597   5.355   2.121   5.487  1.5397 -2.3471 -2.6388
 5728TIP3   OH238598   2.566   6.513  15.735  0.2118 -1.1942  0.2286
 5728TIP3    H138599   2.577   6.468  15.651  1.7445  0.8574 -0.7756
 5728TIP3    H238600   2.648   6.561  15.747 -0.6037 -0.1711  2.1164
 5729TIP3   OH238601   2.240   0.300  12.115 -0.1172  0.1290  0.4876
 5729TIP3    H138602   2.184   0.280  12.040 -0.4915  0.2239  0.7405
 5729TIP3    H238603   2.328   0.273  12.087 -0.5945 -1.9795  0.8548
 5730TIP3   OH238604   4.977   3.124   5.248 -0.0708  0.4326 -0.9080
 5730TIP3    H138605   4.912   3.059   5.222  1.2005 -0.6002 -1.6160
 5730TIP3    H238606   5.005   3.164   5.166  0.8680  0.1871 -0.7125
 5731TIP3   OH238607   3.039   2.551   3.038 -0.4842  0.8624 -0.1547
 5731TIP3    H138608   2.962   2.519   2.990 -0.8927  0.2220  0.9014
 5731TIP3    H238609   3.092   2.474   3.053  0.2111  1.2486 -0.5587
 5732TIP3   OH238610   2.619   4.908   3.019 -0.0708  0.0229 -0.3679
 5732TIP3    H138611   2.590   4.888   2.930 -0.8685  1.8691 -0.5522
 5732TIP3    H238612   2.547   4.957   3.058  1.0041  0.8158  0.6989
 5733TIP3   OH238613   2.992   3.858  10.901  0.0691 -0.5107  0.2572
 5733TIP3    H138614   3.076   3.901  10.888 -0.1300 -0.3352 -0.4996
 5733TIP3    H238615   2.998   3.820  10.988  0.3585  0.7963  0.8287
 5734TIP3   OH238616   0.825   3.554  15.646 -0.3337 -0.0746 -0.2290
 5734TIP3    H138617   0.800   3.536  15.737  0.1665 -1.1411 -0.2891
 5734TIP3    H238618   0.920   3.570  15.650 -0.1107 -1.1848 -0.6923
 5735TIP3   OH238619   0.499   3.208  11.265  0.2623 -0.1852 -0.6415
 5735TIP3    H138620   0.529   3.192  11.176  0.7396  0.5643 -0.6215
 5735TIP3    H238621   0.528   3.297  11.285  2.5318 -1.2482  1.2211
 5736TIP3   OH238622   0.891   0.430   0.905 -0.3679 -0.2498 -0.2597
 5736TIP3    H138623   0.808   0.429   0.953 -0.2070  0.7752  0.0640
 5736TIP3    H238624   0.866   0.451   0.815 -0.5335 -0.8072 -0.3508
 5737TIP3   OH238625   1.815   1.147  13.297 -0.5311  0.0353 -0.2433
 5737TIP3    H138626   1.865   1.081  13.249  0.3631  1.2052 -0.9893
 5737TIP3    H238627   1.776   1.202  13.229  0.4177  1.4763  0.3231
 5738TIP3   OH238628   5.820   4.007   2.383  0.1188  0.2232 -0.1427
 5738TIP3    H138629   5.804   4.101   2.385 -1.6341 -0.0292  0.1404
 5738TIP3    H238630   5.825   3.982   2.476  0.1474 -0.0133 -0.2072
 5739TIP3   OH238631   6.753   4.295  11.458  0.0458 -0.3501 -0.1542
 5739TIP3    H138632   6.689   4.346  11.408  0.0643 -0.1587  0.0194
 5739TIP3    H238633   6.838   4.323  11.424  0.1392  0.9786  1.1059
 5740TIP3   OH238634   1.160   6.128  15.624  0.2409  0.1266  0.6259
 5740TIP3    H138635   1.081   6.079  15.649 -1.0199  1.8478  0.2660
 5740TIP3    H238636   1.221   6.062  15.594 -1.5455 -1.2004 -0.2916
 5741TIP3   OH238637   1.314   0.522  15.383  0.0257  0.5548  0.3293
 5741TIP3    H138638   1.330   0.517  15.477 -2.5790  0.2868  0.8442
 5741TIP3    H238639   1.377   0.463  15.344 -0.0970 -0.8265  2.1076
 5742TIP3   OH238640   4.254   1.241  12.651  0.2639 -0.4141 -0.2719
 5742TIP3    H138641   4.199   1.311  12.616  1.6249  0.8186 -0.0106
 5742TIP3    H238642   4.283   1.273  12.736  0.0523 -1.7763  0.3483
 5743TIP3   OH238643   1.320   2.167   2.020  0.4730  0.0430  0.4419
 5743TIP3    H138644   1.287   2.143   2.106 -0.2016 -2.4429 -0.3954
 5743TIP3    H238645   1.246   2.207   1.975  0.2386 -0.4306  0.4011
 5744TIP3   OH238646   4.103   0.152  14.887 -0.1224 -0.7423 -0.2049
 5744TIP3    H138647   4.145   0.134  14.803  1.5602 -0.2306  0.4968
 5744TIP3    H238648   4.173   0.183  14.944 -1.0373 -1.8711  1.6683
 5745TIP3   OH238649   0.906   5.168   5.075  0.2652 -0.0208  0.3868
 5745TIP3    H138650   0.893   5.128   5.161  2.0589  0.9168  1.1255
 5745TIP3    H238651   0.817   5.189   5.045 -0.3158  1.3477  2.8452
 5746TIP3   OH238652   4.205   1.591   3.692  0.5041  0.2147 -0.2350
 5746TIP3    H138653   4.121   1.562   3.656  0.1809  1.9556 -0.9870
 5746TIP3    H238654   4.271   1.554   3.633  0.2588 -0.8622  0.1531
 5747TIP3   OH238655   6.113   3.561   2.216  0.3765 -0.0402  0.1960
 5747TIP3    H138656   6.166   3.596   2.144  0.1950 -0.3223 -0.0777
 5747TIP3    H238657   6.040   3.517   2.173 -0.5559  1.0710  0.5968
 5748TIP3   OH238658   1.756   6.684  13.639  0.5315 -0.4631  0.1584
 5748TIP3    H138659   1.771   6.589  13.634  0.7604 -0.3708 -1.0987
 5748TIP3    H238660   1.662   6.694  13.623  0.5005 -0.4811  0.3302
 5749TIP3   OH238661   2.428   6.201   3.609  0.0981  0.3822  0.6795
 5749TIP3    H138662   2.382   6.121   3.581 -0.1522  0.1830  1.6181
 5749TIP3    H238663   2.473   6.231   3.530  0.4116 -0.8382  0.3585
 5750TIP3   OH238664   4.888   5.749  13.625  0.1833 -0.3251 -0.1056
 5750TIP3    H138665   4.967   5.773  13.576 -0.7467 -0.0746 -1.5452
 5750TIP3    H238666   4.886   5.810  13.698  1.0998 -0.0638 -0.2775
 5751TIP3   OH238667   3.065   4.008   4.645  0.6194  0.6651 -0.5078
 5751TIP3    H138668   3.024   3.931   4.607  0.1961  0.9491 -0.6384
 5751TIP3    H238669   3.011   4.030   4.721  1.8731 -0.3264  0.7225
 5752TIP3   OH238670   2.633   1.549   2.176  0.5821 -0.0669 -0.4110
 5752TIP3    H138671   2.647   1.541   2.081  2.5371 -2.1391 -0.0471
 5752TIP3    H238672   2.693   1.484   2.214  0.3654  1.2024  2.2980
 5753TIP3   OH238673   5.202   5.570   1.108 -0.5274  0.7799  0.5143
 5753TIP3    H138674   5.254   5.490   1.115 -1.0445  0.5221  1.7007
 5753TIP3    H238675   5.234   5.625   1.179 -0.9030  1.1960  0.3634
 5754TIP3   OH238676   4.579   6.556   0.219  0.4913  0.6997  0.2541
 5754TIP3    H138677   4.547   6.474   0.258  0.8687 -0.4387 -1.6629
 5754TIP3    H238678   4.632   6.527   0.145  1.9424  2.6708  0.4465
 5755TIP3   OH238679   1.201   2.778  16.007  0.1147 -0.0673  0.1170
 5755TIP3    H138680   1.243   2.819  15.931  0.1776 -0.6147 -0.1545
 5755TIP3    H238681   1.264   2.789  16.078  1.3738 -2.0574 -0.5980
 5756TIP3   OH238682   5.887   2.610   2.928 -0.3248 -0.1160  0.1334
 5756TIP3    H138683   5.837   2.649   2.856  1.0983 -0.1588 -0.9017
 5756TIP3    H238684   5.826   2.548   2.968 -2.3406  2.3637  1.2009
 5757TIP3   OH238685   1.350   0.466  12.512 -0.0654 -0.4544  0.4413
 5757TIP3    H138686   1.279   0.528  12.530  0.7000  0.2996  0.9798
 5757TIP3    H238687   1.417   0.519  12.468 -0.5122 -1.5288 -1.6341
 5758TIP3   OH238688   6.446   3.674  14.751  0.6634  0.0419 -0.0508
 5758TIP3    H138689   6.352   3.656  14.760 -0.3377  2.7783 -2.8753
 5758TIP3    H238690   6.459   3.756  14.799  0.7701  1.3311 -2.1119
 5759TIP3   OH238691   4.504   0.573   2.903  0.2178  0.1106 -0.6472
 5759TIP3    H138692   4.599   0.585   2.899  0.2647  0.4621  0.8368
 5759TIP3    H238693   4.486   0.561   2.996 -1.3747  1.5476 -0.7324
 5760TIP3   OH238694   0.879   3.323   3.719  0.3646  0.0391 -0.1572
 5760TIP3    H138695   0.906   3.253   3.778  0.6719  0.1145 -0.2049
 5760TIP3    H238696   0.808   3.286   3.668 -0.1523  0.0835  0.5073
 5761TIP3   OH238697   4.294   0.796  14.700 -0.2072  0.1008  0.1129
 5761TIP3    H138698   4.203   0.824  14.711 -0.4569 -1.3253  2.4083
 5761TIP3    H238699   4.303   0.722  14.760  2.5936  0.4723  0.2795
 5762TIP3   OH238700   6.418   4.570   1.767 -0.0780  0.1749  0.0385
 5762TIP3    H138701   6.478   4.625   1.818  0.0029 -0.9263  1.1510
 5762TIP3    H238702   6.435   4.595   1.676  0.0048  1.9347  0.5035
 5763TIP3   OH238703   2.297   3.381   1.481  0.0051 -0.2482 -0.1175
 5763TIP3    H138704   2.244   3.332   1.418  1.5600 -1.7755 -0.3054
 5763TIP3    H238705   2.300   3.325   1.558  1.3280 -0.1963 -0.1160
 5764TIP3   OH238706   0.541   4.342   5.352  0.1156  0.0612  0.3218
 5764TIP3    H138707   0.558   4.377   5.440 -0.8127  1.9021 -0.1938
 5764TIP3    H238708   0.473   4.277   5.365  0.4304 -0.1369  1.0419
 5765TIP3   OH238709   6.418   0.446   4.950 -0.2333  0.1565  0.1732
 5765TIP3    H138710   6.459   0.373   4.996 -2.8179 -1.6685 -0.1814
 5765TIP3    H238711   6.399   0.510   5.019 -0.1473 -0.6049  0.9155
 5766TIP3   OH238712   4.242   4.942   3.458  0.2296  0.3251  0.1617
 5766TIP3    H138713   4.190   5.015   3.491  2.0529  1.3520  0.8961
 5766TIP3    H238714   4.331   4.975   3.456  0.9257 -1.4752 -0.7712
 5767TIP3   OH238715   3.853   5.179  13.516 -0.5437  0.4687 -0.5340
 5767TIP3    H138716   3.828   5.130  13.438  0.4589 -1.6438  0.3767
 5767TIP3    H238717   3.779   5.165  13.577 -0.6717  0.8726 -0.5983
 5768TIP3   OH238718   5.744   4.052   5.288 -0.4903  0.1910  0.2098
 5768TIP3    H138719   5.803   3.978   5.302 -0.3762  0.1223 -0.6188
 5768TIP3    H238720   5.687   4.051   5.365 -1.0782 -1.3061 -0.2083
 5769TIP3   OH238721   1.508   5.027  16.401  0.0108  0.1432 -0.5220
 5769TIP3    H138722   1.559   5.075  16.336  3.0656  0.1304  1.6528
 5769TIP3    H238723   1.512   5.081  16.480 -0.5314 -1.4435  0.6420
 5770TIP3   OH238724   1.980   6.101   5.027 -0.8723  0.0405  0.2359
 5770TIP3    H138725   1.996   6.167   4.959 -1.1519  0.7441  0.8389
 5770TIP3    H238726   2.047   6.118   5.093  0.2067 -1.4582 -0.4251
 5771TIP3   OH238727   1.590   1.683   0.431  0.0623 -0.5621  0.3389
 5771TIP3    H138728   1.593   1.767   0.386  0.3365  0.0337  1.4420
 5771TIP3    H238729   1.532   1.698   0.506  2.3306 -0.4912  2.2028
 5772TIP3   OH238730   6.750   3.320   1.687  0.3274  0.0939 -0.3242
 5772TIP3    H138731   6.820   3.254   1.693 -1.0011 -1.5845 -1.9105
 5772TIP3    H238732   6.744   3.357   1.775  3.3789  0.5457 -0.2143
 5773TIP3   OH238733   4.663   4.761   5.776  0.8672  0.5052  0.2419
 5773TIP3    H138734   4.746   4.715   5.787  1.2859  1.0530 -0.5503
 5773TIP3    H238735   4.679   4.824   5.706 -0.3891  0.2288 -0.3201
 5774TIP3   OH238736   2.155   1.601   1.425  0.2723 -0.0444 -0.4751
 5774TIP3    H138737   2.207   1.522   1.438 -0.9640 -0.5381  1.9053
 5774TIP3    H238738   2.215   1.661   1.379  2.0362 -1.4983 -0.1921
 5775TIP3   OH238739   0.618   1.953   2.157  0.1226  0.1444 -0.0300
 5775TIP3    H138740   0.561   1.992   2.092  0.2215  1.1152  0.4460
 5775TIP3    H238741   0.610   1.859   2.143  0.0684  0.3248 -1.3690
 5776TIP3   OH238742   3.736   0.798   4.661 -0.1208  0.2573  0.0899
 5776TIP3    H138743   3.661   0.761   4.614 -0.7340  1.2047  0.2771
 5776TIP3    H238744   3.811   0.748   4.630 -0.5659  0.5214 -1.5352
 5777TIP3   OH238745   6.362   4.149  15.826  0.2678  0.0997  0.3964
 5777TIP3    H138746   6.413   4.211  15.775  0.1363  0.8926  1.2042
 5777TIP3    H238747   6.271   4.165  15.800 -0.0250  1.9501  2.3139
 5778TIP3   OH238748   2.330   4.173  10.957 -0.1774 -0.0365 -0.3361
 5778TIP3    H138749   2.388   4.210  10.890  0.7396 -0.1853  0.3600
 5778TIP3    H238750   2.250   4.225  10.950  0.8282  1.6685  0.1499
 5779TIP3   OH238751   5.488   3.085   3.769 -0.4382 -0.3490 -0.1544
 5779TIP3    H138752   5.528   3.014   3.719 -0.2618  0.7626 -1.6437
 5779TIP3    H238753   5.555   3.154   3.772 -1.3570  0.5995 -0.6263
 5780TIP3   OH238754   3.069   0.599  13.465  0.0525 -0.2025  0.0164
 5780TIP3    H138755   3.137   0.608  13.532 -0.8489  1.1750  0.8150
 5780TIP3    H238756   3.115   0.612  13.382  0.8893 -0.0301  0.4953
 5781TIP3   OH238757   5.774   4.855   2.038  0.2624 -0.0168 -0.0137
 5781TIP3    H138758   5.839   4.910   1.994  0.0015 -0.5041 -1.0316
 5781TIP3    H238759   5.818   4.771   2.049 -1.0733 -1.3191 -3.3747
 5782TIP3   OH238760   6.315   2.288  16.680  0.6152  0.0621 -0.2769
 5782TIP3    H138761   6.396   2.337  16.662 -0.1584  0.4575 -3.2390
 5782TIP3    H238762   6.292   2.248  16.596 -2.0335 -0.4254  0.5909
 5783TIP3   OH238763   1.743   3.863   1.030  0.0979 -0.4522  0.3028
 5783TIP3    H138764   1.709   3.784   0.988 -1.6214  0.3260  0.1409
 5783TIP3    H238765   1.671   3.893   1.086  0.6206  1.1430  0.1690
 5784TIP3   OH238766   4.532   0.570  11.802 -0.5908 -0.2839 -0.2627
 5784TIP3    H138767   4.593   0.637  11.771  0.1296 -0.9370 -0.2736
 5784TIP3    H238768   4.572   0.536  11.882 -2.0723  0.8761  1.0609
 5785TIP3   OH238769   2.070   3.601  16.423 -0.4332 -0.4520  0.0221
 5785TIP3    H138770   2.057   3.510  16.450  1.0995 -0.7508 -0.1170
 5785TIP3    H238771   2.082   3.596  16.328  0.5980 -0.2603  0.1243
 5786TIP3   OH238772   2.335   2.096  10.897 -0.0739  0.3803  0.2793
 5786TIP3    H138773   2.320   2.104  10.803 -2.0229 -2.0928  0.2794
 5786TIP3    H238774   2.396   2.022  10.904 -1.2679 -0.5750  0.9664
 5787TIP3   OH238775   6.413   6.670   6.237  0.4313 -0.1369 -0.2484
 5787TIP3    H138776   6.328   6.711   6.221  1.6325  2.3044 -0.7430
 5787TIP3    H238777   6.404   6.629   6.324 -0.8551  1.1853  0.2707
 5788TIP3   OH238778   3.270   0.332   5.782  0.5317 -0.6390  0.0061
 5788TIP3    H138779   3.244   0.270   5.713  1.2988 -0.7293 -0.2072
 5788TIP3    H238780   3.188   0.377   5.804  0.1801 -0.9339 -0.6349
 5789TIP3   OH238781   1.025   1.669  14.337  0.0227  0.0558  0.5390
 5789TIP3    H138782   0.991   1.754  14.309 -1.8056 -0.6162  0.6215
 5789TIP3    H238783   1.112   1.689  14.373 -0.8635  2.0717  1.7341
 5790TIP3   OH238784   0.621   1.776  15.009  0.3211  0.4301  0.4259
 5790TIP3    H138785   0.678   1.803  15.082  0.5202 -0.1391  0.4850
 5790TIP3    H238786   0.544   1.740  15.051  0.3775  0.2243  0.3506
 5791TIP3   OH238787   3.699   4.545  16.767  0.3286  0.0652  0.2396
 5791TIP3    H138788   3.652   4.532  16.850 -1.5199 -2.5755 -1.0865
 5791TIP3    H238789   3.676   4.469  16.714  1.9869  1.3171 -2.4966
 5792TIP3   OH238790   0.705   5.620   0.828  0.2044  0.3633  0.1509
 5792TIP3    H138791   0.689   5.629   0.734  1.3274 -0.9276 -0.1999
 5792TIP3    H238792   0.733   5.530   0.838  2.5231  1.1514  1.3562
 5793TIP3   OH238793   0.749   5.013  17.193 -0.2956 -0.2499  0.2336
 5793TIP3    H138794   0.661   4.975  17.188  0.3139 -1.7605  0.4198
 5793TIP3    H238795   0.804   4.942  17.226  0.8567  0.9262  0.9570
 5794TIP3   OH238796   0.073   6.195   3.873 -0.6658 -0.4941  0.3341
 5794TIP3    H138797   0.159   6.152   3.871  0.6449  1.9549  0.3465
 5794TIP3    H238798   0.058   6.213   3.966 -0.7773 -0.1365  0.2466
 5795TIP3   OH238799   1.188   4.452   2.087 -0.4272 -0.1349  0.4810
 5795TIP3    H138800   1.104   4.477   2.049 -1.3111 -2.5756  0.6904
 5795TIP3    H238801   1.252   4.468   2.018 -1.4359 -0.6993 -0.6122
 5796TIP3   OH238802   6.368   6.718   0.230 -0.1792 -0.1575  0.4652
 5796TIP3    H138803   6.389   6.685   0.317  2.6241  2.3073  0.8756
 5796TIP3    H238804   6.404   6.652   0.170  2.1228  0.3041  1.2419
 5797TIP3   OH238805   6.018   0.807   1.942  0.3655 -0.1274  0.0678
 5797TIP3    H138806   6.076   0.756   1.885 -1.1353 -0.0612 -1.5786
 5797TIP3    H238807   5.974   0.868   1.883  0.5066  1.6250  1.6750
 5798TIP3   OH238808   3.346   2.546  13.159  0.2435  0.3640  0.1795
 5798TIP3    H138809   3.273   2.484  13.163  0.7424 -0.1819  1.1824
 5798TIP3    H238810   3.306   2.629  13.136 -0.6283 -0.0285  0.2286
 5799TIP3   OH238811   2.917   4.886  13.348 -0.1960  0.1776  0.3872
 5799TIP3    H138812   2.854   4.925  13.288  0.5626  0.1120 -0.4644
 5799TIP3    H238813   3.003   4.916  13.316  0.2086  0.4815  1.6747
 5800TIP3   OH238814   5.783   4.649   5.000  0.0177 -0.0739 -0.1820
 5800TIP3    H138815   5.853   4.591   5.029  1.4614  2.4873  1.8273
 5800TIP3    H238816   5.782   4.639   4.904  0.7467 -2.6712  0.0099
 5801TIP3   OH238817   3.995   0.355   2.263  0.3889 -0.5470  0.4338
 5801TIP3    H138818   4.024   0.430   2.213  1.3176  0.3806  2.2877
 5801TIP3    H238819   4.042   0.281   2.225  2.2637  0.3586  0.9059
 5802TIP3   OH238820   0.367   4.237   4.364  0.0708  0.0235  0.2539
 5802TIP3    H138821   0.368   4.328   4.394 -0.3398 -0.0326  0.4495
 5802TIP3    H238822   0.336   4.241   4.274 -0.3423  0.0416  0.3963
 5803TIP3   OH238823   5.256   4.260  13.884 -0.1863 -0.3111  0.4944
 5803TIP3    H138824   5.246   4.265  13.789 -1.4409  2.1452  0.6803
 5803TIP3    H238825   5.182   4.207  13.913 -0.2840 -0.3581  0.1656
 5804TIP3   OH238826   3.728   3.347   4.030 -0.2249 -0.5508 -0.1650
 5804TIP3    H138827   3.696   3.338   3.940  2.8222 -1.6557 -1.2935
 5804TIP3    H238828   3.817   3.380   4.020  0.0899 -0.3664  2.5004
 5805TIP3   OH238829   5.666   3.196   4.391 -0.2041  0.0206  0.2859
 5805TIP3    H138830   5.698   3.134   4.325 -0.0546  0.1186  0.2681
 5805TIP3    H238831   5.723   3.272   4.383 -0.1556  0.0121  0.5651
 5806TIP3   OH238832   0.268   0.713   0.423  0.1503 -0.5995  0.2289
 5806TIP3    H138833   0.296   0.674   0.340 -1.4908 -1.6242  0.1025
 5806TIP3    H238834   0.321   0.792   0.432  0.3802 -0.4643 -1.7869
 5807TIP3   OH238835   3.209   4.501  14.685 -0.0946  0.4765  0.1365
 5807TIP3    H138836   3.286   4.453  14.717 -0.3617  0.3006  0.5355
 5807TIP3    H238837   3.212   4.584  14.732 -0.9358 -0.1072  1.2610
 5808TIP3   OH238838   2.481   3.682  14.671 -0.0082  0.4209  0.2019
 5808TIP3    H138839   2.453   3.608  14.725  0.9814  0.1486  0.3604
 5808TIP3    H238840   2.497   3.644  14.585 -0.6342  0.6754 -0.0334
 5809TIP3   OH238841   1.308   1.151   0.936 -0.4120  0.3837 -0.0698
 5809TIP3    H138842   1.294   1.058   0.952 -0.5788  0.4050 -0.0933
 5809TIP3    H238843   1.312   1.190   1.023  0.1954  0.2757 -0.0467
 5810TIP3   OH238844   0.980   5.227   3.533  0.1598 -0.2950 -0.7560
 5810TIP3    H138845   0.930   5.151   3.563 -0.1645  0.5505  0.9909
 5810TIP3    H238846   1.065   5.218   3.575  0.0662  0.3760 -0.4118
 5811TIP3   OH238847   4.903   4.940  14.589  0.3094  0.6350  0.1998
 5811TIP3    H138848   4.942   4.853  14.600  2.0973  1.3719  0.0374
 5811TIP3    H238849   4.890   4.972  14.678 -2.9741 -0.8050  0.3972
 5812TIP3   OH238850   5.159   5.518   0.846 -0.2944 -0.5097 -0.4353
 5812TIP3    H138851   5.175   5.582   0.777  0.0465 -0.8151 -0.6450
 5812TIP3    H238852   5.186   5.562   0.926  0.7127 -0.6598 -0.6679
 5813TIP3   OH238853   1.894   0.771   1.588 -0.0836 -0.1890  0.5364
 5813TIP3    H138854   1.934   0.848   1.548  0.9487 -0.9059  0.1593
 5813TIP3    H238855   1.800   0.781   1.569 -0.3097  2.0499  2.3431
 5814TIP3   OH238856   1.121   5.261  14.517 -0.4979 -0.1086 -0.8675
 5814TIP3    H138857   1.127   5.276  14.611  2.6970 -0.8180 -0.8459
 5814TIP3    H238858   1.104   5.167  14.509 -3.6481  0.3925 -1.0727
 5815TIP3   OH238859   1.869   0.236   1.086 -0.7010 -0.0166 -0.4153
 5815TIP3    H138860   1.913   0.250   1.002 -0.8468 -1.3986 -0.7382
 5815TIP3    H238861   1.854   0.325   1.119  0.2509  0.5352 -1.3717
 5816TIP3   OH238862   0.465   1.372  15.995  0.3677 -0.4541  0.2997
 5816TIP3    H138863   0.552   1.411  15.993  0.1400  0.1155  1.0848
 5816TIP3    H238864   0.407   1.443  16.021  0.0186 -1.4191  2.4008
 5817TIP3   OH238865   6.673   5.223  14.562  0.2141 -0.2248 -0.9762
 5817TIP3    H138866   6.750   5.166  14.557  1.0746  0.6920  0.5768
 5817TIP3    H238867   6.690   5.292  14.498  0.6737 -0.0540 -0.6753
 5818TIP3   OH238868   4.839   1.690  12.683  0.4219  0.0324 -0.9334
 5818TIP3    H138869   4.890   1.610  12.683 -0.5933 -0.7663  2.5255
 5818TIP3    H238870   4.895   1.755  12.726 -0.1415  0.1283 -0.3330
 5819TIP3   OH238871   1.745   5.595   4.837 -0.4148  0.2119  0.0128
 5819TIP3    H138872   1.791   5.585   4.753 -0.2019  1.1164  0.0068
 5819TIP3    H238873   1.782   5.675   4.874  0.4078 -0.8498  1.5623
 5820TIP3   OH238874   4.843   4.055   4.126 -0.0718 -0.0435  0.6054
 5820TIP3    H138875   4.855   4.022   4.215 -0.8142  0.6001  0.9515
 5820TIP3    H238876   4.930   4.084   4.100  0.2542 -0.7121  0.9199
 5821TIP3   OH238877   6.442   5.997  15.251  0.1365 -0.6983  0.5810
 5821TIP3    H138878   6.424   6.087  15.279  0.6612 -0.7175  1.0086
 5821TIP3    H238879   6.388   5.943  15.309  0.8233 -0.7138  1.2198
 5822TIP3   OH238880   2.981   1.493   1.895  0.0382 -0.1185  0.3327
 5822TIP3    H138881   2.994   1.470   1.803  0.2503 -2.2329  0.8425
 5822TIP3    H238882   2.978   1.409   1.940 -0.3176  0.8727  2.2387
 5823TIP3   OH238883   1.087   0.616  10.507 -0.1921 -0.4978 -0.1228
 5823TIP3    H138884   0.995   0.606  10.532  0.0003  0.8408  1.2914
 5823TIP3    H238885   1.127   0.532  10.529 -0.7086 -0.4459  1.1032
 5824TIP3   OH238886   4.500   4.017   0.096 -0.0465 -0.1113 -0.2766
 5824TIP3    H138887   4.443   4.089   0.123  0.5895 -0.1068  1.1267
 5824TIP3    H238888   4.494   3.953   0.167  1.4195 -0.2677 -0.2616
 5825TIP3   OH238889   5.479   3.629  11.236  0.2271 -0.0277  0.5522
 5825TIP3    H138890   5.560   3.677  11.222 -0.2211  0.2991 -1.1686
 5825TIP3    H238891   5.503   3.537  11.222  0.6834 -0.1506  1.9831
 5826TIP3   OH238892   3.733   2.761   3.250  0.1147 -0.1034  0.4382
 5826TIP3    H138893   3.765   2.672   3.235 -1.5065 -0.7618  0.6730
 5826TIP3    H238894   3.809   2.810   3.281  1.1771 -1.2449 -0.3216
 5827TIP3   OH238895   4.155   1.269   2.410  0.1090 -0.5490  0.7749
 5827TIP3    H138896   4.159   1.352   2.363 -0.0299 -1.6456 -1.2494
 5827TIP3    H238897   4.062   1.246   2.410  0.2105 -0.9625  0.8716
 5828TIP3   OH238898   4.021   3.933  14.101  0.3832 -0.3687  0.8009
 5828TIP3    H138899   3.972   4.001  14.146 -0.0994 -1.3372  1.7849
 5828TIP3    H238900   4.104   3.927  14.150  0.1333 -0.9586  1.1661
 5829TIP3   OH238901   1.070   0.820  15.454  0.0351  0.6256 -0.2772
 5829TIP3    H138902   1.005   0.887  15.436 -0.2217  0.2769 -0.6681
 5829TIP3    H238903   1.150   0.868  15.475 -0.1652  1.0485 -0.4872
 5830TIP3   OH238904   2.736   1.507  14.591  0.0807 -0.3269  0.0448
 5830TIP3    H138905   2.651   1.533  14.628  0.9290  0.0381  1.8259
 5830TIP3    H238906   2.743   1.414  14.612 -1.3166 -1.2982 -3.1088
 5831TIP3   OH238907   5.076   0.026  14.023  0.7328 -0.0966  0.0001
 5831TIP3    H138908   5.061   0.120  14.015  1.3371 -0.0015 -0.0734
 5831TIP3    H238909   5.001  -0.014  13.979  1.5416  0.3644 -1.8630
 5832TIP3   OH238910   2.056   0.544  15.667 -0.0906 -0.5163  0.1011
 5832TIP3    H138911   2.064   0.477  15.735  4.1481  0.7466  1.1549
 5832TIP3    H238912   2.078   0.499  15.585 -0.7617 -1.1077  0.2405
 5833TIP3   OH238913   4.865   3.466  14.371  0.0218 -0.1140 -0.0731
 5833TIP3    H138914   4.914   3.430  14.298  0.3689  2.3593 -1.1662
 5833TIP3    H238915   4.775   3.475  14.338  0.2059  1.1348 -0.2823
 5834TIP3   OH238916   0.946   6.457  15.355  0.8174  0.3235 -0.3703
 5834TIP3    H138917   0.994   6.495  15.429  0.6173  0.0277 -0.0873
 5834TIP3    H238918   0.901   6.381  15.392  1.3238 -0.2837 -0.9572
 5835TIP3   OH238919   1.562   3.631  14.282  0.2672  1.0539 -0.4311
 5835TIP3    H138920   1.568   3.554  14.227 -0.9911  1.7198 -1.5423
 5835TIP3    H238921   1.598   3.702  14.229  0.6111  1.4051  0.2520
 5836TIP3   OH238922   5.112   1.588  16.905 -0.2818  0.2326 -0.2591
 5836TIP3    H138923   5.186   1.607  16.848 -0.4994  0.8496 -0.3380
 5836TIP3    H238924   5.094   1.495  16.890  0.8639 -0.0943  0.2162
 5837TIP3   OH238925   3.370   2.379   2.737  0.1811 -0.3572  0.0496
 5837TIP3    H138926   3.284   2.341   2.719  0.4900 -0.7473 -0.6268
 5837TIP3    H238927   3.424   2.353   2.663  0.1256  2.4004 -1.0962
 5838TIP3   OH238928   2.315   5.420  14.888 -0.6388 -0.7016  0.2332
 5838TIP3    H138929   2.331   5.385  14.976 -2.8220  0.1731  1.0442
 5838TIP3    H238930   2.371   5.498  14.883  2.5467 -2.8191 -0.7626
 5839TIP3   OH238931   6.717   5.994  11.975  0.0587  0.5800  0.1738
 5839TIP3    H138932   6.715   5.901  11.953  1.5305  0.1170  1.7411
 5839TIP3    H238933   6.730   6.039  11.892 -1.0644 -0.5688 -0.6572
 5840TIP3   OH238934   5.031   2.276   6.310 -0.3704 -0.1252  0.3704
 5840TIP3    H138935   5.045   2.363   6.348  1.4944  0.0768 -0.6327
 5840TIP3    H238936   4.989   2.225   6.379  1.3817  0.6835  2.1310
 5841TIP3   OH238937   3.815   0.551   4.342  0.1399 -0.0427  0.0419
 5841TIP3    H138938   3.726   0.518   4.341  0.0568  0.1221  1.0216
 5841TIP3    H238939   3.825   0.593   4.428  0.5525  1.5941 -0.7596
 5842TIP3   OH238940   4.056   6.655   1.727 -0.4312 -0.3689 -0.2767
 5842TIP3    H138941   4.088   6.632   1.640 -0.6832 -0.8937 -0.2310
 5842TIP3    H238942   4.120   6.616   1.787  1.4720  2.4866 -0.2239
 5843TIP3   OH238943   2.463   6.125  14.188 -0.1451  0.2585 -0.2316
 5843TIP3    H138944   2.544   6.085  14.157 -0.0142  0.1976  0.1885
 5843TIP3    H238945   2.482   6.152  14.277 -1.4426 -2.3315  0.9305
 5844TIP3   OH238946   2.361   0.245   2.802 -0.4379 -0.0159  0.3238
 5844TIP3    H138947   2.446   0.256   2.760 -0.3283  3.1978  1.1329
 5844TIP3    H238948   2.377   0.183   2.873  0.7587 -0.8725 -0.6463
 5845TIP3   OH238949   1.505   2.604   6.169  0.0119 -0.4076 -0.3700
 5845TIP3    H138950   1.555   2.552   6.232 -1.4335 -0.5447  0.7264
 5845TIP3    H238951   1.571   2.658   6.125  1.1478 -0.7696  0.8162
 5846TIP3   OH238952   1.204   3.009   0.970 -0.6743 -0.3902 -0.3562
 5846TIP3    H138953   1.247   3.037   1.050  0.7553 -0.2833 -1.1305
 5846TIP3    H238954   1.276   2.986   0.910 -1.7180 -1.8135 -1.1341
 5847TIP3   OH238955   2.038   5.197  14.527 -0.1248 -0.6196  0.0337
 5847TIP3    H138956   2.009   5.273  14.476 -2.2696 -0.6598  1.0811
 5847TIP3    H238957   2.127   5.180  14.496 -0.5561  0.6658 -2.1301
 5848TIP3   OH238958   4.814   2.981   1.934  0.1524  0.3715 -0.0861
 5848TIP3    H138959   4.772   2.896   1.928  1.0253 -0.1169  0.4244
 5848TIP3    H238960   4.846   2.999   1.845 -0.9042  0.6534 -0.4273
 5849TIP3   OH238961   4.335   5.395  14.036  0.3264  0.3423  0.3671
 5849TIP3    H138962   4.336   5.435  14.124  0.4999  0.7169  0.1976
 5849TIP3    H238963   4.349   5.469  13.977 -1.7794  0.4112 -0.1104
 5850TIP3   OH238964   4.525   5.257   5.037 -0.1714 -0.3430  0.1387
 5850TIP3    H138965   4.498   5.298   4.954 -0.5812 -1.5687 -0.3585
 5850TIP3    H238966   4.444   5.246   5.086 -0.1047 -0.8034  0.1482
 5851TIP3   OH238967   4.764   6.051  11.027  0.2002  0.6989  0.3911
 5851TIP3    H138968   4.704   6.047  11.102  0.4069  2.3187  0.6881
 5851TIP3    H238969   4.717   6.101  10.961 -0.1337 -1.0397 -0.7727
 5852TIP3   OH238970   5.941   4.731  12.349  0.2384 -0.0807  0.2164
 5852TIP3    H138971   5.905   4.675  12.417 -1.5433  2.0425  1.1223
 5852TIP3    H238972   6.010   4.780  12.392  0.0250  0.2951  0.1341
 5853TIP3   OH238973   0.385   1.628   4.583 -0.2854  0.3898 -0.0085
 5853TIP3    H138974   0.430   1.672   4.655 -0.8699  0.1490  0.5124
 5853TIP3    H238975   0.349   1.549   4.622 -0.1546 -0.0168 -0.6948
 5854TIP3   OH238976   0.666   3.625   2.717 -0.0238 -0.0314 -0.0423
 5854TIP3    H138977   0.639   3.717   2.716  0.4365  0.1066  0.0922
 5854TIP3    H238978   0.752   3.625   2.674 -0.6588 -0.6080 -1.3942
 5855TIP3   OH238979   5.822   0.995   0.531  0.0300 -0.0143 -0.2456
 5855TIP3    H138980   5.843   0.967   0.620  1.6300  1.5602 -0.0755
 5855TIP3    H238981   5.875   1.073   0.517 -0.5897  0.0868 -2.4123
 5856TIP3   OH238982   3.740   1.398   5.262  0.5852 -0.5360 -0.3528
 5856TIP3    H138983   3.830   1.416   5.235  0.4967 -1.2028 -1.1191
 5856TIP3    H238984   3.707   1.483   5.290  0.3433  0.5047 -3.4117
 5857TIP3   OH238985   2.315   0.330   2.292  0.0815  0.2850 -0.3856
 5857TIP3    H138986   2.248   0.387   2.254 -0.6856  0.7810  1.5655
 5857TIP3    H238987   2.277   0.302   2.376  1.9765 -0.0852  0.3908
 5858TIP3   OH238988   4.593   4.068   2.319 -0.1042  0.1815  0.0337
 5858TIP3    H138989   4.651   4.020   2.379 -1.8125 -1.3012  0.6118
 5858TIP3    H238990   4.627   4.157   2.319  1.9337 -0.5309  0.6145
 5859TIP3   OH238991   1.323   6.727  14.563 -0.0546  0.2421 -0.7964
 5859TIP3    H138992   1.270   6.712  14.642  1.3364  1.1186  0.3623
 5859TIP3    H238993   1.274   6.685  14.493 -0.5059 -2.1042  0.8100
 5860TIP3   OH238994   3.287   5.626  12.959  0.6610  0.2016  0.3450
 5860TIP3    H138995   3.245   5.579  12.887  3.4107 -0.7391 -0.7735
 5860TIP3    H238996   3.296   5.716  12.928  0.8057  0.0662 -0.0033
 5861TIP3   OH238997   0.703   3.501  10.997  0.7474  0.4743  0.4866
 5861TIP3    H138998   0.732   3.410  11.000 -0.9777 -0.1153  0.4096
 5861TIP3    H238999   0.684   3.518  10.905  2.2482  1.3597  0.2936
 5862TIP3   OH239000   2.602   4.573   2.389 -0.7379  0.1554 -0.4346
 5862TIP3    H139001   2.679   4.544   2.341 -0.1351  2.1375 -0.7773
 5862TIP3    H239002   2.550   4.494   2.402  0.1944 -0.8336 -2.3142
 5863TIP3   OH239003   3.365   4.530  16.732  0.0314 -0.8004  0.0355
 5863TIP3    H139004   3.314   4.479  16.794 -0.5079 -0.0720  0.1993
 5863TIP3    H239005   3.344   4.492  16.647  1.2545 -2.2118  0.3227
 5864TIP3   OH239006   0.258   2.749  10.981 -0.1049 -0.4228 -0.3561
 5864TIP3    H139007   0.202   2.826  10.985 -0.5507 -0.7721  0.2537
 5864TIP3    H239008   0.347   2.784  10.981 -0.3124  0.1151 -0.7816
 5865TIP3   OH239009   4.733   0.053  12.266 -0.2064  0.0863  0.4192
 5865TIP3    H139010   4.650   0.008  12.279 -0.2427  0.4546  1.6064
 5865TIP3    H239011   4.800  -0.014  12.280 -0.2877 -0.2924 -0.8856
 5866TIP3   OH239012   2.234   2.979   3.702 -0.5869 -0.2778  0.3204
 5866TIP3    H139013   2.150   2.999   3.662  0.0121 -0.7153 -1.2237
 5866TIP3    H239014   2.235   2.883   3.710 -1.0321 -0.1602  2.1991
 5867TIP3   OH239015   4.304   6.518  12.187 -0.4033 -0.0070  0.0186
 5867TIP3    H139016   4.223   6.551  12.146  0.3143 -1.1343 -2.4844
 5867TIP3    H239017   4.338   6.453  12.125  1.0758 -1.5040  2.2298
 5868TIP3   OH239018   1.319   3.818   5.360 -0.5222  0.3360  0.9630
 5868TIP3    H139019   1.339   3.829   5.453  2.6302 -1.8705  0.7039
 5868TIP3    H239020   1.286   3.728   5.353 -1.6155  0.7772  0.0058
 5869TIP3   OH239021   2.376   3.069   0.174  0.2698  0.1504 -0.1602
 5869TIP3    H139022   2.366   3.154   0.217 -1.6419  0.1657 -0.5599
 5869TIP3    H239023   2.403   3.090   0.085 -1.3700  0.4394 -0.6160
 5870TIP3   OH239024   1.084   4.404   2.647 -0.2595 -0.3023 -0.6701
 5870TIP3    H139025   1.171   4.419   2.610 -0.1286  0.7307  0.0349
 5870TIP3    H239026   1.075   4.308   2.648  1.5017 -0.4931  0.6514
 5871TIP3   OH239027   0.944   6.235  14.669  0.3061 -0.0911  0.2362
 5871TIP3    H139028   0.959   6.325  14.697 -1.1281  0.0330  0.7126
 5871TIP3    H239029   0.881   6.201  14.733  1.1480 -1.5741  0.3188
 5872TIP3   OH239030   1.198   4.183   4.728  0.7446  0.3381  0.1742
 5872TIP3    H139031   1.265   4.156   4.666 -0.7268 -0.1363 -1.2737
 5872TIP3    H239032   1.198   4.115   4.795  1.3606  0.0938 -0.0669
 5873TIP3   OH239033   0.183   2.443   6.500  0.1526  0.0279  0.0816
 5873TIP3    H139034   0.157   2.525   6.540  1.0299 -0.5995  2.0455
 5873TIP3    H239035   0.276   2.433   6.521  0.3588 -0.9040 -1.1351
 5874TIP3   OH239036   2.176   6.402  13.316  0.3023 -0.9149  0.3795
 5874TIP3    H139037   2.124   6.473  13.278  0.7617 -0.4676  0.5709
 5874TIP3    H239038   2.141   6.392  13.405  0.1751 -0.9930  0.3212
 5875TIP3   OH239039   0.023   4.589   1.535  0.2592  0.2365  0.3927
 5875TIP3    H139040  -0.036   4.562   1.465  1.7251  0.6933 -1.0972
 5875TIP3    H239041  -0.030   4.586   1.614 -1.4707 -0.2866 -0.7326
 5876TIP3   OH239042   1.388   5.245   0.921 -0.2082 -0.0429 -0.1190
 5876TIP3    H139043   1.315   5.298   0.955 -0.3946  0.2865 -1.0215
 5876TIP3    H239044   1.431   5.301   0.857 -0.7701 -1.1699 -1.5454
 5877TIP3   OH239045   2.895   6.450   2.257  0.4370 -0.4685  0.2242
 5877TIP3    H139046   2.910   6.449   2.163 -1.6788 -2.5415 -0.1877
 5877TIP3    H239047   2.825   6.386   2.271 -1.6795  2.0944  2.8086
 5878TIP3   OH239048   4.996   2.591  16.586 -0.1190 -0.2409 -0.2711
 5878TIP3    H139049   5.059   2.609  16.516 -0.4217  1.1956 -0.2090
 5878TIP3    H239050   5.019   2.653  16.655 -0.8990 -0.4658  0.2023
 5879TIP3   OH239051   0.169   3.013  10.874 -0.2791 -0.6521 -0.0692
 5879TIP3    H139052   0.202   2.970  10.795  1.6147  3.5023 -1.8540
 5879TIP3    H239053   0.246   3.058  10.910 -2.2385  2.3860  0.6565
 5880TIP3   OH239054   1.635   1.021   0.967 -0.2773  0.0119  0.1186
 5880TIP3    H139055   1.598   0.951   0.912  1.5995 -0.9943  0.0425
 5880TIP3    H239056   1.716   0.984   1.001 -0.0826  1.5740  1.4899
 5881TIP3   OH239057   6.349   5.896   3.807 -0.1193  0.6491 -0.3140
 5881TIP3    H139058   6.358   5.971   3.866 -1.7950  0.1973  0.5732
 5881TIP3    H239059   6.435   5.855   3.808 -0.0917  0.6092  1.9219
 5882TIP3   OH239060   0.829   5.324  15.027  0.7432 -0.1307  0.5041
 5882TIP3    H139061   0.747   5.299  14.984  1.4755  1.1216 -1.7745
 5882TIP3    H239062   0.810   5.408  15.068  1.3474  1.2202 -1.8060
 5883TIP3   OH239063   0.546   5.442   2.183  0.0060  0.1214 -0.3222
 5883TIP3    H139064   0.618   5.380   2.194  0.4634  0.8549  0.9915
 5883TIP3    H239065   0.543   5.459   2.089  0.5642 -1.0653 -0.5659
 5884TIP3   OH239066   3.642   4.555  11.872  0.0188  0.2210 -0.3547
 5884TIP3    H139067   3.614   4.499  11.799 -0.5917 -1.2467  0.9586
 5884TIP3    H239068   3.717   4.603  11.837  0.0575 -0.8142 -1.8031
 5885TIP3   OH239069   5.690   4.135   6.625 -0.1136  0.4027 -0.2575
 5885TIP3    H139070   5.716   4.198   6.691 -0.0811  0.7861 -0.6308
 5885TIP3    H239071   5.609   4.170   6.589 -0.8541 -0.4878  0.4982
 5886TIP3   OH239072   4.175   1.832  11.075  0.6182  0.3993  0.5384
 5886TIP3    H139073   4.171   1.771  11.148  2.1874  0.3876  0.6376
 5886TIP3    H239074   4.243   1.797  11.017 -0.8439  0.2009 -1.1517
 5887TIP3   OH239075   4.904   1.531   3.173 -0.0088 -0.2038  0.3171
 5887TIP3    H139076   4.971   1.484   3.123 -0.0933 -0.4890  0.4723
 5887TIP3    H239077   4.871   1.467   3.236 -1.2836 -0.4312 -0.5468
 5888TIP3   OH239078   3.218   3.899  11.293 -0.3877  0.2001 -0.6406
 5888TIP3    H139079   3.308   3.932  11.287 -0.0786 -0.2296  1.1627
 5888TIP3    H239080   3.164   3.977  11.305 -0.0253  0.3260  0.2407
 5889TIP3   OH239081   5.631   1.753  15.968 -0.2314  0.4805 -0.2641
 5889TIP3    H139082   5.704   1.745  15.907  1.2340  4.0979  0.7864
 5889TIP3    H239083   5.597   1.841  15.955 -1.3541  0.5607  2.4798
 5890TIP3   OH239084   3.335   0.364  12.726 -0.3311  0.2449 -1.0015
 5890TIP3    H139085   3.363   0.333  12.812  1.4074  0.4937 -1.4306
 5890TIP3    H239086   3.366   0.454  12.721  0.7567 -0.1509 -2.3300
 5891TIP3   OH239087   1.345   3.037   1.212 -0.2064  0.2915  0.1755
 5891TIP3    H139088   1.299   3.006   1.291 -0.6029 -1.6629 -0.7632
 5891TIP3    H239089   1.407   2.967   1.192 -0.1856  0.7127 -1.3008
 5892TIP3   OH239090   1.542   0.592  15.868 -0.4354 -0.2150  0.1617
 5892TIP3    H139091   1.479   0.608  15.799 -1.3701 -0.5757  0.9164
 5892TIP3    H239092   1.517   0.507  15.905 -1.0309  0.7088  2.0534
 5893TIP3   OH239093   2.782   6.054   4.629 -0.0135 -0.0719  0.2233
 5893TIP3    H139094   2.696   6.048   4.588  0.0211  1.1750 -0.0790
 5893TIP3    H239095   2.843   6.058   4.556  0.2035  0.2522  0.4204
 5894TIP3   OH239096   1.803   1.197  14.878 -0.5056  0.1142 -0.1365
 5894TIP3    H139097   1.868   1.218  14.945 -0.6810  0.4228 -0.0621
 5894TIP3    H239098   1.784   1.280  14.835 -0.4112 -0.0768 -0.5580
 5895TIP3   OH239099   5.225   6.120  11.323 -0.2502 -0.1193  0.2367
 5895TIP3    H139100   5.184   6.168  11.395 -0.8689 -0.2961  0.0115
 5895TIP3    H239101   5.183   6.155  11.244  0.5873  0.2420 -0.0623
 5896TIP3   OH239102   4.136   1.811   5.107  0.0150 -0.4236  0.6991
 5896TIP3    H139103   4.105   1.851   5.188  1.9171 -0.1816  1.3508
 5896TIP3    H239104   4.222   1.776   5.129  0.2069 -1.1087 -1.0055
 5897TIP3   OH239105   1.380   6.213  16.323  0.3366  0.0882 -0.2312
 5897TIP3    H139106   1.460   6.181  16.281  0.4213 -0.5951  0.4443
 5897TIP3    H239107   1.311   6.194  16.259  0.8275  1.6944 -1.3102
 5898TIP3   OH239108   3.286   0.598  13.649  0.0955 -0.0007  0.9227
 5898TIP3    H139109   3.335   0.523  13.616 -0.6643 -0.9298  1.8328
 5898TIP3    H239110   3.343   0.673  13.631  0.2466 -0.5897 -1.3090
 5899TIP3   OH239111   5.694   1.224  14.884 -0.0946 -0.3695  0.1754
 5899TIP3    H139112   5.748   1.146  14.876  1.6307  0.7051  0.8854
 5899TIP3    H239113   5.727   1.270  14.961 -0.5523  1.4277 -0.6227
 5900TIP3   OH239114   3.290   0.408  17.158 -0.1965 -0.2471 -0.1142
 5900TIP3    H139115   3.358   0.411  17.091  2.1300  0.5438  2.1177
 5900TIP3    H239116   3.310   0.330  17.210 -1.9567 -0.8599 -0.2718
 5901TIP3   OH239117   3.126   0.121  13.026 -0.1563  0.0412 -0.3794
 5901TIP3    H139118   3.117   0.106  13.120  1.0486 -0.4750 -0.3214
 5901TIP3    H239119   3.060   0.188  13.005 -3.0316 -2.4359  0.1160
 5902TIP3   OH239120   1.660   5.412   0.075  0.1673  0.2710  0.1138
 5902TIP3    H139121   1.571   5.380   0.084  0.4261 -0.3686  0.4628
 5902TIP3    H239122   1.709   5.368   0.144  0.7896  0.4835 -0.1804
 5903TIP3   OH239123   4.676   0.304  15.351  0.3244  0.1211  0.0447
 5903TIP3    H139124   4.625   0.231  15.315 -1.3478  1.4541 -0.4288
 5903TIP3    H239125   4.693   0.361  15.277  2.4646 -0.1894  0.2192
 5904TIP3   OH239126   1.301   5.538   0.548 -0.1800  0.1678  0.4374
 5904TIP3    H139127   1.358   5.496   0.484 -0.9368 -1.2677  0.6530
 5904TIP3    H239128   1.341   5.517   0.633  0.6618  1.8184  0.4847
 5905TIP3   OH239129   3.250   1.095  15.370  0.1340 -0.0428  0.9931
 5905TIP3    H139130   3.345   1.087  15.381  0.7120  2.6799 -0.8669
 5905TIP3    H239131   3.215   1.010  15.397  3.0252 -0.9719  2.2010
 5906TIP3   OH239132   3.377   6.654  15.241  0.2476 -0.1347 -0.3553
 5906TIP3    H139133   3.406   6.577  15.290  0.0267  1.2215  2.0643
 5906TIP3    H239134   3.457   6.705  15.226  0.0598  0.3914  0.3764
 5907TIP3   OH239135   6.112   5.941   4.140 -0.0897 -0.1303 -0.6437
 5907TIP3    H139136   6.135   5.848   4.146 -0.5571 -0.1685  0.8030
 5907TIP3    H239137   6.084   5.953   4.049 -1.7235 -1.8085 -0.4119
 5908TIP3   OH239138   1.026   4.676   2.569 -0.4933 -0.2922 -0.1423
 5908TIP3    H139139   1.117   4.678   2.599 -0.6139  0.0409  0.2138
 5908TIP3    H239140   1.000   4.584   2.576 -0.5216 -0.2270  0.8025
 5909TIP3   OH239141   4.100   2.478  13.002  0.6431 -0.0989  0.5662
 5909TIP3    H139142   4.031   2.545  12.996 -0.1665 -0.8612  1.1386
 5909TIP3    H239143   4.181   2.528  13.010  0.1784  0.8203 -0.2015
 5910TIP3   OH239144   3.214   2.203  14.732 -0.0495  0.5240  0.0178
 5910TIP3    H139145   3.162   2.275  14.767  0.0006  0.0671  1.0577
 5910TIP3    H239146   3.184   2.126  14.779  0.4156 -0.0222 -0.5580
 5911TIP3   OH239147   0.680   6.361   2.854 -0.0624  0.0491 -0.0755
 5911TIP3    H139148   0.754   6.418   2.836 -0.6332  0.5504 -0.8645
 5911TIP3    H239149   0.603   6.411   2.827 -0.5840 -1.0257 -0.6539
 5912TIP3   OH239150   2.697   6.423  11.831 -0.4807  0.8956  0.1440
 5912TIP3    H139151   2.692   6.510  11.792 -1.1078  1.0350  0.5223
 5912TIP3    H239152   2.759   6.433  11.903 -0.4323  0.9907  0.0888
 5913TIP3   OH239153   6.546   4.620  15.210  0.2085 -0.0541 -0.2583
 5913TIP3    H139154   6.629   4.597  15.252 -0.9092 -0.4388  1.8872
 5913TIP3    H239155   6.529   4.710  15.237  0.0658  0.1158 -0.9124
 5914TIP3   OH239156   2.741   6.576   2.477  0.4533 -0.4165  0.1606
 5914TIP3    H139157   2.800   6.638   2.519  0.2378  2.0843 -2.8911
 5914TIP3    H239158   2.796   6.531   2.413  0.2377 -2.3753  1.2613
 5915TIP3   OH239159   1.937   2.719  14.777  0.4591 -0.8354  0.3242
 5915TIP3    H139160   2.024   2.708  14.814  0.1613 -0.8376  1.0409
 5915TIP3    H239161   1.911   2.808  14.801  0.2979 -0.8001  0.0286
 5916TIP3   OH239162   3.457   4.341   5.055  0.0854  0.2551  0.0517
 5916TIP3    H139163   3.488   4.297   5.134 -0.7546 -0.1546  0.1705
 5916TIP3    H239164   3.529   4.398   5.029  0.5389  0.0689  0.8669
 5917TIP3   OH239165   2.804   6.750   5.170 -0.0877  0.4448  0.8994
 5917TIP3    H139166   2.883   6.717   5.212  0.5331  1.2557  0.3784
 5917TIP3    H239167   2.743   6.676   5.174  1.2245 -0.7589 -0.1571
 5918TIP3   OH239168   5.985   1.096  16.825 -0.7847 -0.1006 -0.3362
 5918TIP3    H139169   5.933   1.023  16.791  0.1080 -1.0094  0.2066
 5918TIP3    H239170   6.075   1.072  16.807 -0.5192  1.5700 -1.4865
 5919TIP3   OH239171   1.317   1.071   6.133 -0.3647 -0.2555 -0.0041
 5919TIP3    H139172   1.225   1.046   6.135 -0.2912 -1.3968 -4.0688
 5919TIP3    H239173   1.315   1.167   6.124 -1.2087 -0.3353 -0.8064
 5920TIP3   OH239174   5.290   3.473  11.677  0.0305 -0.2401 -0.4834
 5920TIP3    H139175   5.197   3.449  11.678  0.3529 -1.5792 -0.7490
 5920TIP3    H239176   5.296   3.543  11.613 -0.8900  0.2798 -0.0204
 5921TIP3   OH239177   2.327   6.762   5.833  0.0879  0.3349 -0.0702
 5921TIP3    H139178   2.406   6.790   5.880  2.1633  0.6189 -3.3914
 5921TIP3    H239179   2.282   6.843   5.812  0.8777  0.5033 -1.2251
 5922TIP3   OH239180   4.296   3.412   5.324 -0.5349 -0.0618 -0.0490
 5922TIP3    H139181   4.295   3.401   5.419 -0.0747 -1.9840 -0.2277
 5922TIP3    H239182   4.362   3.480   5.309 -0.2750 -0.0618  0.9705
 5923TIP3   OH239183   2.566   3.767   3.867  0.3412 -0.3471 -0.0718
 5923TIP3    H139184   2.581   3.728   3.781  1.4115 -1.0751  0.4240
 5923TIP3    H239185   2.643   3.743   3.919 -0.2651  0.1005  1.0881
 5924TIP3   OH239186   4.045   0.619   1.739  0.4861  0.0933 -0.6135
 5924TIP3    H139187   3.959   0.587   1.768  0.0392  1.1920 -0.6760
 5924TIP3    H239188   4.039   0.618   1.643  1.0122 -1.0085 -0.6597
 5925TIP3   OH239189   3.978   3.928  12.419  0.6864  0.0261 -0.2456
 5925TIP3    H139190   3.932   3.933  12.503 -1.6291  0.2776 -1.4307
 5925TIP3    H239191   4.070   3.917  12.442  0.2253  0.8652  2.3161
 5926TIP3   OH239192   4.717   1.715  14.705 -0.5397  0.3011 -0.3777
 5926TIP3    H139193   4.627   1.689  14.725 -0.0832 -0.6083  0.6225
 5926TIP3    H239194   4.757   1.732  14.790  0.4249  0.0437 -0.7600
 5927TIP3   OH239195   3.582   4.195  15.441 -0.5898 -0.3614 -0.5670
 5927TIP3    H139196   3.504   4.172  15.492  0.7820  0.5385  2.1656
 5927TIP3    H239197   3.638   4.242  15.503  2.2669 -1.2060 -2.3096
 5928TIP3   OH239198   4.963   2.646   4.544  0.3597  0.4029  0.0593
 5928TIP3    H139199   4.943   2.722   4.597 -0.0076  0.9048 -0.7741
 5928TIP3    H239200   4.886   2.590   4.550  1.0891 -0.4992  1.6335
 5929TIP3   OH239201   3.438   5.727  16.999 -0.1615 -0.3720  0.6449
 5929TIP3    H139202   3.486   5.729  16.916 -0.8854 -1.4375  0.1780
 5929TIP3    H239203   3.498   5.687  17.061  1.2127  2.3436  1.2534
 5930TIP3   OH239204   3.154   0.899  16.878  0.0638  0.5257 -0.4004
 5930TIP3    H139205   3.078   0.909  16.936 -0.9391  0.1031 -1.6059
 5930TIP3    H239206   3.197   0.820  16.910 -1.8125 -1.0971 -1.6081
 5931TIP3   OH239207   2.131   5.218  17.023  0.1475  0.2811  0.1367
 5931TIP3    H139208   2.092   5.142  16.979  0.8292 -0.5040  0.8400
 5931TIP3    H239209   2.063   5.248  17.084  0.0796 -0.1184  0.2610
 5932TIP3   OH239210   0.424   3.528   3.913  0.3258 -0.4091  0.1150
 5932TIP3    H139211   0.398   3.598   3.853  1.1874 -1.6463 -1.8364
 5932TIP3    H239212   0.357   3.460   3.901  1.3005 -1.2789 -0.6443
 5933TIP3   OH239213   1.697   0.658  16.997 -0.0181  0.3672  0.0348
 5933TIP3    H139214   1.754   0.708  16.938  1.9007 -1.8000 -0.0741
 5933TIP3    H239215   1.737   0.669  17.084  0.7440 -1.2814 -0.0628
 5934TIP3   OH239216   5.951   6.687   3.727 -0.0060 -0.0510 -0.6338
 5934TIP3    H139217   5.863   6.711   3.696  0.1226  0.0543 -0.9167
 5934TIP3    H239218   5.984   6.766   3.769  0.0326 -0.0307 -0.7030
 5935TIP3   OH239219   3.223   1.643  16.572 -0.0192  0.1736 -0.5035
 5935TIP3    H139220   3.210   1.651  16.666  0.8472 -0.0408 -0.3550
 5935TIP3    H239221   3.287   1.573  16.562  1.2313  1.3480 -1.1352
 5936TIP3   OH239222   3.378   4.699   0.795  0.2818  0.1397 -0.0246
 5936TIP3    H139223   3.394   4.661   0.709  0.9840 -0.0413  0.1759
 5936TIP3    H239224   3.464   4.697   0.838 -0.0696  0.1806  0.6925
 5937TIP3   OH239225   3.801   2.067  13.740  0.3624 -0.2396 -0.3884
 5937TIP3    H139226   3.849   2.070  13.823  0.1013 -0.4685 -0.2265
 5937TIP3    H239227   3.711   2.045  13.765  0.1753  0.1689 -0.6884
 5938TIP3   OH239228   5.179   1.556  16.399 -0.0529  0.1838  0.4568
 5938TIP3    H139229   5.251   1.537  16.459  0.7397  1.1221 -0.1727
 5938TIP3    H239230   5.219   1.556  16.312 -0.8923  0.3401  0.0605
 5939TIP3   OH239231   5.122   4.234  15.410 -0.8075  0.0782 -0.2321
 5939TIP3    H139232   5.158   4.322  15.423 -1.9198  0.4421  0.4487
 5939TIP3    H239233   5.162   4.205  15.328 -1.4578  1.7693 -1.2108
 5940TIP3   OH239234   2.317   3.090  15.458  0.1613 -0.1365  0.0552
 5940TIP3    H139235   2.257   3.057  15.391 -1.9286  2.1876  0.6605
 5940TIP3    H239236   2.391   3.029  15.454 -1.6241 -2.4270 -1.5940
 5941TIP3   OH239237   4.481   1.092  11.952  0.0954 -0.7625 -0.2683
 5941TIP3    H139238   4.497   1.186  11.952 -1.3022 -0.4920 -1.3545
 5941TIP3    H239239   4.408   1.080  12.014 -0.5081 -0.9623 -1.0048
 5942TIP3   OH239240   5.764   4.639  13.478 -0.2826  0.6225  0.0464
 5942TIP3    H139241   5.729   4.680  13.399  0.4429  1.3762  0.1080
 5942TIP3    H239242   5.808   4.560  13.447  0.2557  1.0710 -0.3426
 5943TIP3   OH239243   4.600   1.094   1.841 -0.2821 -0.1453  0.0958
 5943TIP3    H139244   4.625   1.030   1.774  0.5013 -1.6446  1.7391
 5943TIP3    H239245   4.563   1.041   1.912 -2.8503  1.5457  0.1284
 5944TIP3   OH239246   1.265   5.618  11.437 -0.1035  0.4912 -0.4797
 5944TIP3    H139247   1.311   5.534  11.440 -0.0384  0.5279 -0.4472
 5944TIP3    H239248   1.243   5.636  11.529 -1.7275 -0.3765 -0.6561
 5945TIP3   OH239249   0.437   1.171  15.787  0.9696 -0.0058 -0.1455
 5945TIP3    H139250   0.447   1.244  15.848  3.1472 -0.9296  0.7116
 5945TIP3    H239251   0.424   1.213  15.702 -1.0547  1.3079  0.7388
 5946TIP3   OH239252   6.492   3.107   4.137 -0.4825 -0.0199 -0.0412
 5946TIP3    H139253   6.419   3.149   4.092 -0.0433  0.2156 -0.5458
 5946TIP3    H239254   6.461   3.095   4.227 -0.4507  1.8203  0.2510
 5947TIP3   OH239255   1.004   0.231  16.357  0.3496  0.0240  0.0753
 5947TIP3    H139256   0.990   0.157  16.417 -2.1401  0.8050  0.6267
 5947TIP3    H239257   1.054   0.294  16.409  0.1968 -0.2389  0.5562
 5948TIP3   OH239258   5.000   4.734   4.469  0.5307 -0.0777  0.0528
 5948TIP3    H139259   4.976   4.755   4.379 -2.5563 -1.4564  0.4305
 5948TIP3    H239260   5.038   4.646   4.463  0.8044  0.0363  0.0713
 5949TIP3   OH239261   0.098   6.235  16.796 -0.2298  0.2778  0.1166
 5949TIP3    H139262   0.086   6.330  16.793  0.4565  0.3585 -1.0507
 5949TIP3    H239263   0.165   6.218  16.729 -2.1278 -1.2838 -1.5251
 5950TIP3   OH239264   4.777   1.751   1.842 -0.1683 -0.1535  0.0201
 5950TIP3    H139265   4.759   1.748   1.748  3.7418  0.8312 -0.9436
 5950TIP3    H239266   4.812   1.664   1.862 -1.4821 -0.5398  0.7598
 5951TIP3   OH239267   4.464   0.465  10.608  0.1072 -0.7806 -0.7741
 5951TIP3    H139268   4.387   0.519  10.594 -0.3216 -1.2901 -0.4389
 5951TIP3    H239269   4.431   0.386  10.652  0.8708 -0.8288 -0.2539
 5952TIP3   OH239270   4.185   0.571  15.567  0.0584 -0.1269 -1.0629
 5952TIP3    H139271   4.211   0.587  15.476 -0.7469  1.2234 -1.0828
 5952TIP3    H239272   4.204   0.654  15.612  1.2219 -1.0383  0.1992
 5953TIP3   OH239273   5.271   2.248   3.557  0.1617  0.4262  0.0890
 5953TIP3    H139274   5.344   2.291   3.604  0.8225 -2.1124  1.5759
 5953TIP3    H239275   5.313   2.203   3.484 -0.1737  0.3914 -0.0824
 5954TIP3   OH239276   5.962   4.288   4.528  0.3143 -0.5440  0.7180
 5954TIP3    H139277   5.876   4.315   4.495 -0.2461 -1.1349  1.6626
 5954TIP3    H239278   6.006   4.250   4.452 -0.8080 -1.5420  0.5446
 5955TIP3   OH239279   1.051   2.995  13.385 -0.3313 -0.1156  0.5927
 5955TIP3    H139280   1.108   2.946  13.326 -0.1814 -0.3794  0.9523
 5955TIP3    H239281   1.078   3.086  13.373 -0.6472 -0.1069 -0.1156
 5956TIP3   OH239282   0.456   3.470   1.044 -0.4132  0.2789 -0.0595
 5956TIP3    H139283   0.382   3.421   1.007  0.8197 -1.3732 -0.4579
 5956TIP3    H239284   0.471   3.541   0.982 -0.8793 -0.1152 -0.6341
 5957TIP3   OH239285   0.753   4.763  15.438 -0.4654  0.0893 -0.4105
 5957TIP3    H139286   0.710   4.709  15.504 -2.3083  3.3121  1.3134
 5957TIP3    H239287   0.696   4.757  15.362 -1.2500  0.3806  0.1386
 5958TIP3   OH239288   3.342   4.328  14.039 -0.2034  0.4966 -0.2859
 5958TIP3    H139289   3.355   4.239  14.006  1.7422  0.8157 -0.4918
 5958TIP3    H239290   3.256   4.355  14.005 -0.5720 -1.0813 -0.6675
 5959TIP3   OH239291   2.863   6.751  11.341  0.1103  0.1219 -0.7100
 5959TIP3    H139292   2.776   6.760  11.304  0.3074  0.1865 -1.1682
 5959TIP3    H239293   2.868   6.660  11.372 -0.3819  0.3344  0.0165
 5960TIP3   OH239294   3.318   1.728   4.150  0.0379  0.4429  0.3621
 5960TIP3    H139295   3.245   1.723   4.212  0.0311  0.2473  0.3369
 5960TIP3    H239296   3.290   1.676   4.075 -0.0882  0.9439  0.0586
 5961TIP3   OH239297   2.605   4.957  16.986  0.4286 -0.5558  0.4531
 5961TIP3    H139298   2.623   4.873  16.945 -2.1081 -1.4963  1.0444
 5961TIP3    H239299   2.590   4.937  17.078 -0.9289  0.3724  0.4792
 5962TIP3   OH239300   2.682   1.849  11.478 -0.0041 -0.2431  0.0413
 5962TIP3    H139301   2.624   1.923  11.497  0.3749 -0.2429  1.2588
 5962TIP3    H239302   2.633   1.772  11.508 -0.1040 -0.4243 -0.5709
 5963TIP3   OH239303   4.692   4.941   4.111  0.2616  0.0657  0.6386
 5963TIP3    H139304   4.686   5.029   4.073 -1.1940  0.1190  0.9615
 5963TIP3    H239305   4.729   4.888   4.040  0.0658  0.7033  0.0441
 5964TIP3   OH239306   4.710   1.910   4.341  0.5170 -0.4988  0.0485
 5964TIP3    H139307   4.716   1.884   4.249  0.7901 -0.3051  0.0108
 5964TIP3    H239308   4.620   1.943   4.351  0.5571 -0.3092 -0.2069
 5965TIP3   OH239309   3.998   1.112   5.929 -0.6167 -0.3491  0.9358
 5965TIP3    H139310   3.933   1.175   5.896 -0.0020 -0.1219  0.1253
 5965TIP3    H239311   3.961   1.026   5.909  0.0843 -0.2297 -1.1371
 5966TIP3   OH239312   5.447   1.953  15.335 -0.0355  0.7701 -0.0712
 5966TIP3    H139313   5.408   1.909  15.260  0.5163  0.5967 -0.2663
 5966TIP3    H239314   5.451   1.887  15.404 -2.5425  1.5065  0.8649
 5967TIP3   OH239315   6.039   4.979  16.761 -0.1934 -0.5722  0.6259
 5967TIP3    H139316   6.041   4.884  16.747  0.0958 -0.2986 -1.4386
 5967TIP3    H239317   6.128   5.008  16.742 -0.6111  0.2625 -0.1439
 5968TIP3   OH239318   6.294   5.099  12.572  0.2175 -1.1569  0.2918
 5968TIP3    H139319   6.341   5.180  12.591  0.0432 -0.8888 -0.3882
 5968TIP3    H239320   6.308   5.084  12.479  0.4121 -2.0246  0.4551
 5969TIP3   OH239321   1.350   5.870   5.443 -0.2380  0.0057  0.0723
 5969TIP3    H139322   1.291   5.797   5.427 -1.6997  1.5364 -1.9840
 5969TIP3    H239323   1.294   5.939   5.478  0.8648  0.6064  0.7116
 5970TIP3   OH239324   3.840   1.127  12.212 -0.6228 -0.1126 -0.3502
 5970TIP3    H139325   3.850   1.185  12.288  1.5816 -0.9003  0.0127
 5970TIP3    H239326   3.866   1.180  12.137 -1.5668  0.2757 -0.4122
 5971TIP3   OH239327   5.820   0.772   0.311  0.3497  0.2405  0.5218
 5971TIP3    H139328   5.817   0.819   0.395 -0.5049  1.0446  0.0549
 5971TIP3    H239329   5.733   0.783   0.274  0.1564 -1.6483  0.3385
 5972TIP3   OH239330   3.699   0.470   4.059  0.0649  0.0192 -0.1078
 5972TIP3    H139331   3.655   0.536   4.112  0.0952  0.3762 -0.5219
 5972TIP3    H239332   3.628   0.418   4.022 -0.0834  1.1019 -1.4403
 5973TIP3   OH239333   2.100   0.362  12.594  0.2891  0.1435  0.2561
 5973TIP3    H139334   2.136   0.390  12.509 -0.7109 -0.7668 -0.4939
 5973TIP3    H239335   2.035   0.296  12.571 -2.2815  2.0450  1.4855
 5974TIP3   OH239336   0.043   1.360  15.399  0.3146 -0.0532 -0.6537
 5974TIP3    H139337   0.051   1.444  15.444  0.5705 -0.6738  0.4980
 5974TIP3    H239338  -0.042   1.326  15.425  0.7303 -0.7052 -0.1173
 5975TIP3   OH239339   1.494   2.120  15.140 -0.3944  0.3720 -0.6472
 5975TIP3    H139340   1.414   2.121  15.088 -0.4352 -1.0419 -0.6611
 5975TIP3    H239341   1.565   2.129  15.076 -0.5140  0.5276 -0.7560
 5976TIP3   OH239342   4.932   2.567  17.213  0.1462  0.1667  0.4496
 5976TIP3    H139343   5.009   2.582  17.159  0.7181 -1.0417  0.9000
 5976TIP3    H239344   4.961   2.586  17.302  0.0721 -0.7405  0.6770
 5977TIP3   OH239345   1.604   5.146   5.890 -0.6021 -0.1114  0.2082
 5977TIP3    H139346   1.628   5.178   5.977 -2.8860 -1.2262  1.3428
 5977TIP3    H239347   1.654   5.065   5.880 -1.1810 -0.5936  1.0263
 5978TIP3   OH239348   5.103   1.510   4.966 -0.7772 -0.2892 -0.8024
 5978TIP3    H139349   5.128   1.499   4.874 -1.3101  0.6179 -1.0570
 5978TIP3    H239350   5.066   1.425   4.990  2.3619 -1.6998 -0.4335
 5979TIP3   OH239351   2.828   2.476   3.614 -0.2025  0.6411  0.9476
 5979TIP3    H139352   2.773   2.441   3.685  0.3002 -1.0510  0.5562
 5979TIP3    H239353   2.880   2.545   3.656 -1.0170  0.7415  1.8452
 5980TIP3   OH239354   2.027   4.058  16.060 -0.2043  0.0909  0.2616
 5980TIP3    H139355   2.059   4.075  16.149  0.0728 -0.6459  0.3081
 5980TIP3    H239356   1.932   4.073  16.066 -0.0645  0.9175  0.4613
 5981TIP3   OH239357   6.267   1.469  15.999 -0.5402 -0.2260 -0.0719
 5981TIP3    H139358   6.255   1.521  15.919  0.1566 -0.3877 -0.2839
 5981TIP3    H239359   6.304   1.531  16.062  1.6900 -0.7707 -0.7605
 5982TIP3   OH239360   5.220   1.870  13.918  0.1248  0.2452  0.4475
 5982TIP3    H139361   5.198   1.875  14.010 -0.0372  1.5915  0.3533
 5982TIP3    H239362   5.136   1.878  13.872  0.4038  1.9128  0.1620
 5983TIP3   OH239363   2.894   6.210  15.435  0.2126 -0.4994 -0.0699
 5983TIP3    H139364   2.904   6.159  15.515  0.1484 -1.2413 -0.5212
 5983TIP3    H239365   2.938   6.157  15.368 -0.2652 -0.1854 -0.6363
 5984TIP3   OH239366   4.879   1.432  16.178  0.0453 -0.2357 -0.4833
 5984TIP3    H139367   4.862   1.339  16.195  1.3335 -0.3150  0.5119
 5984TIP3    H239368   4.953   1.432  16.117  0.1269  0.1446 -0.3835
 5985TIP3   OH239369   2.920   3.996  14.857  0.4986  1.1871 -0.0357
 5985TIP3    H139370   2.970   4.078  14.854  2.2538  0.1902  0.7605
 5985TIP3    H239371   2.984   3.930  14.882 -1.2945 -0.1100  1.3679
 5986TIP3   OH239372   0.736   4.753   0.830  0.7040  0.1386 -0.0547
 5986TIP3    H139373   0.808   4.812   0.806 -1.4633  1.8222 -3.1672
 5986TIP3    H239374   0.693   4.732   0.747 -0.7122 -3.1997  1.3275
 5987TIP3   OH239375   2.756   5.632   6.087 -0.4073 -0.5361 -0.1742
 5987TIP3    H139376   2.758   5.727   6.088 -0.3948 -0.5041 -1.4984
 5987TIP3    H239377   2.764   5.606   6.179  1.2144  0.6975  0.0628
 5988TIP3   OH239378   2.035   4.587  12.386  0.1458 -0.2760 -0.1262
 5988TIP3    H139379   1.991   4.586  12.301  2.2772 -0.8691 -1.3104
 5988TIP3    H239380   2.039   4.679  12.411 -1.2761 -0.1765 -0.2182
 5989TIP3   OH239381   4.923   5.266  16.072 -0.6112  0.4899  0.1463
 5989TIP3    H139382   4.868   5.230  16.141 -0.8760  1.3829  0.4136
 5989TIP3    H239383   4.975   5.334  16.116 -0.1278  0.4482 -0.3465
 5990TIP3   OH239384   6.096   1.595   1.165  0.2996  0.6518 -0.1410
 5990TIP3    H139385   6.176   1.625   1.208 -0.2373 -0.5434  1.8366
 5990TIP3    H239386   6.093   1.501   1.184 -1.3510  0.6001 -0.5358
 5991TIP3   OH239387   2.124   2.916  13.878 -0.3114  0.0192 -0.0854
 5991TIP3    H139388   2.203   2.903  13.932 -0.0416 -3.5133 -1.0830
 5991TIP3    H239389   2.054   2.877  13.930 -0.4929 -1.1717 -1.1956
 5992TIP3   OH239390   4.392   5.676  15.819 -0.6134 -0.3913  0.1660
 5992TIP3    H139391   4.473   5.628  15.801  0.2861  0.9701  0.4382
 5992TIP3    H239392   4.334   5.654  15.747  1.0864  0.9604 -1.7363
 5993TIP3   OH239393   2.116   6.096   6.757  0.2771  0.7086  0.0759
 5993TIP3    H139394   2.110   6.139   6.672 -0.6794 -1.3926 -1.0156
 5993TIP3    H239395   2.183   6.144   6.805  0.1708  2.5295 -1.5037
 5994TIP3   OH239396   2.420   3.790   2.865 -0.1580 -0.3724  0.0856
 5994TIP3    H139397   2.360   3.819   2.796  0.9858  1.7847 -0.0865
 5994TIP3    H239398   2.463   3.870   2.895  1.2051 -1.5898  1.5787
 5995TIP3   OH239399   3.987   2.720  12.938  0.2507 -0.2944 -0.1208
 5995TIP3    H139400   3.994   2.725  12.843 -0.7105 -0.4939 -0.2093
 5995TIP3    H239401   3.895   2.737  12.956  0.5958  0.6887  0.8432
 5996TIP3   OH239402   6.031   5.510   0.989 -0.0652 -0.4353 -0.1575
 5996TIP3    H139403   5.997   5.597   0.968 -0.1923 -0.3730  0.3060
 5996TIP3    H239404   6.125   5.523   1.002 -0.0515 -0.4048 -0.2807
 5997TIP3   OH239405   3.641   1.480  12.095 -0.2621  0.6092  0.2986
 5997TIP3    H139406   3.632   1.495  12.000 -1.3077  0.2348  0.3268
 5997TIP3    H239407   3.707   1.411  12.102 -1.6514 -0.8300 -0.2816
 5998TIP3   OH239408   6.210   1.785   5.370 -0.2680  0.0476  0.3830
 5998TIP3    H139409   6.240   1.729   5.298 -0.2605  0.0989  0.3459
 5998TIP3    H239410   6.271   1.859   5.369 -0.8059  0.4966 -0.1423
 5999TIP3   OH239411   5.721   3.241  14.384  0.5033 -0.4851  0.1225
 5999TIP3    H139412   5.775   3.263  14.308  0.5530  0.7410  0.4841
 5999TIP3    H239413   5.784   3.228  14.455  0.3948 -0.1691  0.2823
 6000TIP3   OH239414   0.912   3.799   2.224 -0.0546 -0.3768 -0.1141
 6000TIP3    H139415   1.002   3.824   2.205 -0.3280  0.0282 -0.9414
 6000TIP3    H239416   0.868   3.881   2.246  0.1168 -0.7667  1.7864
 6001TIP3   OH239417   5.893   2.005   0.312 -0.2613  0.5172 -0.1118
 6001TIP3    H139418   5.872   1.915   0.288  0.9242  0.2642 -0.2660
 6001TIP3    H239419   5.809   2.044   0.336 -0.9031 -0.3966 -0.8062
 6002TIP3   OH239420   0.094   2.939   5.645  0.0398 -0.1839 -0.3128
 6002TIP3    H139421   0.002   2.963   5.638  0.2553  0.7925  0.0359
 6002TIP3    H239422   0.096   2.844   5.630 -0.8737 -0.0259 -1.5372
 6003TIP3   OH239423   6.276   3.800   2.609  0.1139 -0.1409 -0.6976
 6003TIP3    H139424   6.195   3.773   2.567 -0.1184 -0.3725 -0.1058
 6003TIP3    H239425   6.335   3.725   2.598 -0.6557 -1.1144  1.2864
 6004TIP3   OH239426   5.698   0.703   0.722  0.3085 -0.2865 -0.2980
 6004TIP3    H139427   5.707   0.614   0.687 -1.4077 -0.7252  0.2988
 6004TIP3    H239428   5.774   0.750   0.688  1.9260 -2.2980  0.4028
 6005TIP3   OH239429   4.285   4.742   4.402 -0.1126 -0.6863  0.5341
 6005TIP3    H139430   4.284   4.711   4.493  1.2782  0.0875  0.8429
 6005TIP3    H239431   4.316   4.833   4.409 -1.1751 -0.2077 -0.6091
 6006TIP3   OH239432   0.011   5.367  14.377 -0.2282 -0.6178  0.6089
 6006TIP3    H139433   0.004   5.451  14.424 -1.2950  0.8719 -1.9922
 6006TIP3    H239434   0.105   5.355  14.365 -0.0777  0.6906  0.2882
 6007TIP3   OH239435   3.866   3.904   2.801  0.2316  0.0538 -0.6166
 6007TIP3    H139436   3.784   3.858   2.816  0.3148  0.0798 -0.0877
 6007TIP3    H239437   3.878   3.958   2.878  1.1976 -0.6287 -0.2706
 6008TIP3   OH239438   3.408   1.018  16.108 -0.2742 -0.3742 -0.5242
 6008TIP3    H139439   3.465   1.046  16.036 -0.9939  2.0978 -0.2168
 6008TIP3    H239440   3.325   1.063  16.091 -1.0983 -1.3559  0.7710
 6009TIP3   OH239441   2.095   5.041  16.117 -0.0736 -0.1777  0.1093
 6009TIP3    H139442   2.062   5.045  16.028 -1.6581  0.2104  0.6798
 6009TIP3    H239443   2.085   4.949  16.142  1.9982 -0.6647 -0.6561
 6010TIP3   OH239444   5.694   1.530   5.547  0.2845  0.1273  0.2543
 6010TIP3    H139445   5.600   1.533   5.564  0.1030  0.4844 -0.7443
 6010TIP3    H239446   5.726   1.616   5.572  0.2278  0.2325 -0.0303
 6011TIP3   OH239447   1.614   0.901   5.603 -0.1423  0.5804 -0.5507
 6011TIP3    H139448   1.646   0.982   5.642 -0.4508  0.2662  0.3834
 6011TIP3    H239449   1.651   0.900   5.515 -1.2050  2.3825 -1.0649
 6012TIP3   OH239450   6.300   5.097  15.888  0.2126  0.7166  0.3727
 6012TIP3    H139451   6.256   5.131  15.965 -0.9667  1.2786 -0.5226
 6012TIP3    H239452   6.295   5.002  15.897  1.6195  0.7248  1.8079
 6013TIP3   OH239453   2.215   4.131  14.517 -0.6356 -0.0169  0.0648
 6013TIP3    H139454   2.169   4.062  14.564  0.5933 -0.1763  1.0789
 6013TIP3    H239455   2.198   4.112  14.425 -1.2824 -0.9918  0.3671
 6014TIP3   OH239456   5.527   0.603   1.614 -0.7437 -0.6642  0.2194
 6014TIP3    H139457   5.515   0.634   1.524  1.3428 -1.6105 -0.4393
 6014TIP3    H239458   5.443   0.622   1.656 -2.4881 -1.8238 -2.3931
 6015TIP3   OH239459   3.963   2.385  12.252 -0.2069 -0.1269  0.0511
 6015TIP3    H139460   3.877   2.426  12.246 -1.0172 -1.3204  2.2623
 6015TIP3    H239461   3.945   2.291  12.259  1.0535 -0.2568  2.9876
 6016TIP3   OH239462   1.926   5.705  12.328  0.3322  0.2941 -0.3333
 6016TIP3    H139463   2.010   5.699  12.372 -0.9215 -0.7025  2.0881
 6016TIP3    H239464   1.864   5.732  12.396 -1.1176  2.6360 -2.3558
 6017TIP3   OH239465   2.893   4.544   6.454  0.2477  0.4632  0.3194
 6017TIP3    H139466   2.813   4.530   6.402  0.2169  2.3188 -0.1902
 6017TIP3    H239467   2.935   4.619   6.413  1.5549  0.3853  1.4554
 6018TIP3   OH239468   0.891   0.996   5.805  0.0952  0.1558 -0.2391
 6018TIP3    H139469   0.978   0.970   5.833  0.1617 -0.0415 -0.6238
 6018TIP3    H239470   0.892   0.986   5.710 -0.8778 -1.5538 -0.1178
 6019TIP3   OH239471   0.074   1.366  13.559  0.0080  0.3627  0.1181
 6019TIP3    H139472   0.135   1.407  13.620 -1.4902  3.4210 -0.2232
 6019TIP3    H239473  -0.005   1.350  13.611 -0.1441 -0.1795 -0.2687
 6020TIP3   OH239474   6.708   6.202  11.533 -0.1767 -0.1448  0.1869
 6020TIP3    H139475   6.684   6.255  11.458  0.2839 -1.3865 -0.8782
 6020TIP3    H239476   6.637   6.139  11.543  1.2058 -2.0368 -1.2483
 6021TIP3   OH239477   2.136   5.764   4.097 -0.3669 -0.2987 -0.2150
 6021TIP3    H139478   2.150   5.672   4.119 -0.4258 -0.8607 -2.3144
 6021TIP3    H239479   2.198   5.812   4.153  1.4348 -1.8118 -0.7928
 6022TIP3   OH239480   1.687   5.590  16.689 -0.9017 -0.0917  0.9187
 6022TIP3    H139481   1.605   5.573  16.643 -0.5078  2.1278 -0.7676
 6022TIP3    H239482   1.744   5.518  16.663 -1.0743  0.4816 -1.1978
 6023TIP3   OH239483   4.326   2.363   2.455 -0.3435  0.5766  0.4687
 6023TIP3    H139484   4.260   2.410   2.405 -1.3780 -1.9808 -0.7723
 6023TIP3    H239485   4.394   2.341   2.391 -0.7986 -1.1564  0.5254
 6024TIP3   OH239486   4.041   2.656  12.292 -0.0344 -0.0471 -0.7435
 6024TIP3    H139487   4.063   2.675  12.383 -2.1728  0.3837 -0.2665
 6024TIP3    H239488   4.020   2.562  12.292 -0.3185  0.0165 -0.7295
 6025TIP3   OH239489   4.503   6.334  16.605 -0.4981  0.6997  0.1422
 6025TIP3    H139490   4.586   6.303  16.570 -0.5266  0.5225  0.2274
 6025TIP3    H239491   4.456   6.369  16.529 -0.7635 -0.1377 -0.0882
 6026TIP3   OH239492   0.410   5.608  16.876 -0.3230 -0.6918  0.4152
 6026TIP3    H139493   0.379   5.644  16.959  0.2792 -0.6610  0.6317
 6026TIP3    H239494   0.411   5.513  16.890 -1.6824 -0.8011 -0.0785
 6027TIP3   OH239495   1.146   0.190  14.567 -0.0317 -0.2974 -0.0897
 6027TIP3    H139496   1.165   0.243  14.490 -0.3459 -0.0189  0.0197
 6027TIP3    H239497   1.188   0.106  14.550 -0.5448 -0.4167 -0.8008
 6028TIP3   OH239498   2.861   2.424   5.070 -0.2348  0.0456 -0.2403
 6028TIP3    H139499   2.942   2.449   5.114  1.2585 -0.7506 -2.3754
 6028TIP3    H239500   2.809   2.505   5.068  1.2196  1.0206 -0.3076
 6029TIP3   OH239501   5.178   5.398  14.314 -0.0352 -0.1984  0.8862
 6029TIP3    H139502   5.122   5.321  14.314  0.6525 -0.7800  3.1459
 6029TIP3    H239503   5.120   5.471  14.293 -1.1901 -1.0406  1.0781
 6030TIP3   OH239504   4.419   6.271   2.007 -0.0117  0.3233  0.1701
 6030TIP3    H139505   4.487   6.322   2.051  1.2784 -0.9973 -0.2003
 6030TIP3    H239506   4.339   6.293   2.054  0.8300  1.1599  1.2951
 6031TIP3   OH239507   4.594   4.568   6.325 -0.0057 -0.0439  0.3233
 6031TIP3    H139508   4.501   4.579   6.307  0.2427  1.5723 -0.1912
 6031TIP3    H239509   4.634   4.552   6.240  0.3016  0.2875  0.4016
 6032TIP3   OH239510   4.367   2.442   3.231  0.1187  0.1219  0.2057
 6032TIP3    H139511   4.407   2.421   3.147  2.2941  0.5005  1.0812
 6032TIP3    H239512   4.359   2.358   3.276  2.6241  0.2708  1.0927
 6033TIP3   OH239513   0.033   1.890  15.271 -0.4432 -0.1538  0.1116
 6033TIP3    H139514   0.003   1.802  15.248  2.6667 -0.8728 -1.6747
 6033TIP3    H239515   0.053   1.885  15.365  2.0153 -2.2096 -0.4172
 6034TIP3   OH239516   0.973   5.267   1.517 -0.4000  0.6585  0.1594
 6034TIP3    H139517   1.049   5.265   1.575 -1.0313  0.0842  0.9892
 6034TIP3    H239518   1.005   5.231   1.434 -0.1525 -1.1647  1.0002
 6035TIP3   OH239519   2.318   1.870  14.548  0.8641  0.6779  0.3898
 6035TIP3    H139520   2.229   1.896  14.571  1.1271  1.5073  0.5047
 6035TIP3    H239521   2.345   1.933  14.481  0.3685 -1.2687 -1.7718
 6036TIP3   OH239522   1.574   0.724  13.824  0.4889 -0.0307  0.3165
 6036TIP3    H139523   1.514   0.798  13.821 -0.4815 -0.7220  1.6256
 6036TIP3    H239524   1.629   0.733  13.746 -0.3247  1.4472 -0.1053
 6037TIP3   OH239525   2.434   3.844   1.970 -0.1359 -0.4455 -0.1641
 6037TIP3    H139526   2.420   3.817   2.061  1.2495 -1.3388 -0.1875
 6037TIP3    H239527   2.433   3.761   1.921  2.0292 -0.3093 -0.5403
 6038TIP3   OH239528   5.963   4.035  11.944 -0.2639 -0.6524 -0.2395
 6038TIP3    H139529   5.943   3.950  11.905 -0.7044 -0.3187 -0.7534
 6038TIP3    H239530   6.046   4.061  11.904 -1.5923  0.5195 -2.3867
 6039TIP3   OH239531   2.293   0.991   4.583 -0.2872 -0.0871 -0.5580
 6039TIP3    H139532   2.236   0.928   4.538 -0.4013 -0.0903 -0.4095
 6039TIP3    H239533   2.378   0.980   4.540  0.3166 -2.0070  0.9765
 6040TIP3   OH239534   1.162   4.836   3.445 -0.1594  0.0380  0.0474
 6040TIP3    H139535   1.076   4.828   3.405 -0.3672  0.0687  0.4851
 6040TIP3    H239536   1.160   4.777   3.520  0.8524 -1.4115 -1.0205
 6041TIP3   OH239537   2.978   0.756   0.708 -0.6896  0.8163 -0.0572
 6041TIP3    H139538   2.914   0.694   0.742 -1.7834  1.4409 -0.9245
 6041TIP3    H239539   2.930   0.839   0.702  0.4908  1.5436  0.2454
 6042TIP3   OH239540   2.707   5.441   3.157  0.5317  0.5283 -0.1337
 6042TIP3    H139541   2.642   5.397   3.102  2.6475 -1.0708 -1.5225
 6042TIP3    H239542   2.724   5.378   3.228  0.2546  1.1337  0.4780
 6043TIP3   OH239543   1.753   1.176   5.420  1.2555  0.5862  0.0165
 6043TIP3    H139544   1.790   1.166   5.508 -1.0350  0.7177  1.0725
 6043TIP3    H239545   1.742   1.086   5.389 -0.3885  0.3900  1.0260
 6044TIP3   OH239546   5.223   5.406   3.639  0.4935 -0.0831  0.3533
 6044TIP3    H139547   5.275   5.356   3.576  2.2290  0.3545  1.3702
 6044TIP3    H239548   5.279   5.480   3.663 -1.4499  1.6262 -0.0525
 6045TIP3   OH239549   6.751   3.947   5.321  0.2284 -0.2096 -0.5571
 6045TIP3    H139550   6.704   3.928   5.402 -1.2062 -0.1929 -1.3596
 6045TIP3    H239551   6.841   3.965   5.349 -0.4395  0.7158  1.1151
 6046TIP3   OH239552   2.942   4.437   3.174  0.3908  0.0086 -0.2053
 6046TIP3    H139553   2.933   4.448   3.080  0.1586  2.4274  0.0407
 6046TIP3    H239554   2.867   4.382   3.199  0.9092 -1.3389 -1.4869
 6047TIP3   OH239555   2.461   3.936   0.894  0.0193 -0.1211  0.4317
 6047TIP3    H139556   2.477   3.905   0.805 -0.2543 -1.8829  0.9519
 6047TIP3    H239557   2.392   4.002   0.885 -0.1589 -0.4373 -0.6411
 6048TIP3   OH239558   6.659   2.017  11.909  0.3325  0.1612  0.0054
 6048TIP3    H139559   6.705   2.078  11.851 -0.4187  0.8511  0.1108
 6048TIP3    H239560   6.566   2.031  11.889  0.0682  0.2599  1.2117
 6049TIP3   OH239561   3.897   5.835   6.493 -0.4167  0.3791  0.8576
 6049TIP3    H139562   3.864   5.925   6.499  0.0377  0.6013  0.1731
 6049TIP3    H239563   3.897   5.804   6.584 -1.0548  0.8901  1.0428
 6050TIP3   OH239564   4.575   5.307  16.010 -0.6676  0.1286 -0.1398
 6050TIP3    H139565   4.502   5.368  16.022 -1.9774 -1.3415 -0.2645
 6050TIP3    H239566   4.602   5.283  16.099 -1.2571 -0.3425 -0.0787
 6051TIP3   OH239567   2.732   6.735  12.173 -0.1752 -0.2889  0.7766
 6051TIP3    H139568   2.724   6.822  12.212 -0.9123  0.0193 -0.0583
 6051TIP3    H239569   2.754   6.751  12.081  0.0560 -0.9935  0.7005
 6052TIP3   OH239570   1.036   4.996  15.836  0.4868 -0.1412 -0.4092
 6052TIP3    H139571   1.028   5.086  15.804  0.2829 -0.5943 -1.6886
 6052TIP3    H239572   1.031   4.942  15.757 -1.9725 -1.4554  0.5467
 6053TIP3   OH239573   4.503   0.933  15.740 -0.0084 -0.5831  0.0432
 6053TIP3    H139574   4.592   0.897  15.735  0.0235 -0.6514  0.8649
 6053TIP3    H239575   4.511   1.022  15.706  0.3816 -0.5878  0.1135
 6054TIP3   OH239576   2.370   3.477  13.212 -0.3400 -0.1197 -0.1755
 6054TIP3    H139577   2.310   3.504  13.142 -1.4199 -1.3639  0.2156
 6054TIP3    H239578   2.456   3.504  13.182 -0.9038  0.2669 -1.5182
 6055TIP3   OH239579   3.394   5.789  15.232 -0.5616 -0.1899  0.3790
 6055TIP3    H139580   3.373   5.696  15.244 -0.1438 -0.6769 -2.0221
 6055TIP3    H239581   3.479   5.788  15.188 -1.7126  1.1519 -2.0994
 6056TIP3   OH239582   1.486   6.562   3.871  0.2443 -0.2572 -0.0326
 6056TIP3    H139583   1.550   6.527   3.933  1.7497  0.0261 -1.3737
 6056TIP3    H239584   1.474   6.492   3.806 -0.1886  0.0086 -0.2434
 6057TIP3   OH239585   3.624   4.741   0.332 -0.2638  0.2913  0.1748
 6057TIP3    H139586   3.614   4.646   0.336 -1.1436  0.4170  1.9370
 6057TIP3    H239587   3.716   4.756   0.354 -0.3582 -0.1166  0.8745
 6058TIP3   OH239588   1.177   0.710   1.336  0.4925  0.4536  0.3753
 6058TIP3    H139589   1.159   0.798   1.304 -1.2749  0.5994  1.5963
 6058TIP3    H239590   1.090   0.669   1.340  1.0714 -0.7106  1.5737
 6059TIP3   OH239591   3.554   2.836  16.993 -0.4261 -0.2143 -0.0074
 6059TIP3    H139592   3.642   2.854  17.027 -0.1053  1.4073 -1.5072
 6059TIP3    H239593   3.523   2.921  16.961 -3.0897 -0.4520  1.6155
 6060TIP3   OH239594   1.034   0.893  11.244 -0.7064  0.4164 -0.4449
 6060TIP3    H139595   1.010   0.920  11.155 -1.9157 -2.8287 -1.2465
 6060TIP3    H239596   1.000   0.962  11.301 -4.0355  0.4443 -2.2306
 6061TIP3   OH239597   6.549   5.906   2.953 -0.4019 -0.4765 -0.5358
 6061TIP3    H139598   6.456   5.926   2.964 -0.6591 -1.5673 -0.6552
 6061TIP3    H239599   6.554   5.811   2.955  1.2785 -0.4938  3.9127
 6062TIP3   OH239600   2.365   3.574   2.541  0.0353  0.1000  0.1169
 6062TIP3    H139601   2.289   3.605   2.590  1.2175  1.1991  1.3565
 6062TIP3    H239602   2.414   3.654   2.520  0.5459 -0.5298 -1.1939
 6063TIP3   OH239603   2.110   3.279  15.213  0.4371 -0.0841  0.0526
 6063TIP3    H139604   2.161   3.354  15.244  1.5569 -0.4245 -0.9120
 6063TIP3    H239605   2.152   3.252  15.132 -0.2465 -1.4633  0.1183
 6064TIP3   OH239606   0.879   2.692  13.947  0.2094 -0.5283 -0.3174
 6064TIP3    H139607   0.786   2.682  13.969 -0.0577  2.2238  0.0777
 6064TIP3    H239608   0.925   2.657  14.024 -0.5964  1.1566  0.9967
 6065TIP3   OH239609   3.028   5.448   5.789 -0.1014  0.5411  0.5172
 6065TIP3    H139610   3.102   5.446   5.728 -0.8687 -0.1016 -0.4210
 6065TIP3    H239611   3.036   5.367   5.840 -0.8623 -0.1865 -0.4764
 6066TIP3   OH239612   1.167   6.357   4.753 -0.9157  0.1343  0.4319
 6066TIP3    H139613   1.255   6.393   4.749 -1.3268  1.0947 -0.9399
 6066TIP3    H239614   1.177   6.270   4.793  0.7336 -0.0200 -0.2610
 6067TIP3   OH239615   0.157   4.405   2.830  0.4411 -0.1605  0.0976
 6067TIP3    H139616   0.208   4.333   2.793  0.6570  0.3265 -0.5692
 6067TIP3    H239617   0.130   4.457   2.754  0.7820  0.7853  0.6051
 6068TIP3   OH239618   1.410   6.070   2.736  0.3041  0.0651  0.4334
 6068TIP3    H139619   1.340   6.076   2.801  0.1479 -0.2674  0.2991
 6068TIP3    H239620   1.490   6.087   2.785  0.1549  0.1894  0.6378
 6069TIP3   OH239621   3.756   4.136   0.314  0.1370 -0.7029 -0.5608
 6069TIP3    H139622   3.776   4.053   0.272 -0.8802 -1.3880  0.2708
 6069TIP3    H239623   3.676   4.120   0.363  0.0589  0.7024 -0.1790
 6070TIP3   OH239624   1.269   4.800  14.008 -0.0006 -0.5589  0.0530
 6070TIP3    H139625   1.246   4.887  14.042 -0.7557 -1.0905  0.9402
 6070TIP3    H239626   1.258   4.808  13.913 -1.6662 -0.1426  0.2542
 6071TIP3   OH239627   3.098   6.403  11.156  0.4065 -0.4909 -0.1487
 6071TIP3    H139628   3.004   6.418  11.151  0.3626 -1.0485 -1.1134
 6071TIP3    H239629   3.136   6.491  11.152 -0.1008 -0.1023  2.0100
 6072TIP3   OH239630   5.797   3.211   1.593 -0.0949  0.3505 -0.2382
 6072TIP3    H139631   5.809   3.288   1.648 -1.1235  0.4079 -0.0760
 6072TIP3    H239632   5.883   3.197   1.552  0.1788  1.4108 -0.0563
 6073TIP3   OH239633   2.886   6.417   1.064 -0.3082 -0.1704  0.0160
 6073TIP3    H139634   2.883   6.370   1.147  0.5101 -1.0893 -0.4550
 6073TIP3    H239635   2.798   6.410   1.028 -0.5701 -0.0714  0.6383
 6074TIP3   OH239636   0.524   2.323   5.278 -0.1889  1.1219 -0.0808
 6074TIP3    H139637   0.447   2.352   5.229 -1.7952  0.9622  2.1967
 6074TIP3    H239638   0.530   2.385   5.351  0.9752  0.2463  0.5881
 6075TIP3   OH239639   3.212   5.496  13.967 -0.5773 -0.2315 -0.0456
 6075TIP3    H139640   3.257   5.484  14.050 -0.7711 -2.1862 -0.1886
 6075TIP3    H239641   3.275   5.545  13.913 -0.0966  0.2549  0.9302
 6076TIP3   OH239642   0.017   3.845   3.959 -0.1909 -0.1418 -0.0300
 6076TIP3    H139643   0.071   3.913   3.999  1.7575 -0.6915 -1.5645
 6076TIP3    H239644   0.016   3.775   4.023 -1.5917  0.9773  1.2456
 6077TIP3   OH239645   5.353   1.703   6.383 -0.0444  0.4762 -0.2947
 6077TIP3    H139646   5.336   1.610   6.373 -0.1415  0.6573 -2.0872
 6077TIP3    H239647   5.282   1.734   6.439  0.1854 -0.5653  0.6078
 6078TIP3   OH239648   3.975   6.134   0.402  0.2825 -0.0526  0.2618
 6078TIP3    H139649   4.008   6.108   0.316  1.6060 -0.1040  0.7600
 6078TIP3    H239650   3.880   6.139   0.391  0.2533 -2.0012 -0.6691
 6079TIP3   OH239651   4.651   1.850  15.886 -0.3645  0.2360 -0.0483
 6079TIP3    H139652   4.674   1.777  15.829 -0.7563  0.4143 -0.4439
 6079TIP3    H239653   4.660   1.928  15.830  4.4709  1.0869  1.4841
 6080TIP3   OH239654   2.432   3.568   5.650  0.5434  0.5106  0.3410
 6080TIP3    H139655   2.463   3.483   5.681 -0.3740 -0.3528 -1.0190
 6080TIP3    H239656   2.469   3.576   5.562  1.6713  2.1238  0.9067
 6081TIP3   OH239657   5.776   6.255   2.453 -0.2196  0.0701  0.1745
 6081TIP3    H139658   5.708   6.188   2.443 -0.3323  0.3125 -0.7521
 6081TIP3    H239659   5.728   6.335   2.475 -0.2616  0.2816 -0.6535
 6082TIP3   OH239660   5.887   2.920   1.695 -0.3358 -0.3231 -0.7156
 6082TIP3    H139661   5.936   2.989   1.740 -0.5457 -0.6591  0.0417
 6082TIP3    H239662   5.917   2.925   1.604  2.1409 -1.4096 -0.0353
 6083TIP3   OH239663   2.428   0.400  13.184 -0.6008 -0.3262  0.5639
 6083TIP3    H139664   2.458   0.364  13.101  2.7076 -0.2443  1.5852
 6083TIP3    H239665   2.333   0.383  13.185 -0.0884 -4.5450 -1.1527
 6084TIP3   OH239666   2.298   3.788   4.748 -0.0634 -0.1333 -0.4523
 6084TIP3    H139667   2.335   3.874   4.729 -0.9517  0.3175 -0.2163
 6084TIP3    H239668   2.299   3.742   4.665 -0.3345  0.4065 -0.7592
 6085TIP3   OH239669   4.746   1.549   4.333  0.0235  0.8459  0.2410
 6085TIP3    H139670   4.774   1.484   4.268  0.6257  0.6715  0.6598
 6085TIP3    H239671   4.661   1.519   4.363 -0.7877  1.5337 -1.2684
 6086TIP3   OH239672   6.511   4.637   1.453 -0.7037 -0.1489  0.1219
 6086TIP3    H139673   6.595   4.679   1.437 -1.0858  0.3370 -0.6973
 6086TIP3    H239674   6.452   4.675   1.388 -1.0851 -1.9141 -0.6188
 6087TIP3   OH239675   6.053   4.731   5.304 -0.3247  0.0375 -0.8198
 6087TIP3    H139676   6.027   4.648   5.265 -1.4130 -0.0857  0.0894
 6087TIP3    H239677   5.986   4.748   5.371  0.9806  0.6487  0.3863
 6088TIP3   OH239678   3.619   6.342   3.454  0.0650 -0.1824  0.1502
 6088TIP3    H139679   3.530   6.351   3.420 -0.2896 -1.8069  0.5495
 6088TIP3    H239680   3.649   6.432   3.468 -0.8610  0.4560 -1.6363
 6089TIP3   OH239681   3.286   3.288  13.047  0.7283 -0.2513 -0.6724
 6089TIP3    H139682   3.314   3.201  13.075 -0.4095 -1.0865 -1.9963
 6089TIP3    H239683   3.291   3.286  12.952  1.5424  1.4644 -0.7032
 6090TIP3   OH239684   4.989   1.436  12.735 -0.4191 -0.1269  0.4008
 6090TIP3    H139685   4.987   1.376  12.810  0.2815 -0.0880  0.4607
 6090TIP3    H239686   5.027   1.384  12.665 -1.6537 -0.3584 -0.1207
 6091TIP3   OH239687   5.872   2.737   4.247  0.2251  0.1889  0.2619
 6091TIP3    H139688   5.790   2.777   4.218  0.3466  1.4042  1.4904
 6091TIP3    H239689   5.845   2.657   4.293 -0.0261 -1.2033 -2.1401
 6092TIP3   OH239690   4.120   5.991   1.568 -0.5594 -0.1579  0.3157
 6092TIP3    H139691   4.088   6.028   1.650  0.1671 -0.4093  0.7244
 6092TIP3    H239692   4.212   5.973   1.584 -0.1217  0.8175 -0.9267
 6093TIP3   OH239693   3.463   1.846  12.137  0.2035  0.2233 -0.2854
 6093TIP3    H139694   3.485   1.939  12.141  1.7371 -0.1506  0.6891
 6093TIP3    H239695   3.540   1.804  12.097 -0.3281 -0.6693 -0.4093
 6094TIP3   OH239696   3.380   4.822  14.140  0.1538 -0.2577  0.3774
 6094TIP3    H139697   3.456   4.862  14.098  0.8135 -0.9107  0.9231
 6094TIP3    H239698   3.315   4.815  14.070  0.8764 -0.4188 -0.2971
 6095TIP3   OH239699   0.811   1.572   1.922  0.3165  0.0764  0.1369
 6095TIP3    H139700   0.760   1.585   1.842  1.3347 -3.0239 -1.1975
 6095TIP3    H239701   0.896   1.611   1.902 -0.1701  1.5149  0.7406
 6096TIP3   OH239702   2.111   2.556   5.684  0.6768  0.2848 -0.0295
 6096TIP3    H139703   2.207   2.566   5.684  0.7462 -0.0723  1.7155
 6096TIP3    H239704   2.091   2.518   5.769 -0.8489 -1.4651 -1.0766
 6097TIP3   OH239705   3.421   1.113   1.927  0.0579 -0.5762  0.2937
 6097TIP3    H139706   3.480   1.073   1.992 -1.4425 -1.2644  1.2973
 6097TIP3    H239707   3.395   1.196   1.966  1.4329  0.4094 -0.7969
 6098TIP3   OH239708   0.665   1.322  11.088 -0.6567 -0.5362 -0.7119
 6098TIP3    H139709   0.639   1.381  11.017  0.0955  1.6312  0.7086
 6098TIP3    H239710   0.755   1.297  11.066 -0.5974 -0.2644 -0.7854
 6099TIP3   OH239711   3.081   3.206   1.876  0.2028 -0.5180 -0.3633
 6099TIP3    H139712   3.053   3.295   1.856  2.3247  0.1395 -0.5846
 6099TIP3    H239713   3.001   3.154   1.867 -0.8983  1.2006 -1.1038
 6100TIP3   OH239714   1.697   3.352  16.803  0.0763 -0.3198  0.0965
 6100TIP3    H139715   1.785   3.362  16.841  1.2196 -1.0003 -2.1610
 6100TIP3    H239716   1.713   3.318  16.715 -2.5167 -1.0480 -0.1733
 6101TIP3   OH239717   6.573   3.357  16.788 -0.2819 -0.4318  0.6724
 6101TIP3    H139718   6.508   3.427  16.801 -0.4011 -0.8295  2.4760
 6101TIP3    H239719   6.541   3.309  16.712 -0.5196  1.1076 -0.2539
 6102TIP3   OH239720   5.272   3.554   0.578 -0.2650 -0.0978  0.4140
 6102TIP3    H139721   5.291   3.612   0.651  1.3116  2.6730 -1.9678
 6102TIP3    H239722   5.351   3.502   0.567  0.1260  0.6155 -0.2359
 6103TIP3   OH239723   2.398   6.737   5.217 -0.2153  0.0527  0.1412
 6103TIP3    H139724   2.429   6.779   5.298  1.8824 -0.4175 -0.3873
 6103TIP3    H239725   2.375   6.648   5.244  0.3306 -0.0558  0.2656
 6104TIP3   OH239726   2.184   5.445   5.893 -0.1849  0.1562  0.5741
 6104TIP3    H139727   2.206   5.408   5.978  0.6132 -0.7506 -0.0000
 6104TIP3    H239728   2.189   5.539   5.905 -1.2456  0.0819  1.8221
 6105TIP3   OH239729   2.467   6.522  13.866  0.4199  0.0074 -0.3335
 6105TIP3    H139730   2.473   6.606  13.820 -0.2503  1.2918  1.7711
 6105TIP3    H239731   2.410   6.468  13.811 -0.4496  1.5010 -0.9484
 6106TIP3   OH239732   4.918   0.074  11.601 -0.0437  0.2679 -0.1531
 6106TIP3    H139733   4.969   0.124  11.664 -0.1032  0.4601 -0.2561
 6106TIP3    H239734   4.900   0.136  11.530  0.3482 -0.0506 -0.5378
 6107TIP3   OH239735   0.164   4.942  15.374 -0.3030  0.6386 -0.5315
 6107TIP3    H139736   0.093   4.916  15.315  1.2371 -0.6165 -1.9251
 6107TIP3    H239737   0.119   4.973  15.453 -2.3830 -1.0340 -0.9619
 6108TIP3   OH239738   0.148   1.516  15.035  0.3125 -0.3449  0.0790
 6108TIP3    H139739   0.235   1.540  15.003  0.8611  0.7696  2.1980
 6108TIP3    H239740   0.158   1.428  15.071  0.5020 -0.3272  0.0691
 6109TIP3   OH239741   1.752   2.517  10.669 -0.2446 -0.0593  0.7934
 6109TIP3    H139742   1.840   2.493  10.696 -0.4429 -0.2809  1.2459
 6109TIP3    H239743   1.704   2.529  10.751 -1.3902 -2.6696  0.6179
 6110TIP3   OH239744   1.509   3.996   0.414  0.1700 -0.3609  0.3129
 6110TIP3    H139745   1.577   3.989   0.347  0.4090  0.8187  0.4079
 6110TIP3    H239746   1.540   3.943   0.487 -0.2306 -1.9085 -0.6039
 6111TIP3   OH239747   0.136   5.225   4.255 -0.5145  0.5715 -0.1239
 6111TIP3    H139748   0.165   5.218   4.164 -0.8600  0.3419 -0.2168
 6111TIP3    H239749   0.217   5.225   4.306 -0.3520 -0.2774 -0.3702
 6112TIP3   OH239750   2.030   6.209   0.824 -0.2658  0.5434  0.1203
 6112TIP3    H139751   1.942   6.176   0.840 -0.8288  2.1266  0.5402
 6112TIP3    H239752   2.087   6.160   0.883 -0.9253 -0.1675  0.1731
 6113TIP3   OH239753   2.101   4.739  13.963  0.4381  0.4919 -0.9353
 6113TIP3    H139754   2.163   4.671  13.991  0.0259  0.0159 -1.1523
 6113TIP3    H239755   2.150   4.791  13.899  1.6689  2.1129  1.1975
 6114TIP3   OH239756   4.096   0.231  11.861  0.5582 -0.3282  0.1493
 6114TIP3    H139757   4.127   0.150  11.821 -1.6720 -2.5982  2.5755
 6114TIP3    H239758   4.175   0.284  11.872  2.1758 -2.3144 -1.2073
 6115TIP3   OH239759   1.687   3.994   3.279 -0.0073  0.0114  0.8206
 6115TIP3    H139760   1.628   3.952   3.216  3.5680 -4.5891  0.0116
 6115TIP3    H239761   1.649   3.974   3.364 -2.0221  1.5185  0.3592
 6116TIP3   OH239762   1.646   3.153   0.351  0.0526 -0.0280  0.2149
 6116TIP3    H139763   1.713   3.220   0.360  1.7134 -1.6025  0.0660
 6116TIP3    H239764   1.621   3.155   0.259  0.7221 -0.1785  0.0288
 6117TIP3   OH239765   0.958   3.029   1.120 -0.1303  0.3563 -0.3989
 6117TIP3    H139766   1.049   3.046   1.096  0.8584 -2.3901  0.9780
 6117TIP3    H239767   0.930   3.108   1.165  1.3377  1.5133 -1.4240
 6118TIP3   OH239768   3.646   3.732   4.016 -0.3989 -0.4403  1.4597
 6118TIP3    H139769   3.704   3.778   3.956 -0.3080  0.1795  2.0015
 6118TIP3    H239770   3.705   3.696   4.083 -0.5010 -1.0739  1.2071
 6119TIP3   OH239771   2.450   2.547   5.253 -0.2028  0.0868  0.0472
 6119TIP3    H139772   2.496   2.630   5.240  2.5320 -1.5160 -1.4606
 6119TIP3    H239773   2.383   2.566   5.317 -1.0208  3.9278 -1.6915
 6120TIP3   OH239774   0.258   1.096   3.651  0.1753  0.2088 -0.2147
 6120TIP3    H139775   0.348   1.100   3.619  0.3376  0.5536  0.2722
 6120TIP3    H239776   0.219   1.022   3.604  0.7245  0.0262 -0.3946
 6121TIP3   OH239777   3.674   6.309   4.044 -0.1255  0.4156  0.1680
 6121TIP3    H139778   3.737   6.264   4.099 -1.0419 -3.7493 -1.8312
 6121TIP3    H239779   3.588   6.284   4.080 -0.7295  2.0405 -0.0379
 6122TIP3   OH239780   4.157   5.846  13.250 -0.2228  0.0171  0.2861
 6122TIP3    H139781   4.246   5.881  13.240  0.6065 -1.3641  2.0707
 6122TIP3    H239782   4.140   5.802  13.167  0.5740  0.7007 -0.2622
 6123TIP3   OH239783   5.197   1.773  14.666  0.2057 -0.4129  0.1085
 6123TIP3    H139784   5.182   1.709  14.597  0.0147  0.2379 -0.4656
 6123TIP3    H239785   5.189   1.858  14.622 -0.4070  0.0181  1.0196
 6124TIP3   OH239786   1.681   2.673  15.054 -0.1759  0.2441 -0.4442
 6124TIP3    H139787   1.639   2.592  15.085 -1.0973  0.1470 -1.8399
 6124TIP3    H239788   1.767   2.672  15.095 -0.4373 -1.0814  0.1458
 6125TIP3   OH239789   4.189   1.937  14.194 -0.2607 -0.1404  0.0270
 6125TIP3    H139790   4.108   1.885  14.193 -0.4233 -0.2482  3.8082
 6125TIP3    H239791   4.259   1.872  14.197 -0.4130 -0.3020  3.3595
 6126TIP3   OH239792   0.302   2.128   5.288 -0.2841 -0.3635 -0.1073
 6126TIP3    H139793   0.259   2.159   5.209  1.2941  2.0674 -0.1168
 6126TIP3    H239794   0.396   2.129   5.266  0.1212 -0.5183  1.4957
 6127TIP3   OH239795   5.567   6.473  12.694  0.0903  0.2951  0.4444
 6127TIP3    H139796   5.618   6.500  12.617 -0.0892 -0.1655  0.1607
 6127TIP3    H239797   5.572   6.548  12.753  2.9281 -0.4692  1.3701
 6128TIP3   OH239798   5.115   2.071  11.292 -0.0753  0.2861  0.2252
 6128TIP3    H139799   5.137   2.139  11.229 -1.4313  0.1231 -0.4661
 6128TIP3    H239800   5.049   2.112  11.349 -1.3576 -0.6044 -0.5707
 6129TIP3   OH239801   0.951   4.621   2.006 -0.0956 -0.5332  0.0863
 6129TIP3    H139802   0.889   4.603   1.936 -0.4830 -0.0039  0.2895
 6129TIP3    H239803   0.918   4.700   2.049  1.2885  0.3902 -0.4573
 6130TIP3   OH239804   0.389   4.129   0.144  0.1424  0.0354  0.3394
 6130TIP3    H139805   0.336   4.100   0.218 -0.8494  2.1080  0.5104
 6130TIP3    H239806   0.437   4.205   0.177  0.0853  0.6774 -0.9800
 6131TIP3   OH239807   3.921   3.920  11.914 -0.1980 -0.1156 -0.3866
 6131TIP3    H139808   3.847   3.944  11.857  0.3138  1.6740 -0.3630
 6131TIP3    H239809   3.880   3.870  11.985 -0.8007 -2.7816 -2.4398
 6132TIP3   OH239810   1.048   1.398   1.777 -0.5866 -0.5114 -0.1846
 6132TIP3    H139811   1.043   1.490   1.801  0.4578  0.1064 -2.0872
 6132TIP3    H239812   1.123   1.364   1.825  0.0923  0.1128 -0.7650
 6133TIP3   OH239813   3.146   4.007  15.317 -0.5744 -0.2571  0.1376
 6133TIP3    H139814   3.087   3.942  15.280  1.3248 -2.4995  0.7929
 6133TIP3    H239815   3.192   4.044  15.242 -2.7037  1.5316 -0.3827
 6134TIP3   OH239816   1.919   5.823  15.955 -0.6660 -0.3010 -1.0790
 6134TIP3    H139817   1.869   5.783  15.884  0.2466 -2.5976 -0.5148
 6134TIP3    H239818   1.988   5.760  15.974 -1.5554 -0.4136  2.6566
 6135TIP3   OH239819   0.086   0.762  16.589 -0.3952 -0.3640 -0.0372
 6135TIP3    H139820   0.049   0.704  16.656  0.7548 -0.7395  0.2816
 6135TIP3    H239821   0.070   0.851  16.623 -0.7121 -0.5295  0.2529
 6136TIP3   OH239822   6.525   3.579  13.843  0.6234 -0.6438  1.4594
 6136TIP3    H139823   6.457   3.512  13.834  0.2019 -0.1921  1.1784
 6136TIP3    H239824   6.567   3.560  13.927 -1.5301  0.5611  2.9209
 6137TIP3   OH239825   5.357   1.536  13.795 -0.6823 -0.1482 -0.4402
 6137TIP3    H139826   5.417   1.507  13.864 -0.3619  2.0015  0.2377
 6137TIP3    H239827   5.270   1.518  13.831 -0.5047  0.4322  0.2960
 6138TIP3   OH239828   1.202   2.834   0.729 -0.1577 -0.3794  0.1664
 6138TIP3    H139829   1.163   2.762   0.779  1.6338 -0.5088  1.4741
 6138TIP3    H239830   1.150   2.910   0.755 -0.4586 -0.7716  0.7689
 6139TIP3   OH239831   5.105   5.690   4.592 -0.4351  0.3073 -0.1848
 6139TIP3    H139832   5.160   5.624   4.634 -2.8690 -1.8259 -0.0749
 6139TIP3    H239833   5.065   5.737   4.665 -0.4785  0.3329 -0.2249
 6140TIP3   OH239834   5.395   0.818   0.339  0.8873 -0.3090 -0.3010
 6140TIP3    H139835   5.459   0.863   0.284  0.2305 -0.1477 -0.9507
 6140TIP3    H239836   5.399   0.864   0.423  0.6796  0.5739 -0.7592
 6141TIP3   OH239837   0.273   2.088   5.747 -0.2788  0.6854 -0.5543
 6141TIP3    H139838   0.357   2.134   5.742  1.0549 -1.2264  1.8642
 6141TIP3    H239839   0.250   2.091   5.840 -1.6088 -0.9760 -0.7813
 6142TIP3   OH239840   4.184   1.457  11.462  0.7297 -0.1855  0.1890
 6142TIP3    H139841   4.136   1.375  11.454  0.1627  0.1664 -0.0797
 6142TIP3    H239842   4.276   1.433  11.450  0.5328 -0.7210 -0.2614
 6143TIP3   OH239843   2.085   1.960  16.840  0.1725  0.0990  0.2293
 6143TIP3    H139844   2.062   1.879  16.795  0.2725  0.8313 -1.1905
 6143TIP3    H239845   2.157   1.935  16.898  0.1973 -0.8322 -0.1766
 6144TIP3   OH239846   1.372   0.366  11.535 -0.0469  0.3211  0.3470
 6144TIP3    H139847   1.314   0.437  11.508 -0.3221  0.2185  0.6546
 6144TIP3    H239848   1.316   0.288  11.534 -0.4618  0.5374  2.5876
 6145TIP3   OH239849   0.391   2.526  17.267  0.0775  0.3039  0.3244
 6145TIP3    H139850   0.368   2.582  17.341  1.8299  0.0236  1.1196
 6145TIP3    H239851   0.350   2.441  17.288 -1.7815  0.9463 -0.4362
 6146TIP3   OH239852   5.515   0.295  14.047 -0.2088  0.4194 -0.2526
 6146TIP3    H139853   5.605   0.263  14.045 -0.1950  0.4412 -0.0038
 6146TIP3    H239854   5.520   0.378  14.095 -0.5055 -0.0473  0.6056
 6147TIP3   OH239855   6.505   1.054  12.643 -0.1698  0.0424 -0.0834
 6147TIP3    H139856   6.512   1.131  12.588  0.1177 -0.0630 -0.1976
 6147TIP3    H239857   6.412   1.031  12.642  0.0389 -0.9116 -1.8432
 6148TIP3   OH239858   5.018   0.444  10.513 -0.1395 -0.0419 -0.4300
 6148TIP3    H139859   4.943   0.497  10.487  0.5019  1.0439 -0.0978
 6148TIP3    H239860   5.077   0.448  10.438 -0.9102 -1.9449 -1.2248
 6149TIP3   OH239861   5.426   0.494   3.463  0.2466  0.3075  0.0670
 6149TIP3    H139862   5.409   0.410   3.420 -2.7336 -0.7873  2.9441
 6149TIP3    H239863   5.515   0.487   3.496  1.3855 -0.1253 -2.8147
 6150TIP3   OH239864   3.790   5.106  16.832  0.5580 -0.1440 -0.3525
 6150TIP3    H139865   3.786   5.195  16.868  0.9150 -0.3776  0.3007
 6150TIP3    H239866   3.729   5.056  16.885  1.4895 -0.6129  0.3218
 6151TIP3   OH239867   0.637   0.251   5.737 -0.5234  0.0459  0.1206
 6151TIP3    H139868   0.665   0.300   5.814  0.4874  0.4261 -0.4675
 6151TIP3    H239869   0.719   0.225   5.694 -1.0718 -0.2738 -0.7557
 6152TIP3   OH239870   1.329   4.310  12.026 -0.3248 -0.1983 -0.7739
 6152TIP3    H139871   1.273   4.388  12.018 -1.8970 -1.3429 -1.4623
 6152TIP3    H239872   1.389   4.317  11.951  1.2681  1.5972  0.5725
 6153TIP3   OH239873   3.296   4.709   1.882  0.3247  0.4886  0.5896
 6153TIP3    H139874   3.205   4.680   1.872  0.5767  0.1265 -0.8342
 6153TIP3    H239875   3.347   4.628   1.880  0.8759  0.8438 -1.4354
 6154TIP3   OH239876   6.378   5.613   4.553  0.0889  0.3864 -0.3519
 6154TIP3    H139877   6.392   5.519   4.550 -0.8102  0.2780 -1.7220
 6154TIP3    H239878   6.380   5.634   4.647 -0.7581 -1.1548  0.0479
 6155TIP3   OH239879   5.433   3.508   2.763  0.1830  0.1897  0.5716
 6155TIP3    H139880   5.466   3.418   2.769  0.4670  0.3798  3.2788
 6155TIP3    H239881   5.499   3.553   2.710 -0.4097 -1.3189 -1.5815
 6156TIP3   OH239882   5.113   4.074   4.055  0.4923  0.1228 -0.0335
 6156TIP3    H139883   5.200   4.034   4.053  1.6349  2.2780  2.0501
 6156TIP3    H239884   5.123   4.156   4.006 -0.3846  0.3609  0.1671
 6157TIP3   OH239885   5.519   6.355  16.038 -0.6840  0.3421 -0.0941
 6157TIP3    H139886   5.584   6.423  16.022 -0.0625 -0.6274 -2.0420
 6157TIP3    H239887   5.450   6.398  16.088  1.3120  1.4564  1.8831
 6158TIP3   OH239888   3.118   5.963  12.286  0.0713 -0.8223 -0.6040
 6158TIP3    H139889   3.074   5.915  12.217  1.8993 -0.5803 -2.0221
 6158TIP3    H239890   3.206   5.924  12.290  1.0076  1.1501 -0.5591
 6159TIP3   OH239891   0.413   5.151   2.960 -0.3279 -0.1274 -0.7733
 6159TIP3    H139892   0.358   5.212   3.010  1.4897  1.9175 -1.1233
 6159TIP3    H239893   0.502   5.181   2.975  0.7141 -2.8573 -0.8563
 6160TIP3   OH239894   0.922   1.983  14.610  0.2231  0.1214  0.5123
 6160TIP3    H139895   0.918   1.915  14.543  1.4439 -1.4131  1.8989
 6160TIP3    H239896   0.996   2.038  14.585  0.9351 -0.6906  0.7990
 6161TIP3   OH239897   3.170   6.282   6.420 -0.0978 -0.6039  0.0065
 6161TIP3    H139898   3.161   6.367   6.463 -0.8106 -0.9217  0.5184
 6161TIP3    H239899   3.089   6.236   6.442 -0.0130 -1.1665 -0.8246
 6162TIP3   OH239900   4.931   3.651  13.733  0.1541 -0.0257 -0.3210
 6162TIP3    H139901   4.994   3.671  13.663  0.4124 -0.6978 -0.2899
 6162TIP3    H239902   4.980   3.594  13.793  0.1282  1.0370  0.7364
 6163TIP3   OH239903   1.080   1.136   2.313  1.1349 -0.4867 -0.5337
 6163TIP3    H139904   1.054   1.054   2.272 -1.7684 -0.9489  1.8977
 6163TIP3    H239905   1.014   1.199   2.283  0.5716 -0.2099  1.1870
 6164TIP3   OH239906   4.734   1.269  10.946 -0.1049  0.2069 -0.0816
 6164TIP3    H139907   4.764   1.213  10.875 -0.5401 -2.0252  1.4066
 6164TIP3    H239908   4.764   1.357  10.922  2.5330 -0.9759 -1.4405
 6165TIP3   OH239909   5.705   6.120  13.549 -0.0160 -0.4104  0.9677
 6165TIP3    H139910   5.628   6.087  13.594 -0.6942 -0.7660 -0.3986
 6165TIP3    H239911   5.688   6.213  13.535 -0.6880 -0.6973 -0.2472
 6166TIP3   OH239912   5.552   0.653  15.585  0.3895 -0.2637  0.1418
 6166TIP3    H139913   5.646   0.646  15.598  0.3911 -0.2314  0.1462
 6166TIP3    H239914   5.515   0.579  15.634  0.4581 -0.6734 -0.4017
 6167TIP3   OH239915   0.266   6.675   5.047  0.2641 -0.5017 -0.0253
 6167TIP3    H139916   0.288   6.644   5.135  0.4747 -2.5500 -0.7359
 6167TIP3    H239917   0.348   6.668   4.998 -0.0725 -0.3315 -0.6289
 6168TIP3   OH239918   2.440   6.759   1.595 -0.7364  0.2770 -0.0297
 6168TIP3    H139919   2.458   6.851   1.577  2.6155 -0.0392  1.1593
 6168TIP3    H239920   2.427   6.755   1.690 -0.9265 -0.4782 -0.0788
 6169TIP3   OH239921   2.784   1.849   4.817 -0.0366  0.1119  0.4597
 6169TIP3    H139922   2.761   1.757   4.831 -1.1112  0.3486  0.2932
 6169TIP3    H239923   2.768   1.890   4.902 -0.4810  0.3222  0.2782
 6170TIP3   OH239924   1.907   1.845   0.217  0.2797  0.0341  0.0216
 6170TIP3    H139925   1.957   1.910   0.168  0.8153 -0.0814  0.4023
 6170TIP3    H239926   1.906   1.768   0.160  0.5772  0.0238  0.0287
 6171TIP3   OH239927   3.242   0.209  12.072 -0.2914 -0.3330  0.0067
 6171TIP3    H139928   3.211   0.297  12.052 -0.5535 -0.3526  0.3199
 6171TIP3    H239929   3.294   0.184  11.996  0.3601  0.3690  0.2060
 6172TIP3   OH239930   1.994   2.911  12.540 -0.2407  0.2745  0.2947
 6172TIP3    H139931   1.901   2.914  12.562 -0.7003  0.2958 -1.5223
 6172TIP3    H239932   2.015   2.818  12.535 -0.1750  0.2701  0.6130
 6173TIP3   OH239933   0.589   6.044   0.005  0.0656 -0.0684 -0.5620
 6173TIP3    H139934   0.621   5.955   0.020  0.5698  0.1510 -0.3186
 6173TIP3    H239935   0.526   6.058   0.077 -0.3714 -0.3930 -0.8730
 6174TIP3   OH239936   2.857   4.428   1.801 -0.0112  0.1448  0.5177
 6174TIP3    H139937   2.833   4.444   1.709  1.7213  0.7703  0.1335
 6174TIP3    H239938   2.793   4.363   1.831 -1.6852  1.1863 -0.6001
 6175TIP3   OH239939   5.013   0.433  13.572 -0.2655 -0.4069 -0.3385
 6175TIP3    H139940   4.920   0.454  13.567 -0.2846 -0.4428 -0.1361
 6175TIP3    H239941   5.044   0.480  13.650 -0.1059 -0.3628 -0.4278
 6176TIP3   OH239942   4.535   3.255  10.959  0.1273 -0.4396  0.0279
 6176TIP3    H139943   4.453   3.227  10.918  0.5348 -0.6101 -0.6876
 6176TIP3    H239944   4.598   3.260  10.886  0.8030 -0.5150  0.5965
 6177TIP3   OH239945   5.500   4.594   3.824 -0.3949 -0.1726  0.2936
 6177TIP3    H139946   5.564   4.566   3.889  0.0134 -1.0743 -0.4760
 6177TIP3    H239947   5.540   4.572   3.740 -1.0739  0.6288 -0.2627
 6178TIP3   OH239948   4.923   0.472  11.728 -0.1540 -0.7086 -0.4247
 6178TIP3    H139949   4.921   0.422  11.809  0.8372 -0.0002  0.0641
 6178TIP3    H239950   5.015   0.467  11.699 -0.2048  0.1351 -0.7875
 6179TIP3   OH239951   4.445   4.455  13.897 -0.3950  0.8338 -0.5741
 6179TIP3    H139952   4.492   4.402  13.962 -1.6442  0.1206 -0.2095
 6179TIP3    H239953   4.359   4.412  13.889 -1.3596  2.6517 -0.4616
 6180TIP3   OH239954   5.654   2.585   3.668  0.2777 -0.2815  0.7444
 6180TIP3    H139955   5.630   2.566   3.758  0.1420  0.5170  0.8763
 6180TIP3    H239956   5.748   2.598   3.670  0.3315 -0.6336  0.6978
 6181TIP3   OH239957   2.249   4.635   2.493  0.2130  0.4613  0.2923
 6181TIP3    H139958   2.338   4.649   2.526  0.1895  0.2390  0.4483
 6181TIP3    H239959   2.194   4.691   2.548  0.3333  1.1216 -0.2406
 6182TIP3   OH239960   4.320   0.117  16.029  0.2604 -0.1176 -0.1690
 6182TIP3    H139961   4.404   0.098  15.987  1.3808 -1.4494  2.4312
 6182TIP3    H239962   4.254   0.076  15.972  1.3767  0.5994 -2.0454
 6183TIP3   OH239963   5.392   0.361  11.288 -0.2599  0.5687  0.2599
 6183TIP3    H139964   5.349   0.311  11.218 -0.8944 -0.1326  1.1182
 6183TIP3    H239965   5.362   0.318  11.369 -0.0955  1.7897  0.9886
 6184TIP3   OH239966   1.598   1.623  13.324  0.4205 -0.6232  0.2740
 6184TIP3    H139967   1.604   1.664  13.411 -0.8112  0.1580  0.0206
 6184TIP3    H239968   1.505   1.633  13.300  0.7467 -0.8257 -1.1296
 6185TIP3   OH239969   2.742   3.261  15.153  0.5992 -0.6765  0.2831
 6185TIP3    H139970   2.768   3.169  15.160  0.8007 -0.5553  1.2897
 6185TIP3    H239971   2.650   3.263  15.180  0.8340 -0.4720  1.1004
 6186TIP3   OH239972   4.399   5.080  13.513 -0.0037  0.0844 -0.4851
 6186TIP3    H139973   4.372   5.137  13.441  2.0744  0.7728 -0.7822
 6186TIP3    H239974   4.372   5.127  13.592  1.1388  1.2214 -0.7433
 6187TIP3   OH239975   4.921   1.099  16.801 -0.1137 -0.0398 -0.2485
 6187TIP3    H139976   4.854   1.061  16.857 -1.0941  0.7831 -0.8438
 6187TIP3    H239977   4.997   1.108  16.858 -0.4960 -0.9512  0.4438
 6188TIP3   OH239978   1.945   5.932  11.379  0.5109 -0.2154 -0.2381
 6188TIP3    H139979   1.964   5.933  11.285  1.6611 -1.2167 -0.0284
 6188TIP3    H239980   1.878   6.001  11.390  0.8669  0.4005 -1.6700
 6189TIP3   OH239981   3.796   5.021  15.488  0.0204 -0.0383 -0.3316
 6189TIP3    H139982   3.737   5.094  15.506 -0.2889 -0.0477 -1.2513
 6189TIP3    H239983   3.800   5.016  15.392 -1.2017 -2.2115 -0.3372
 6190TIP3   OH239984   5.430   1.493  14.994  0.2174 -0.1318 -0.0556
 6190TIP3    H139985   5.445   1.430  15.064 -1.1966  1.2303  1.5621
 6190TIP3    H239986   5.359   1.549  15.026 -0.0551  0.9621 -2.3121
 6191TIP3   OH239987   4.688   4.389   4.473 -0.7903 -0.3374 -0.1194
 6191TIP3    H139988   4.776   4.375   4.438 -0.6097 -2.1999  0.9355
 6191TIP3    H239989   4.662   4.475   4.440  1.2683  0.0889 -0.7548
 6192TIP3   OH239990   3.005   5.548  12.465  0.4812 -0.9357 -0.1462
 6192TIP3    H139991   3.073   5.586  12.408  0.0896 -0.5796 -0.3857
 6192TIP3    H239992   2.995   5.458  12.433 -1.8255  0.0885 -2.6675
 6193TIP3   OH239993   1.827   4.208   0.915 -0.7532  0.3645 -0.0334
 6193TIP3    H139994   1.862   4.185   1.001 -1.2813 -1.2609 -0.2095
 6193TIP3    H239995   1.753   4.148   0.903 -1.0658  0.9793 -1.3628
 6194TIP3   OH239996   4.154   5.737  13.801 -0.3168  0.1638 -0.0342
 6194TIP3    H139997   4.149   5.793  13.878  0.9977 -0.3983  0.5021
 6194TIP3    H239998   4.220   5.780  13.746 -0.7052  0.1626 -0.5009
 6195TIP3   OH239999   6.457   0.028  16.604 -0.3457 -0.0585  0.4253
 6195TIP3    H140000   6.524   0.088  16.571 -0.0396 -0.2971  0.6035
 6195TIP3    H240001   6.461  -0.047  16.544 -0.9639  0.2391 -0.0045
 6196TIP3   OH240002   1.167   4.949   6.195 -0.2718 -0.0709 -0.4526
 6196TIP3    H140003   1.072   4.952   6.199 -0.2128  1.7239  1.3100
 6196TIP3    H240004   1.190   4.859   6.217 -1.5372 -0.6981 -1.5540
 6197TIP3   OH240005   1.927   1.383  11.335 -0.4421  0.8049  0.1556
 6197TIP3    H140006   1.838   1.419  11.341  0.0229  1.7508  2.4896
 6197TIP3    H240007   1.949   1.358  11.425  1.8256  1.0013 -0.2847
 6198TIP3   OH240008   3.721   2.988  11.023 -0.2533 -0.1688  0.3558
 6198TIP3    H140009   3.715   2.898  10.993  1.4773  0.0575 -0.8191
 6198TIP3    H240010   3.681   2.988  11.110 -1.2324 -1.8219 -0.0627
 6199TIP3   OH240011   3.489   4.566  14.046 -0.3302  0.1610 -0.2930
 6199TIP3    H140012   3.439   4.612  14.113 -1.1978  1.5339 -1.8092
 6199TIP3    H240013   3.444   4.482  14.034 -1.7327  0.9881 -0.9601
 6200TIP3   OH240014   6.043   0.722  10.800  0.5645 -0.0616 -0.0010
 6200TIP3    H140015   5.992   0.790  10.756 -0.7939 -0.6174  0.6534
 6200TIP3    H240016   6.126   0.764  10.822  0.1961  1.0301 -0.6302
 6201TIP3   OH240017   4.232   3.927   3.009  0.5196 -0.0663  0.0155
 6201TIP3    H140018   4.281   3.895   2.933  0.8015  1.4045 -0.4438
 6201TIP3    H240019   4.146   3.950   2.974  0.2427 -0.5096  0.3886
 6202TIP3   OH240020   5.419   2.436  13.600  0.4897 -0.4434  0.1358
 6202TIP3    H140021   5.420   2.505  13.534 -0.2527  0.7560  1.3070
 6202TIP3    H240022   5.341   2.455  13.653 -0.0952 -2.5689  0.1172
 6203TIP3   OH240023   4.256   6.636  10.873  0.4918  0.3644  0.0797
 6203TIP3    H140024   4.206   6.675  10.802  2.9020  2.2234 -0.7049
 6203TIP3    H240025   4.266   6.544  10.848 -0.2173  0.5774 -1.0469
 6204TIP3   OH240026   6.144   3.956  11.481  0.1788 -0.2457 -0.1875
 6204TIP3    H140027   6.139   4.046  11.515  0.1319 -0.0612 -0.6782
 6204TIP3    H240028   6.141   3.966  11.386  1.2801 -0.6921 -0.2859
 6205TIP3   OH240029   6.256   1.462   5.023 -0.2019 -0.1771  0.4719
 6205TIP3    H140030   6.264   1.543   5.075  0.2449  0.6371 -0.8274
 6205TIP3    H240031   6.336   1.460   4.971 -1.5159  0.0825 -1.6391
 6206TIP3   OH240032   0.544   0.866   1.127 -0.2598  0.1195 -0.3646
 6206TIP3    H140033   0.502   0.838   1.046 -0.6239 -1.4767  0.3220
 6206TIP3    H240034   0.471   0.891   1.184 -0.1414 -0.5081  0.0695
 6207TIP3   OH240035   1.248   4.207   5.330 -0.4657 -0.4568  0.5065
 6207TIP3    H140036   1.304   4.148   5.280 -1.4847 -2.3926  1.5344
 6207TIP3    H240037   1.217   4.271   5.266  0.4907 -1.1630 -0.7141
 6208TIP3   OH240038   1.448   5.157  11.170  0.3507  0.0245  0.0977
 6208TIP3    H140039   1.535   5.182  11.141  0.1950 -1.4954 -1.9048
 6208TIP3    H240040   1.405   5.125  11.091 -2.5151  1.9254  0.7325
 6209TIP3   OH240041   5.937   3.808   4.397 -0.1307  0.1487  0.4815
 6209TIP3    H140042   5.875   3.822   4.468 -2.0813 -2.1170 -0.6620
 6209TIP3    H240043   5.911   3.870   4.329 -0.3048  0.0830  0.4897
 6210TIP3   OH240044   6.711   3.593   1.384 -0.0116  0.1368 -0.6141
 6210TIP3    H140045   6.685   3.501   1.384 -0.5656  0.2913  0.0377
 6210TIP3    H240046   6.762   3.603   1.464 -0.0095  0.4144 -0.6519
 6211TIP3   OH240047   3.158   0.204  14.107  0.3456  0.3633 -0.2257
 6211TIP3    H140048   3.170   0.279  14.048  2.5895  0.9204  0.8127
 6211TIP3    H240049   3.088   0.231  14.166 -0.5303  0.6280 -1.3585
 6212TIP3   OH240050   6.127   1.607  11.472  0.6173  0.2834 -0.5333
 6212TIP3    H140051   6.045   1.614  11.520  0.4826 -0.0915 -0.7070
 6212TIP3    H240052   6.153   1.698  11.456 -0.0604  0.4046 -0.9796
 6213TIP3   OH240053   4.606   0.562  10.838  0.3379  0.3909  0.3132
 6213TIP3    H140054   4.548   0.551  10.763  0.5392 -1.0454  0.3452
 6213TIP3    H240055   4.548   0.562  10.914  0.3361 -0.7162  0.3224
 6214TIP3   OH240056   6.626   3.018   5.593 -0.1019 -0.0553  0.6032
 6214TIP3    H140057   6.628   3.091   5.655  1.0258  1.2077 -0.8278
 6214TIP3    H240058   6.618   3.061   5.507 -2.1886 -1.7450 -0.1315
 6215TIP3   OH240059   3.300   2.999  13.478 -0.2440  0.2436 -0.7373
 6215TIP3    H140060   3.268   3.089  13.482  0.5603  0.5528 -0.9637
 6215TIP3    H240061   3.363   2.999  13.406  0.8203 -0.1458  0.1602
 6216TIP3   OH240062   0.983   3.033  14.899 -0.0007 -0.5289  0.3214
 6216TIP3    H140063   0.948   2.983  14.826 -1.2468 -0.0096  0.5386
 6216TIP3    H240064   1.029   3.107  14.859  0.1155 -0.7489  0.0503
 6217TIP3   OH240065   4.349   6.651  12.605  0.5930  0.0016 -0.1503
 6217TIP3    H140066   4.424   6.593  12.620 -0.8366 -1.1674  3.5466
 6217TIP3    H240067   4.374   6.734  12.646  0.4479  0.1038 -0.2675
 6218TIP3   OH240068   2.929   5.508   1.832  0.5586  0.1197  0.3370
 6218TIP3    H140069   2.936   5.415   1.811  0.6639  0.6713 -2.4694
 6218TIP3    H240070   2.844   5.517   1.875  0.6961 -1.2964  0.9479
 6219TIP3   OH240071   6.050   2.064  16.190 -0.2522  0.2208 -0.0102
 6219TIP3    H140072   6.088   2.149  16.168  0.1558  0.8703  2.8361
 6219TIP3    H240073   6.102   2.001  16.140  1.5395  1.4419  0.2034
 6220TIP3   OH240074   3.654   2.640   4.218 -0.1950 -0.2130  0.3559
 6220TIP3    H140075   3.596   2.640   4.141 -0.3758  0.4189  0.4872
 6220TIP3    H240076   3.741   2.625   4.181 -0.4389 -1.3028  0.1685
 6221TIP3   OH240077   5.064   0.390  15.050  0.0011 -0.0146  0.2147
 6221TIP3    H140078   5.038   0.342  15.128 -0.2405 -0.1717  0.0409
 6221TIP3    H240079   5.003   0.463  15.044  0.7792  0.7122  0.8440
 6222TIP3   OH240080   0.947   4.995  16.969  0.5605 -0.3458  0.3441
 6222TIP3    H140081   0.875   5.028  17.023 -0.6773  1.2678 -2.1103
 6222TIP3    H240082   0.917   4.910  16.938  1.2278 -1.2269  2.0236
 6223TIP3   OH240083   4.548   5.005   0.135 -0.2240 -0.1270 -0.8819
 6223TIP3    H140084   4.562   5.084   0.083 -0.4498 -0.4051 -1.3763
 6223TIP3    H240085   4.635   4.981   0.167  0.1199 -0.6427 -2.1554
 6224TIP3   OH240086   3.272   4.203  12.827 -0.5637  0.2265  0.4025
 6224TIP3    H140087   3.249   4.291  12.855  0.4830  0.8914 -0.6954
 6224TIP3    H240088   3.323   4.216  12.747 -2.0373 -1.4744 -0.8968
 6225TIP3   OH240089   0.621   2.994   6.040  0.1753 -0.6181  0.1089
 6225TIP3    H140090   0.600   3.025   6.128 -0.3143  0.1994 -0.2851
 6225TIP3    H240091   0.608   2.899   6.044 -1.6734 -0.3837  0.4387
 6226TIP3   OH240092   4.299   0.169   0.813 -0.2112  0.3542 -0.1183
 6226TIP3    H140093   4.212   0.182   0.850  0.1512  2.3329  0.1224
 6226TIP3    H240094   4.329   0.086   0.851 -2.5834 -1.2312 -1.4645
 6227TIP3   OH240095   4.844   0.385   4.711 -0.4227 -0.1424 -0.4250
 6227TIP3    H140096   4.802   0.331   4.778 -1.5933  0.3490 -0.7265
 6227TIP3    H240097   4.783   0.382   4.637  0.1666  0.4640 -0.9467
 6228TIP3   OH240098   4.752   6.402  12.432 -0.0131 -0.5289 -0.1211
 6228TIP3    H140099   4.662   6.417  12.404  0.7391  1.5117 -1.6664
 6228TIP3    H240100   4.783   6.329  12.379 -0.4492 -0.5692 -0.3182
 6229TIP3   OH240101   1.027   6.004   4.804 -0.0295 -0.4529 -0.4291
 6229TIP3    H140102   1.016   6.088   4.848  0.4446 -0.3125 -0.5660
 6229TIP3    H240103   0.941   5.962   4.809 -0.1288 -0.1907  0.1118
 6230TIP3   OH240104   0.568   6.700   0.674 -0.0634 -0.7940 -0.0772
 6230TIP3    H140105   0.533   6.761   0.609  2.6567 -0.9938 -1.8962
 6230TIP3    H240106   0.568   6.615   0.630  1.2510 -1.0569  0.3897
 6231TIP3   OH240107   4.915   3.771   1.339 -0.3447  0.1966  0.3475
 6231TIP3    H140108   4.871   3.726   1.267  1.6346 -0.4316 -0.5277
 6231TIP3    H240109   4.919   3.863   1.312  1.9807 -0.3114 -1.2525
 6232TIP3   OH240110   0.138   3.703  14.149 -0.2344 -0.5754  0.1039
 6232TIP3    H140111   0.193   3.695  14.227 -1.1373 -0.7879  0.7368
 6232TIP3    H240112   0.200   3.704  14.076  0.5756 -1.4506  0.7487
 6233TIP3   OH240113   0.483   4.707   2.549  0.2051 -0.2766  0.9244
 6233TIP3    H140114   0.435   4.788   2.565  0.6871 -0.0257  1.1247
 6233TIP3    H240115   0.416   4.644   2.522  0.1901  1.2649 -3.5732
 6234TIP3   OH240116   5.562   0.509  14.224 -0.4181  0.1480 -0.4064
 6234TIP3    H140117   5.579   0.508  14.319 -1.0388 -3.1565 -0.1917
 6234TIP3    H240118   5.648   0.520  14.185 -0.0116  0.5144  0.5556
 6235TIP3   OH240119   0.016   1.348  12.070  0.4653  1.0141 -0.6144
 6235TIP3    H140120   0.036   1.254  12.068 -1.6768  0.5125 -0.6276
 6235TIP3    H240121   0.049   1.380  11.985 -1.0238 -0.2651 -1.7389
 6236TIP3   OH240122   3.429   4.673  15.933  0.5324 -0.2549 -0.3723
 6236TIP3    H140123   3.412   4.742  15.868 -0.3434  0.6134  0.7253
 6236TIP3    H240124   3.350   4.619  15.931 -0.6577  1.2463  1.6745
 6237TIP3   OH240125   4.068   0.905  12.305 -0.0413  0.0708  0.0592
 6237TIP3    H140126   4.027   0.923  12.390  1.3465 -0.8801  0.9753
 6237TIP3    H240127   3.999   0.861  12.255 -0.8294  0.4931  0.7411
 6238TIP3   OH240128   4.132   0.004  12.451  0.3100  0.1417 -0.0549
 6238TIP3    H140129   4.200  -0.042  12.501  1.1489  0.1873 -1.1270
 6238TIP3    H240130   4.180   0.061  12.391 -0.6818  0.3956 -0.6330
 6239TIP3   OH240131   2.087   0.668  11.872  0.4952  0.2347  0.0691
 6239TIP3    H140132   2.109   0.575  11.871  0.7368  0.2908  0.1789
 6239TIP3    H240133   2.019   0.676  11.939 -0.3660 -0.0511 -0.7527
 6240TIP3   OH240134   3.879   6.237  13.471 -0.7415 -0.0143 -0.9033
 6240TIP3    H140135   3.910   6.218  13.560 -1.1964  1.7279 -0.3332
 6240TIP3    H240136   3.887   6.153  13.425 -0.8726 -1.0738  0.8742
 6241TIP3   OH240137   2.244   1.951   3.719 -0.4197  0.4378 -0.3898
 6241TIP3    H140138   2.302   1.928   3.791 -1.5341 -0.5306  0.2406
 6241TIP3    H240139   2.164   1.982   3.762 -1.1569 -0.2979 -1.1849
 6242TIP3   OH240140   1.678   1.106  14.573  0.0501  0.0594  0.1126
 6242TIP3    H140141   1.701   1.189  14.615  1.6560 -0.1307 -0.3208
 6242TIP3    H240142   1.747   1.092  14.508 -0.6281 -1.2249 -0.3657
 6243TIP3   OH240143   2.392   3.070   2.970 -0.2499  0.1287  0.6803
 6243TIP3    H140144   2.447   3.079   3.047 -0.4007  0.2536  0.7735
 6243TIP3    H240145   2.303   3.059   3.004 -0.4948  1.3807  0.5167
 6244TIP3   OH240146   5.320   4.310  16.758 -0.2022  0.3078  0.0311
 6244TIP3    H140147   5.254   4.242  16.752 -1.5674  1.6821 -1.6003
 6244TIP3    H240148   5.358   4.313  16.670  0.2643  1.2288  0.2591
 6245TIP3   OH240149   3.088   2.156   5.638  1.0784 -0.5316 -0.0162
 6245TIP3    H140150   3.177   2.123   5.628  1.0484 -0.2233 -1.4592
 6245TIP3    H240151   3.098   2.251   5.644  0.8073 -0.4475 -0.8084
 6246TIP3   OH240152   6.134   2.632   3.078  0.0379 -0.3206 -0.0795
 6246TIP3    H140153   6.200   2.675   3.024  0.2736 -0.5296  0.0413
 6246TIP3    H240154   6.051   2.651   3.033  0.0697  0.7413  0.2954
 6247TIP3   OH240155   4.400   4.043  12.382 -0.4591  0.2203 -0.2133
 6247TIP3    H140156   4.374   4.069  12.470  0.3433  0.4268 -0.0284
 6247TIP3    H240157   4.366   3.954  12.371  0.6916 -0.3788  0.8595
 6248TIP3   OH240158   4.051   1.699   3.294  0.1623  0.2256 -0.1249
 6248TIP3    H140159   3.976   1.720   3.238 -0.1417  1.1221  0.6055
 6248TIP3    H240160   4.112   1.771   3.281 -0.5414  1.2194  1.7866
 6249TIP3   OH240161   3.349   1.492   0.369  0.0525 -0.0280 -0.3311
 6249TIP3    H140162   3.400   1.500   0.288 -0.9747  0.4625 -0.9431
 6249TIP3    H240163   3.385   1.414   0.412  0.1419 -0.7104 -1.5951
 6250TIP3   OH240164   4.159   6.191   3.569  0.5244  0.1013  0.0691
 6250TIP3    H140165   4.234   6.250   3.576  1.2192 -0.4503 -1.9467
 6250TIP3    H240166   4.082   6.248   3.571  1.1597  1.0540 -1.3081
 6251TIP3   OH240167   6.689   6.597  17.226  0.4304  0.1665  0.4195
 6251TIP3    H140168   6.721   6.677  17.267  0.4500 -0.2877  1.2996
 6251TIP3    H240169   6.756   6.574  17.162 -1.0915  2.6919 -2.3619
 6252TIP3   OH240170   5.146   1.357   3.096 -0.5502 -0.4214 -0.2520
 6252TIP3    H140171   5.226   1.330   3.141 -0.4199 -0.9669 -0.7967
 6252TIP3    H240172   5.159   1.328   3.005 -1.7178 -1.2937 -0.1657
 6253TIP3   OH240173   5.087   0.401   4.587  0.0941  0.0825  0.0406
 6253TIP3    H140174   5.023   0.384   4.656 -0.2220  1.2697  0.0621
 6253TIP3    H240175   5.053   0.355   4.510 -0.3846  0.0858  0.2493
 6254TIP3   OH240176   4.514   1.868   6.017 -0.1345 -0.6391 -0.4354
 6254TIP3    H140177   4.591   1.818   6.043 -0.0261  0.3688  1.3676
 6254TIP3    H240178   4.442   1.829   6.067  0.1548  1.6469  1.9824
 6255TIP3   OH240179   2.980   0.288  13.712  0.1960  0.4356 -0.5866
 6255TIP3    H140180   2.964   0.304  13.619 -0.1765 -0.6405 -0.7297
 6255TIP3    H240181   2.916   0.343  13.757 -0.9333 -0.4443 -1.0427
 6256TIP3   OH240182   5.058   2.592  14.420 -0.0322  0.2077 -0.1063
 6256TIP3    H140183   5.026   2.622  14.505 -2.7117  0.4080 -1.0986
 6256TIP3    H240184   5.132   2.651  14.400  1.7592 -0.8854  2.7281
 6257TIP3   OH240185   2.303   5.224   6.421 -0.3216  0.2840  0.2809
 6257TIP3    H140186   2.383   5.195   6.376 -0.1488  2.7204 -1.1687
 6257TIP3    H240187   2.266   5.144   6.458  1.8086 -1.2013 -0.5990
 6258TIP3   OH240188   0.851   0.905  14.926  0.3384  0.2559  0.4551
 6258TIP3    H140189   0.887   0.991  14.949  1.8312  0.3457 -1.9412
 6258TIP3    H240190   0.926   0.846  14.927 -0.0881 -0.3603 -0.9548
 6259TIP3   OH240191   1.585   3.902   4.758 -0.8839 -0.2792 -0.1490
 6259TIP3    H140192   1.595   3.807   4.749  0.2745 -0.0966 -1.1460
 6259TIP3    H240193   1.496   3.914   4.790 -0.4966 -1.7738  1.6706
 6260TIP3   OH240194   0.120   1.913   0.715 -0.2234  0.2374  0.0415
 6260TIP3    H140195   0.170   1.994   0.720  0.7235 -0.3201 -0.0491
 6260TIP3    H240196   0.187   1.844   0.709 -1.0047 -0.5412  0.0410
 6261TIP3   OH240197   1.857   4.018  15.099  0.0452  0.3257  0.3286
 6261TIP3    H140198   1.916   3.966  15.154 -1.9097 -4.0113 -1.2048
 6261TIP3    H240199   1.774   4.019  15.147 -0.0025  2.0529  0.2500
 6262TIP3   OH240200   2.508   0.621   0.800 -0.2053 -0.4718 -0.5001
 6262TIP3    H140201   2.597   0.657   0.799 -0.6062  0.8965  2.1729
 6262TIP3    H240202   2.501   0.578   0.886 -1.4319 -2.5947 -1.5824
 6263TIP3   OH240203   5.058   5.691  15.335 -0.5661 -0.1307 -0.2105
 6263TIP3    H140204   5.118   5.692  15.261 -0.7447 -0.1581 -0.3576
 6263TIP3    H240205   4.991   5.627  15.311  0.8739 -2.2786  1.2004
 6264TIP3   OH240206   4.210   3.489   3.264  0.2468  0.3263 -0.6584
 6264TIP3    H140207   4.248   3.401   3.263 -2.4848 -0.9600 -2.4053
 6264TIP3    H240208   4.279   3.544   3.302  1.7311 -2.6551  1.3817
 6265TIP3   OH240209   4.726   6.638   5.670  0.1064 -0.2426 -0.1254
 6265TIP3    H140210   4.675   6.708   5.710  1.8392  0.3594  1.1595
 6265TIP3    H240211   4.724   6.567   5.735  1.4340  0.0493  0.2627
 6266TIP3   OH240212   6.030   2.719   1.761  0.1332 -0.0586  0.3690
 6266TIP3    H140213   6.118   2.757   1.751  0.2231 -0.0852  1.0303
 6266TIP3    H240214   5.971   2.792   1.742  0.2194 -0.6670 -2.8269
 6267TIP3   OH240215   0.322   2.617  12.757 -0.0689 -0.0479 -0.4964
 6267TIP3    H140216   0.334   2.686  12.691 -0.5921  1.8089  1.2225
 6267TIP3    H240217   0.232   2.631  12.789  1.1520  1.2428  2.7692
 6268TIP3   OH240218   4.644   5.558  10.648 -0.1728 -0.0785 -0.6461
 6268TIP3    H140219   4.655   5.492  10.717  0.9694  0.0021 -0.7388
 6268TIP3    H240220   4.615   5.508  10.572 -2.9654  0.0086  0.2408
 6269TIP3   OH240221   2.499   4.835   0.782 -0.4780 -0.2626 -0.4494
 6269TIP3    H140222   2.410   4.841   0.815 -1.6677  0.0531 -3.4208
 6269TIP3    H240223   2.517   4.922   0.745  0.3872 -0.8234 -1.4163
 6270TIP3   OH240224   5.681   6.536   4.719 -0.8049  0.3533 -0.3555
 6270TIP3    H140225   5.739   6.476   4.672 -0.4907  0.2313  0.1820
 6270TIP3    H240226   5.740   6.588   4.775 -1.3147 -0.7281  1.2645
 6271TIP3   OH240227   5.123   2.617   6.056  0.1697 -0.0767 -0.5903
 6271TIP3    H140228   5.140   2.526   6.030 -2.1772 -0.4564 -1.0083
 6271TIP3    H240229   5.160   2.623   6.144  2.5250 -0.6729 -1.4569
 6272TIP3   OH240230   1.009   5.289   0.351  0.4247 -0.2303  0.4470
 6272TIP3    H140231   0.920   5.258   0.368  0.3788 -0.1197  0.4126
 6272TIP3    H240232   1.057   5.270   0.432  0.3455 -0.2046  0.5000
 6273TIP3   OH240233   0.378   6.448  14.750 -0.1826 -0.1876  0.2640
 6273TIP3    H140234   0.319   6.504  14.698  0.8756  0.9904  0.2836
 6273TIP3    H240235   0.453   6.434  14.693  0.3380 -0.1075  0.9291
 6274TIP3   OH240236   1.818   2.928   0.427  0.2219 -0.2674 -0.3081
 6274TIP3    H140237   1.844   3.019   0.410 -0.1628  0.1023  0.9370
 6274TIP3    H240238   1.735   2.917   0.380 -0.6648  0.6240  0.9698
 6275TIP3   OH240239   2.665   2.733  17.253  0.2470 -0.2550 -0.2609
 6275TIP3    H140240   2.584   2.687  17.275  0.3036 -0.5806 -0.7250
 6275TIP3    H240241   2.658   2.751  17.160  0.0522  1.0343 -0.0138
 6276TIP3   OH240242   0.619   2.916  16.425  0.1381 -0.0318  0.3550
 6276TIP3    H140243   0.652   2.982  16.364 -0.4116 -0.0623  0.0244
 6276TIP3    H240244   0.566   2.858  16.372 -1.0998  0.4590  1.0015
 6277TIP3   OH240245   4.554   4.189  15.288 -0.1434 -0.1093  0.8694
 6277TIP3    H140246   4.531   4.270  15.334 -1.2237 -0.6952  1.4103
 6277TIP3    H240247   4.626   4.214  15.230 -1.9110  1.7989 -0.6601
 6278TIP3   OH240248   4.914   4.008   0.735 -0.2022  0.3481 -0.1915
 6278TIP3    H140249   4.860   3.993   0.812  1.0204  2.1104  1.1024
 6278TIP3    H240250   4.991   3.952   0.749  0.6524  1.6564  0.6260
 6279TIP3   OH240251   0.572   5.496   1.879 -0.2130 -0.3687 -0.0008
 6279TIP3    H140252   0.627   5.527   1.806 -1.9941  0.8902 -0.8957
 6279TIP3    H240253   0.485   5.485   1.840 -1.1229 -0.0696  1.8550
 6280TIP3   OH240254   6.401   3.018  16.715  0.0321 -0.3581 -0.0577
 6280TIP3    H140255   6.393   3.085  16.783 -0.8692 -0.0131 -0.4900
 6280TIP3    H240256   6.428   3.066  16.637  1.9723 -0.8721  0.2342
 6281TIP3   OH240257   0.355   0.921  14.832  0.0697  0.2880 -0.1918
 6281TIP3    H140258   0.412   0.868  14.777 -1.4365  0.3295 -1.8625
 6281TIP3    H240259   0.267   0.891  14.811 -0.6453  1.5121  0.9384
 6282TIP3   OH240260   1.298   2.201  15.950  0.3996  0.6967  0.5344
 6282TIP3    H140261   1.330   2.194  16.040  0.7970  1.3364  0.4496
 6282TIP3    H240262   1.259   2.115  15.932  2.0386 -0.1055  0.6603
 6283TIP3   OH240263   4.857   4.463   6.523 -0.4500 -0.2673  0.0449
 6283TIP3    H140264   4.886   4.549   6.553  0.7869 -1.0606  1.3050
 6283TIP3    H240265   4.774   4.448   6.569 -0.0958 -0.1920  0.7303
 6284TIP3   OH240266   1.421   0.605   3.631 -0.4700 -0.1320 -0.5292
 6284TIP3    H140267   1.481   0.653   3.573  0.5352 -2.4495 -1.5375
 6284TIP3    H240268   1.348   0.581   3.574 -1.2859  0.6996  0.1314
 6285TIP3   OH240269   0.123   1.174  10.510  0.3507  0.2693  0.3999
 6285TIP3    H140270   0.088   1.155  10.423 -0.2101 -0.9935  0.8897
 6285TIP3    H240271   0.160   1.092  10.540 -1.4313  0.0505  2.2476
 6286TIP3   OH240272   5.864   4.487   4.262 -0.3891 -0.0114  0.0494
 6286TIP3    H140273   5.812   4.412   4.290 -1.1891  0.0796 -1.1632
 6286TIP3    H240274   5.945   4.449   4.229 -1.3112 -0.4655 -1.7741
 6287TIP3   OH240275   6.696   4.679  13.516 -0.4672 -0.6053  0.1442
 6287TIP3    H140276   6.626   4.672  13.451  0.6762  0.4756 -1.2669
 6287TIP3    H240277   6.754   4.748  13.482  2.1996 -2.5734  0.4019
 6288TIP3   OH240278   3.710   4.367   1.253  0.4081 -0.1530  0.1353
 6288TIP3    H140279   3.686   4.453   1.219  0.2074  0.0515  0.7705
 6288TIP3    H240280   3.783   4.384   1.313  1.0605 -0.5637 -0.5259
 6289TIP3   OH240281   3.974   1.570  13.006 -0.6914 -0.6220 -0.2268
 6289TIP3    H140282   3.905   1.576  12.940  0.4631 -3.0627 -1.7789
 6289TIP3    H240283   4.053   1.597  12.961  0.2172 -2.8569 -0.0733
 6290TIP3   OH240284   1.506   4.658  14.941  0.1475 -0.2540 -0.1643
 6290TIP3    H140285   1.531   4.716  14.870 -0.7894 -0.8003 -0.9777
 6290TIP3    H240286   1.563   4.582  14.931 -1.2699 -1.1892 -1.5784
 6291TIP3   OH240287   2.024   6.778   0.945 -0.2505  0.1601 -0.3754
 6291TIP3    H140288   2.038   6.742   1.033 -2.0723  0.0024 -0.1059
 6291TIP3    H240289   2.052   6.707   0.887 -0.5647 -0.3804  0.1114
 6292TIP3   OH240290   2.615   3.819   5.871  0.5425 -0.6451 -0.0936
 6292TIP3    H140291   2.665   3.758   5.817  0.6306  1.1282 -2.1472
 6292TIP3    H240292   2.646   3.906   5.845 -1.7226  0.4301  0.4856
 6293TIP3   OH240293   3.157   1.648  13.343 -0.1123 -0.5050 -0.0475
 6293TIP3    H140294   3.185   1.575  13.398  0.2062 -0.9681 -0.7986
 6293TIP3    H240295   3.176   1.726  13.394 -0.6695 -0.9556  0.8671
 6294TIP3   OH240296   0.659   2.426   3.579 -0.0194  0.5462  0.8101
 6294TIP3    H140297   0.667   2.505   3.632  1.5412  0.5044  0.6650
 6294TIP3    H240298   0.710   2.360   3.626  1.4994  0.5382 -0.7507
 6295TIP3   OH240299   3.577   0.612   1.312  0.0912 -0.4411  0.1367
 6295TIP3    H140300   3.587   0.707   1.321  2.2975 -0.2991 -2.5056
 6295TIP3    H240301   3.521   0.601   1.235  0.0213 -1.2808  0.3027
 6296TIP3   OH240302   3.350   0.691   3.382 -0.3785 -0.4068 -0.3211
 6296TIP3    H140303   3.381   0.612   3.426  1.4084 -0.0810 -0.9001
 6296TIP3    H240304   3.430   0.739   3.360 -1.3816  1.1203 -0.8012
 6297TIP3   OH240305   2.863   4.779  16.108  0.2420 -0.4133  0.4742
 6297TIP3    H140306   2.841   4.694  16.071 -0.4210 -0.3469  0.7076
 6297TIP3    H240307   2.867   4.838  16.032  1.1267 -0.7282  0.2646
 6298TIP3   OH240308   6.482   0.510   5.904 -0.6053 -0.3672 -0.5770
 6298TIP3    H140309   6.463   0.586   5.958 -1.3024 -0.7748 -0.2335
 6298TIP3    H240310   6.518   0.445   5.965 -1.9210 -1.0285 -0.4740
 6299TIP3   OH240311   3.124   4.247   1.362  0.2364 -0.1658 -0.1247
 6299TIP3    H140312   3.092   4.232   1.273 -0.0489 -1.1109  0.1258
 6299TIP3    H240313   3.193   4.311   1.352 -1.2211  1.3871 -0.7776
 6300TIP3   OH240314   5.749   3.211  16.406  0.2182  0.0203  0.0313
 6300TIP3    H140315   5.798   3.293  16.398  0.7023 -0.1343  1.1787
 6300TIP3    H240316   5.661   3.238  16.429 -0.5330  0.3432 -2.8415
 6301TIP3   OH240317   2.933   0.418  10.902  0.2765  0.3835 -0.6170
 6301TIP3    H140318   2.987   0.409  10.980 -0.9459 -2.3623  0.0308
 6301TIP3    H240319   2.862   0.477  10.929  1.4175  1.8184 -0.6353
 6302TIP3   OH240320   3.022   4.474  16.633 -0.6259 -0.2277  0.0976
 6302TIP3    H140321   2.945   4.418  16.633 -1.0813  0.2960 -2.4768
 6302TIP3    H240322   2.999   4.547  16.691 -0.5280 -1.8990  2.3958
 6303TIP3   OH240323   4.159   4.042   2.141  0.2446  0.0386  0.3584
 6303TIP3    H140324   4.196   3.984   2.074  0.9685 -0.3082  1.0467
 6303TIP3    H240325   4.077   4.074   2.102  0.5149 -0.3696 -0.5780
 6304TIP3   OH240326   0.747   5.329  14.116  0.1004 -0.7203  0.0086
 6304TIP3    H140327   0.787   5.385  14.049 -0.5807  0.5687  0.6426
 6304TIP3    H240328   0.784   5.361  14.198  0.5318 -1.9504  0.3200
 6305TIP3   OH240329   1.417   0.955  14.381 -0.2720 -0.5969  0.0212
 6305TIP3    H140330   1.356   0.983  14.450  1.2221 -0.5072  1.3563
 6305TIP3    H240331   1.455   0.874  14.414  0.4540 -0.5658 -0.7136
 6306TIP3   OH240332   3.008   3.183   2.456  0.5047 -0.1406  0.8132
 6306TIP3    H140333   3.091   3.140   2.474  1.1539  0.5657 -0.3461
 6306TIP3    H240334   2.970   3.200   2.542  0.7124 -2.0469  1.3182
 6307TIP3   OH240335   5.832   6.186  16.595 -0.0812  0.3762  0.1736
 6307TIP3    H140336   5.786   6.118  16.546  0.4312  1.7523 -2.4029
 6307TIP3    H240337   5.789   6.188  16.680 -0.7282 -2.4840  0.0137
 6308TIP3   OH240338   6.394   1.701  15.119  0.1795 -0.0070 -0.3212
 6308TIP3    H140339   6.346   1.732  15.196  0.9660  0.3339  0.0497
 6308TIP3    H240340   6.446   1.627  15.152  1.4271  0.8854 -0.2232
 6309TIP3   OH240341   6.071   4.310   1.131 -0.4998 -0.1965 -0.2665
 6309TIP3    H140342   6.117   4.332   1.051 -0.7786 -0.1866 -0.4252
 6309TIP3    H240343   6.120   4.238   1.169  1.1973  1.4839  0.9195
 6310TIP3   OH240344   5.279   2.781  10.796 -0.3455 -0.1214 -0.4980
 6310TIP3    H140345   5.236   2.699  10.769 -0.5183 -0.3520  0.4329
 6310TIP3    H240346   5.251   2.845  10.731 -0.7318 -0.6584 -0.8710
 6311TIP3   OH240347   6.678   1.696  10.397  0.5963  0.6176  0.2644
 6311TIP3    H140348   6.751   1.749  10.428  0.4433  1.1530 -0.2830
 6311TIP3    H240349   6.715   1.609  10.386  0.9752  0.7205  0.6770
 6312TIP3   OH240350   1.851   0.306   5.618  0.4966  0.4629  0.0617
 6312TIP3    H140351   1.847   0.309   5.713 -0.4435  1.0853  0.0120
 6312TIP3    H240352   1.798   0.381   5.589 -0.2658 -0.4393 -0.9630
 6313TIP3   OH240353   1.029   6.255  14.215  0.2491 -0.6281  0.3137
 6313TIP3    H140354   1.016   6.181  14.275 -0.7178 -0.0138  0.8801
 6313TIP3    H240355   1.109   6.297  14.246 -0.6644  0.1496  1.6891
 6314TIP3   OH240356   0.618   0.478  15.828  0.4657  0.0118  0.1668
 6314TIP3    H140357   0.705   0.499  15.862  0.8148 -0.7945 -0.1992
 6314TIP3    H240358   0.559   0.492  15.902  1.0705 -0.6479  0.7982
 6315TIP3   OH240359   3.297   4.983   4.131 -0.1642  0.0742 -0.0713
 6315TIP3    H140360   3.290   4.912   4.195  0.3818 -0.5115 -0.6543
 6315TIP3    H240361   3.248   4.952   4.055 -0.5948  0.6651 -0.0501
 6316TIP3   OH240362   2.446   1.413   4.282  0.4299 -0.2090 -0.1515
 6316TIP3    H140363   2.504   1.378   4.215  1.1003  0.6383 -0.0289
 6316TIP3    H240364   2.496   1.407   4.363  0.4234  0.6602 -0.0659
 6317TIP3   OH240365   4.256   0.232  15.632 -0.1528 -0.8741  0.2810
 6317TIP3    H140366   4.207   0.295  15.580 -0.1681 -1.2839 -0.2037
 6317TIP3    H240367   4.347   0.259  15.624  0.0252 -1.8072 -1.2075
 6318TIP3   OH240368   2.044   0.654  12.769 -0.3266 -0.1384 -0.3433
 6318TIP3    H140369   2.107   0.588  12.797  0.8036  0.7488 -0.7104
 6318TIP3    H240370   2.084   0.737  12.794 -1.0414  0.4746 -1.1792
 6319TIP3   OH240371   1.315   0.058  15.246  0.1808  0.0128 -0.2618
 6319TIP3    H140372   1.400   0.076  15.205 -0.0300 -0.7730 -1.0833
 6319TIP3    H240373   1.334  -0.011  15.309  0.1812 -0.0421 -0.3219
 6320TIP3   OH240374   5.015   0.255  12.626  0.7772 -0.2921  0.2486
 6320TIP3    H140375   5.045   0.168  12.601  0.5922  0.2272 -2.0000
 6320TIP3    H240376   5.083   0.314  12.594 -0.5486  0.5903 -1.0701
 6321TIP3   OH240377   0.085   0.055   2.435  0.0955  0.0249 -0.0724
 6321TIP3    H140378   0.043   0.134   2.471 -0.4088 -0.0054 -0.5865
 6321TIP3    H240379   0.093  -0.003   2.510  1.0604  0.8092  0.4519
 6322TIP3   OH240380   4.463   5.752  16.435 -0.2422 -0.4700  0.3645
 6322TIP3    H140381   4.464   5.780  16.343 -1.1589  1.3113  0.8540
 6322TIP3    H240382   4.375   5.717  16.448 -0.2585 -0.3055  0.6872
 6323TIP3   OH240383   4.869   3.393  14.013  0.3406 -0.3609  0.5748
 6323TIP3    H140384   4.964   3.398  14.008  0.3864 -1.6622 -0.3545
 6323TIP3    H240385   4.839   3.484  14.015  1.4307  0.2237 -3.0190
 6324TIP3   OH240386   6.374   2.593  15.476  0.5876 -0.7888 -0.2970
 6324TIP3    H140387   6.321   2.625  15.550  1.2389 -0.7139  0.1412
 6324TIP3    H240388   6.390   2.672  15.424 -0.9065 -1.0386 -1.2011
 6325TIP3   OH240389   4.261   5.436  14.895  0.3493 -0.1100  0.6127
 6325TIP3    H140390   4.170   5.408  14.905 -0.7936  1.9731 -2.4066
 6325TIP3    H240391   4.265   5.520  14.942  0.5550  0.0426  0.3274
 6326TIP3   OH240392   1.561   3.893  17.211 -0.2192  0.3288  0.0176
 6326TIP3    H140393   1.614   3.827  17.165  0.0661 -0.8021  1.8704
 6326TIP3    H240394   1.564   3.970  17.154 -1.3571 -1.4800 -2.7571
 6327TIP3   OH240395   1.424   0.902   2.368  0.2695 -0.4802 -0.0932
 6327TIP3    H140396   1.333   0.887   2.392 -0.4211  0.0751 -2.1460
 6327TIP3    H240397   1.452   0.821   2.325  1.2922 -1.2435  1.8937
 6328TIP3   OH240398   5.197   6.038   3.442  0.0721 -0.5379  0.0072
 6328TIP3    H140399   5.215   6.116   3.389 -1.4991  0.2672  0.5759
 6328TIP3    H240400   5.165   5.973   3.380 -0.1114 -0.1816 -0.2770
 6329TIP3   OH240401   4.753   6.329   4.332  0.0475 -0.5630 -0.4953
 6329TIP3    H140402   4.816   6.319   4.261  1.0195  0.7118  0.1240
 6329TIP3    H240403   4.806   6.321   4.412 -0.8207 -0.8488  0.0662
 6330TIP3   OH240404   5.601   2.851   1.439 -0.0396  0.2152 -0.0306
 6330TIP3    H140405   5.649   2.810   1.511  0.7807 -1.1474 -1.2843
 6330TIP3    H240406   5.669   2.890   1.384 -0.6186  0.9120 -0.2664
 6331TIP3   OH240407   2.920   5.709   5.527  0.2558  0.6469  0.0406
 6331TIP3    H140408   2.906   5.625   5.483 -2.7928  1.0846  0.0143
 6331TIP3    H240409   2.962   5.764   5.461 -0.5183  0.0465 -0.9797
 6332TIP3   OH240410   4.475   6.503   3.008  0.2518 -0.4858  0.2282
 6332TIP3    H140411   4.408   6.487   2.942 -1.6972 -0.2519  2.0238
 6332TIP3    H240412   4.539   6.433   2.996  0.9360  0.5414 -2.9626
 6333TIP3   OH240413   5.163   0.768  12.433 -0.4290  0.1196 -0.2229
 6333TIP3    H140414   5.100   0.807  12.494  1.5110  2.1458  0.6467
 6333TIP3    H240415   5.246   0.769  12.481  1.0084  0.9865 -2.5658
 6334TIP3   OH240416   0.035   0.056  11.419  0.0223 -0.5165  0.1099
 6334TIP3    H140417  -0.060   0.064  11.421  0.1513  1.9727  0.8999
 6334TIP3    H240418   0.062   0.072  11.509  1.2472  0.8211 -0.4533
 6335TIP3   OH240419   3.880   6.432  15.785 -0.1370 -0.0418  0.7724
 6335TIP3    H140420   3.857   6.395  15.700  0.3524 -0.0492  0.6450
 6335TIP3    H240421   3.838   6.373  15.849  0.6786 -0.8594  0.5750
 6336TIP3   OH240422   6.521   0.457  15.159 -0.7786 -0.2585  0.1057
 6336TIP3    H140423   6.578   0.382  15.177 -1.7852 -0.9280  0.6707
 6336TIP3    H240424   6.549   0.490  15.074 -0.6425 -1.6045 -0.3898
 6337TIP3   OH240425   3.798   0.974  16.011 -0.1379  0.0412  0.0113
 6337TIP3    H140426   3.788   1.062  16.047  0.0831  0.6467 -1.3622
 6337TIP3    H240427   3.794   0.916  16.088  0.8235  1.3080  1.0606
 6338TIP3   OH240428   1.430   0.782   4.581  0.0669 -0.1783  0.2533
 6338TIP3    H140429   1.512   0.733   4.576 -0.2739 -0.6819 -0.7104
 6338TIP3    H240430   1.364   0.722   4.546 -0.1814  1.3299 -2.0588
 6339TIP3   OH240431   0.132   4.647   4.349  0.5311 -0.0366 -0.0668
 6339TIP3    H140432   0.065   4.650   4.417  0.3715  0.6886 -0.2438
 6339TIP3    H240433   0.209   4.612   4.392 -0.5794 -3.1998 -0.4141
 6340TIP3   OH240434   2.311   3.363  11.670 -0.1880 -0.2378 -0.0385
 6340TIP3    H140435   2.320   3.425  11.743  1.0169  0.4268 -0.7054
 6340TIP3    H240436   2.219   3.370  11.644 -0.1530  1.0628  0.1005
 6341TIP3   OH240437   1.456   2.285   5.205 -0.1831  0.3064 -0.3564
 6341TIP3    H140438   1.368   2.256   5.178 -0.0914  1.2247 -1.7585
 6341TIP3    H240439   1.448   2.303   5.298 -1.4842  0.3416 -0.4516
 6342TIP3   OH240440   5.856   1.053   4.506 -0.2895 -0.1806  0.2662
 6342TIP3    H140441   5.770   1.012   4.502  0.2348 -1.3891  0.7327
 6342TIP3    H240442   5.917   0.984   4.478  0.6639  0.1245  1.4749
 6343TIP3   OH240443   4.842   1.518   4.634 -0.0674  0.2678 -0.3625
 6343TIP3    H140444   4.846   1.608   4.605  0.4431  0.2352 -0.3944
 6343TIP3    H240445   4.933   1.491   4.644 -0.1998 -0.4959 -1.1327
 6344TIP3   OH240446   2.423   3.719  14.137  0.5422  0.3548  0.0969
 6344TIP3    H140447   2.490   3.664  14.177  1.6686  1.2204 -0.5433
 6344TIP3    H240448   2.462   3.749  14.055 -1.2032 -0.3259 -1.0616
 6345TIP3   OH240449   0.556   6.680  17.262  0.2367 -0.2156  0.4195
 6345TIP3    H140450   0.559   6.682  17.166 -3.2611  0.0475  0.1770
 6345TIP3    H240451   0.529   6.768  17.287 -0.0252 -0.5995  1.5472
 6346TIP3   OH240452   6.631   4.533  17.222 -0.1099  0.1250 -0.3932
 6346TIP3    H140453   6.589   4.547  17.307  0.4123 -1.2955  0.1315
 6346TIP3    H240454   6.570   4.570  17.158 -1.4402 -0.5474  0.4546
 6347TIP3   OH240455   6.397   4.595   2.658 -0.1351 -0.1634  0.1329
 6347TIP3    H140456   6.333   4.624   2.592  1.4505 -0.4345 -1.6096
 6347TIP3    H240457   6.349   4.531   2.711 -1.8480  1.0433  0.1175
 6348TIP3   OH240458   1.428   3.297   1.015 -0.0946  0.3642 -0.2127
 6348TIP3    H140459   1.336   3.301   0.988 -0.1839 -0.3114 -0.0269
 6348TIP3    H240460   1.427   3.314   1.109  0.3482  4.1345 -0.7295
 6349TIP3   OH240461   2.851   1.985   5.049  0.1102  1.0396  0.3295
 6349TIP3    H140462   2.850   2.037   5.129  2.6129 -0.8225  1.7137
 6349TIP3    H240463   2.924   2.021   4.999  0.1915  0.5341  0.0865
 6350TIP3   OH240464   6.038   2.551   5.700  0.0129  0.3683 -0.7171
 6350TIP3    H140465   6.015   2.544   5.793 -2.2525 -1.0010 -1.3094
 6350TIP3    H240466   6.111   2.490   5.688  0.0102  0.2061  0.0475
 6351TIP3   OH240467   4.172   6.184   6.006 -0.0757  0.3349 -0.3750
 6351TIP3    H140468   4.084   6.214   6.029  0.2035 -0.6547  2.3056
 6351TIP3    H240469   4.158   6.114   5.942 -1.1205  1.0942 -1.0116
 6352TIP3   OH240470   0.530   1.032  13.009 -0.3549  0.5598 -0.2029
 6352TIP3    H140471   0.547   1.006  13.099 -0.2616 -2.8290 -1.0859
 6352TIP3    H240472   0.610   1.009  12.962 -0.9155  0.9664 -1.3996
 6353TIP3   OH240473   6.241   0.295  13.109  0.0612 -0.0809  0.3288
 6353TIP3    H140474   6.279   0.249  13.034  0.3588  0.5273  0.0975
 6353TIP3    H240475   6.160   0.248  13.127 -0.5259  0.3443 -1.0111
 6354TIP3   OH240476   0.603   2.116  13.825  0.3149 -0.1274  0.2523
 6354TIP3    H140477   0.544   2.120  13.901  0.7707  0.3472  0.5950
 6354TIP3    H240478   0.675   2.061  13.855  0.3377 -0.2059  0.0479
 6355TIP3   OH240479   5.178   1.824   4.098  0.1640 -0.1532 -0.3973
 6355TIP3    H140480   5.269   1.847   4.079 -0.6059  2.5647 -1.2501
 6355TIP3    H240481   5.177   1.808   4.192  1.6159 -0.7653 -0.4598
 6356TIP3   OH240482   4.160   6.295  11.840 -0.9653  0.2539  0.5573
 6356TIP3    H140483   4.110   6.222  11.878 -4.5814  3.1315  1.9640
 6356TIP3    H240484   4.236   6.304  11.897 -0.5314 -2.1403  0.4910
 6357TIP3   OH240485   1.960   1.249  14.066 -0.2317 -0.6650 -0.3799
 6357TIP3    H140486   1.998   1.169  14.103  0.3909  0.3644  1.3603
 6357TIP3    H240487   1.867   1.244  14.087  0.1735  0.1088  1.9131
 6358TIP3   OH240488   0.429   1.152   5.056 -0.0644  0.2776  0.1639
 6358TIP3    H140489   0.353   1.195   5.016 -0.0381  1.0808  0.9265
 6358TIP3    H240490   0.504   1.206   5.028 -0.0484  0.8681  1.2662
 6359TIP3   OH240491   0.772   1.136  13.526 -0.3544  0.5468  0.3218
 6359TIP3    H140492   0.777   1.081  13.604 -0.5963 -0.5193 -0.3907
 6359TIP3    H240493   0.848   1.194  13.532  3.3061 -3.4643 -1.5670
 6360TIP3   OH240494   5.613   3.886  14.536  0.3933  0.3070 -0.1190
 6360TIP3    H140495   5.690   3.875  14.481  0.8866  1.0416  0.4036
 6360TIP3    H240496   5.617   3.977  14.565  0.2121 -0.0878  1.2280
 6361TIP3   OH240497   2.619   0.265   0.531  0.0686 -0.3447  0.8102
 6361TIP3    H140498   2.630   0.170   0.527 -1.5491 -0.6381  2.0225
 6361TIP3    H240499   2.589   0.290   0.444  0.6169 -0.9107  0.4481
 6362TIP3   OH240500   5.706   0.910  14.496 -0.1759  0.0634  0.1795
 6362TIP3    H140501   5.741   0.991  14.533  0.4428 -1.1492  2.4682
 6362TIP3    H240502   5.670   0.864  14.572 -2.2925 -0.9666 -1.3499
 6363TIP3   OH240503   4.700   1.168   6.207 -0.1053 -0.3321 -0.4950
 6363TIP3    H140504   4.775   1.197   6.155  1.2593 -1.4503  0.7646
 6363TIP3    H240505   4.728   1.085   6.245 -1.2413  0.1462  1.5349
 6364TIP3   OH240506   6.666   3.559  14.460 -0.8006 -0.1977 -0.3854
 6364TIP3    H140507   6.661   3.651  14.484 -0.6442 -0.3719  0.3444
 6364TIP3    H240508   6.580   3.540  14.421 -0.7607  0.2993 -0.7220
 6365TIP3   OH240509   4.693   4.003   1.447  0.3996 -0.2234  0.2571
 6365TIP3    H140510   4.783   4.021   1.476  1.0281 -2.2264 -0.2931
 6365TIP3    H240511   4.679   3.911   1.468 -1.7076  0.1331  0.6876
 6366TIP3   OH240512   0.683   3.535   2.454  0.1511 -0.1424 -0.5745
 6366TIP3    H140513   0.661   3.551   2.545 -0.6996 -1.0536 -0.6030
 6366TIP3    H240514   0.610   3.572   2.404  0.6770  0.4760 -0.8996
 6367TIP3   OH240515   5.678   5.739  17.235  0.5354 -0.1147 -0.2212
 6367TIP3    H140516   5.756   5.763  17.285  1.2766 -0.9264 -0.9547
 6367TIP3    H240517   5.617   5.706  17.301  0.0985  2.1505  0.5925
 6368TIP3   OH240518   2.206   1.436  15.427 -0.2660 -0.6126  0.0412
 6368TIP3    H140519   2.274   1.486  15.380  0.7221 -2.4061 -0.5310
 6368TIP3    H240520   2.188   1.489  15.505  2.0648 -0.2153  0.4044
 6369TIP3   OH240521   0.982   4.519  16.655 -0.2244 -0.2562 -0.0627
 6369TIP3    H140522   0.962   4.535  16.563  1.3547 -0.5300 -0.4746
 6369TIP3    H240523   0.995   4.425  16.662 -0.7745 -0.3003  0.5518
 6370TIP3   OH240524   4.986   4.186  12.513 -0.3374  0.2169 -0.2399
 6370TIP3    H140525   4.926   4.116  12.488  1.0171 -1.5018  1.0426
 6370TIP3    H240526   5.056   4.183  12.447  0.4937 -0.7068  0.6491
 6371TIP3   OH240527   5.587   4.921  12.959 -0.1610 -0.0976  0.4516
 6371TIP3    H140528   5.498   4.948  12.982 -0.2867 -1.2061  1.3305
 6371TIP3    H240529   5.630   5.002  12.931 -1.6906  0.3176 -0.8750
 6372TIP3   OH240530   1.800   2.409   2.492  0.0699 -0.2336 -0.3184
 6372TIP3    H140531   1.737   2.465   2.536  0.3190 -2.2663  2.9365
 6372TIP3    H240532   1.885   2.436   2.526  0.4683 -0.7982 -0.8332
 6373TIP3   OH240533   1.360   3.050   4.826 -0.2964 -0.3390 -0.5043
 6373TIP3    H140534   1.316   3.114   4.882  3.0054  0.4381  1.4882
 6373TIP3    H240535   1.348   2.966   4.872 -0.4571 -0.2821 -0.4427
 6374TIP3   OH240536   5.609   1.035  12.863  0.4943  0.4716 -0.1093
 6374TIP3    H140537   5.574   0.947  12.877 -0.3449  0.8120 -0.0051
 6374TIP3    H240538   5.660   1.054  12.941  0.5764  0.1167 -0.0793
 6375TIP3   OH240539   1.555   5.603   3.240  0.0677 -0.4885 -0.1269
 6375TIP3    H140540   1.620   5.603   3.170  1.5052 -0.1526  1.1526
 6375TIP3    H240541   1.580   5.677   3.295 -0.8364 -0.9337  0.9060
 6376TIP3   OH240542   3.657   5.774   3.784 -0.2732 -0.6259  0.0473
 6376TIP3    H140543   3.598   5.846   3.808 -0.3554 -0.3709 -0.8543
 6376TIP3    H240544   3.712   5.812   3.715 -1.2979 -1.8442 -1.5081
 6377TIP3   OH240545   2.749   1.952   2.422  0.4964 -0.3266 -0.0075
 6377TIP3    H140546   2.736   1.924   2.513 -1.1088 -0.5397 -0.2763
 6377TIP3    H240547   2.679   1.907   2.373 -0.1248  1.5976 -0.9693
 6378TIP3   OH240548   1.314   0.743   0.602  0.2105  0.1723 -0.3512
 6378TIP3    H140549   1.228   0.735   0.644 -0.7765  1.8177 -1.9207
 6378TIP3    H240550   1.311   0.677   0.532  0.2253  0.2510 -0.4249
 6379TIP3   OH240551   1.083   6.579  13.326  0.4284  0.0274 -0.4476
 6379TIP3    H140552   1.086   6.552  13.234  0.7736 -1.7380  0.0564
 6379TIP3    H240553   1.031   6.660  13.325  0.3968  0.0247 -2.1751
 6380TIP3   OH240554   1.718   4.180  13.844  0.1427 -0.0288 -0.2820
 6380TIP3    H140555   1.664   4.210  13.917  0.3255 -2.4879  0.9811
 6380TIP3    H240556   1.716   4.252  13.781 -1.3945  1.5111  1.4116
 6381TIP3   OH240557   5.902   3.307   3.622 -0.5748 -0.0324 -0.0384
 6381TIP3    H140558   5.982   3.316   3.675  0.3189  0.9941 -1.5175
 6381TIP3    H240559   5.840   3.263   3.681  0.8459 -0.2489  1.3702
 6382TIP3   OH240560   3.184   1.680  14.320  0.0134 -0.0184 -0.2641
 6382TIP3    H140561   3.206   1.590  14.345 -0.0763 -0.3178 -1.2137
 6382TIP3    H240562   3.269   1.723  14.311  0.0989 -0.2572 -0.6532
 6383TIP3   OH240563   3.993   6.468   4.555  0.1600  0.0249 -0.1677
 6383TIP3    H140564   4.045   6.496   4.630  2.4331  1.0548 -1.9675
 6383TIP3    H240565   4.030   6.383   4.530  1.0777  0.7356 -1.4182
 6384TIP3   OH240566   2.124   0.895   0.162 -0.2111 -0.2676 -0.0787
 6384TIP3    H140567   2.215   0.915   0.138 -0.1043 -0.3654  0.2461
 6384TIP3    H240568   2.075   0.972   0.136 -0.2715 -0.7880 -1.6513
 6385TIP3   OH240569   5.568   6.343   2.223  0.6226  0.1762 -0.0494
 6385TIP3    H140570   5.646   6.396   2.239 -1.6281  3.4246  1.3323
 6385TIP3    H240571   5.576   6.315   2.131  2.7111  1.6507 -0.3857
 6386TIP3   OH240572   4.373   2.070  12.088  0.6894  0.0731  0.3983
 6386TIP3    H140573   4.290   2.024  12.094  1.0254 -0.4293  1.3801
 6386TIP3    H240574   4.394   2.071  11.995  2.0906 -4.3560  0.4686
 6387TIP3   OH240575   4.221   3.545   1.816  0.0031 -0.1233  0.1556
 6387TIP3    H140576   4.254   3.501   1.737 -0.1374 -1.5245  0.8394
 6387TIP3    H240577   4.292   3.534   1.880 -0.9384 -1.3860  1.0254
 6388TIP3   OH240578   3.928   1.397  11.743  0.3895  0.1609 -0.2828
 6388TIP3    H140579   3.889   1.310  11.736 -0.1667  0.2154  1.5451
 6388TIP3    H240580   4.023   1.381  11.737  0.2407 -0.2725 -2.1655
 6389TIP3   OH240581   2.712   5.424  15.359 -0.1196 -0.2378  0.0493
 6389TIP3    H140582   2.729   5.417  15.265 -0.1704  0.3709 -0.0065
 6389TIP3    H240583   2.793   5.460  15.395 -0.9004  1.7913 -0.0903
 6390TIP3   OH240584   1.359   3.357   0.614  0.6164 -0.2074  0.5272
 6390TIP3    H140585   1.273   3.315   0.620 -0.2334  1.2300 -0.9558
 6390TIP3    H240586   1.420   3.284   0.601 -0.7793 -1.0775 -1.6841
 6391TIP3   OH240587   3.982   3.788  14.377  0.1733  0.3872  0.2549
 6391TIP3    H140588   3.910   3.851  14.376  1.1629  1.5529 -0.0199
 6391TIP3    H240589   4.057   3.837  14.344  0.7882 -1.2038 -0.8222
 6392TIP3   OH240590   3.890   3.158  13.210 -0.3411  0.3441  0.0654
 6392TIP3    H140591   3.834   3.084  13.183 -0.6239  0.1362  1.1765
 6392TIP3    H240592   3.859   3.181  13.297  1.5248  0.0069  0.8636
 6393TIP3   OH240593   2.066   5.648   2.749 -0.6040  0.5667 -0.0680
 6393TIP3    H140594   2.014   5.728   2.738 -0.1156  0.7248 -1.4452
 6393TIP3    H240595   2.067   5.608   2.662  0.3209 -0.2119  0.2840
 6394TIP3   OH240596   0.058   3.336  10.723  0.2320 -0.2086 -0.0227
 6394TIP3    H140597   0.063   3.429  10.702  0.2155 -0.6408 -2.1022
 6394TIP3    H240598  -0.008   3.301  10.664 -1.1699 -1.2420  2.0337
 6395TIP3   OH240599   3.178   5.889  11.824  0.8172 -0.1521  0.6543
 6395TIP3    H140600   3.107   5.951  11.809  1.0930 -0.1162 -0.5396
 6395TIP3    H240601   3.134   5.805  11.841  0.4418  0.3592  2.3943
 6396TIP3   OH240602   0.947   0.835  16.704 -0.2701 -0.5102 -0.1414
 6396TIP3    H140603   0.916   0.745  16.715 -0.5681 -0.4753 -0.6475
 6396TIP3    H240604   0.871   0.882  16.670 -0.2825  0.0624  0.6772
 6397TIP3   OH240605   2.251   6.521  13.603  0.2397 -0.3929 -0.0722
 6397TIP3    H140606   2.204   6.604  13.607 -0.9170 -0.9969 -0.7626
 6397TIP3    H240607   2.199   6.461  13.658  1.4454 -0.4902  1.0011
 6398TIP3   OH240608   0.361   0.632  12.572  0.5093 -0.4244 -0.3675
 6398TIP3    H140609   0.294   0.564  12.569  0.0129  0.0476 -0.1922
 6398TIP3    H240610   0.316   0.712  12.546  1.3211 -0.3381 -1.5853
 6399TIP3   OH240611   4.958   1.722   3.383  0.4665 -0.0543  0.0019
 6399TIP3    H140612   4.887   1.759   3.435 -0.8220 -0.6420 -1.2578
 6399TIP3    H240613   4.914   1.667   3.318  2.0649 -0.1796 -1.0385
 6400TIP3   OH240614   5.323   1.496   4.076  0.0417  0.6756  0.7870
 6400TIP3    H140615   5.337   1.440   3.999 -5.6819  2.9374 -2.5791
 6400TIP3    H240616   5.278   1.439   4.139 -1.6996  0.2417 -0.7362
 6401TIP3   OH240617   2.386   5.276  17.126 -0.7271  0.2755  0.5404
 6401TIP3    H140618   2.394   5.218  17.202 -2.1780  0.8285  1.1584
 6401TIP3    H240619   2.323   5.232  17.069  1.8871 -1.1928 -1.4425
 6402TIP3   OH240620   2.311   2.797  13.078 -0.6368  0.1530  0.2748
 6402TIP3    H140621   2.396   2.802  13.122 -0.3447  1.6961 -0.3905
 6402TIP3    H240622   2.326   2.836  12.992 -1.3897 -2.0829 -0.9334
 6403TIP3   OH240623   1.708   5.073   0.632  0.0382  0.0171  0.1479
 6403TIP3    H140624   1.621   5.064   0.671 -0.2303  0.0837 -0.4187
 6403TIP3    H240625   1.752   5.138   0.686 -0.6269  0.7391 -0.1551
 6404TIP3   OH240626   4.590   5.633   0.160 -0.3018 -0.1039 -0.0340
 6404TIP3    H140627   4.580   5.561   0.222  1.2672 -0.0035  0.3688
 6404TIP3    H240628   4.506   5.637   0.113 -0.2086 -2.6117 -0.5205
 6405TIP3   OH240629   6.569   0.518  12.634 -0.0383  0.0748  0.3823
 6405TIP3    H140630   6.570   0.425  12.610 -2.1912  0.2312 -0.5777
 6405TIP3    H240631   6.549   0.518  12.727 -2.8117 -0.4865 -0.1087
 6406TIP3   OH240632   6.091   6.158  16.677  0.6616 -0.5046 -0.0948
 6406TIP3    H140633   6.047   6.079  16.708 -0.4863  0.3188  0.4481
 6406TIP3    H240634   6.026   6.203  16.623  1.0198  0.4260  0.2180
 6407TIP3   OH240635   1.244   0.195   4.662 -0.7947 -0.2189  0.0379
 6407TIP3    H140636   1.239   0.100   4.660 -1.1038 -0.2018 -0.1624
 6407TIP3    H240637   1.155   0.223   4.684 -0.7264  0.0217  0.0112
 6408TIP3   OH240638   0.267   6.253   0.943 -0.6175  0.2249 -0.5133
 6408TIP3    H140639   0.190   6.310   0.951 -1.1898 -0.7035  1.2630
 6408TIP3    H240640   0.232   6.171   0.908 -0.1164  0.3482 -1.3209
 6409TIP3   OH240641   5.780   0.010   3.423  0.1473 -0.4081 -0.4769
 6409TIP3    H140642   5.745  -0.024   3.506 -2.2786 -0.4586 -1.4441
 6409TIP3    H240643   5.748   0.100   3.418  0.3933 -0.3563 -1.2832
 6410TIP3   OH240644   0.565   2.943  15.349 -0.3140  0.3747 -0.4709
 6410TIP3    H140645   0.510   2.875  15.388 -0.2310  0.2291 -0.6084
 6410TIP3    H240646   0.612   2.982  15.423 -1.9189  1.7211 -0.0952
 6411TIP3   OH240647   2.217   5.247   2.949 -0.5840 -0.1230  0.8023
 6411TIP3    H140648   2.206   5.251   2.854 -1.0382  0.7920  0.8824
 6411TIP3    H240649   2.132   5.218   2.982 -0.5056 -0.1980  0.9401
 6412TIP3   OH240650   0.983   1.265  13.664 -0.1034 -0.2008 -0.3796
 6412TIP3    H140651   1.040   1.342  13.668 -0.8186  0.2892  1.4800
 6412TIP3    H240652   0.980   1.233  13.754 -2.1723 -0.6495 -0.5647
 6413TIP3   OH240653   2.044   5.587  12.608  0.2391  0.2125  0.1962
 6413TIP3    H140654   2.081   5.605  12.694 -1.0979 -0.5673  0.9576
 6413TIP3    H240655   2.107   5.626  12.547  0.7230  1.6225  1.5260
 6414TIP3   OH240656   6.505   1.284   5.636 -0.0551 -0.3318  0.5090
 6414TIP3    H140657   6.541   1.217   5.693  1.9708  1.0378  0.9319
 6414TIP3    H240658   6.498   1.242   5.550 -0.0953 -1.4499  1.0511
 6415TIP3   OH240659   5.168   3.665  12.721 -0.4443 -0.2948 -0.1180
 6415TIP3    H140660   5.116   3.599  12.675  0.6146 -1.1337 -0.1430
 6415TIP3    H240661   5.246   3.677  12.666 -0.8495  1.3660 -0.3718
 6416TIP3   OH240662   1.767   1.803   0.741 -0.3479 -0.0137  0.2343
 6416TIP3    H140663   1.700   1.734   0.744 -0.9584  0.5246 -0.4851
 6416TIP3    H240664   1.789   1.811   0.648 -0.2005  0.6682  0.3218
 6417TIP3   OH240665   5.745   0.219  15.021  0.0568  0.1756  0.2190
 6417TIP3    H140666   5.816   0.218  15.085  0.3830  0.2243 -0.1404
 6417TIP3    H240667   5.788   0.230  14.937 -0.3297 -0.3814 -0.0607
 6418TIP3   OH240668   4.834   1.135  11.595 -0.4870  0.4017 -0.1414
 6418TIP3    H140669   4.892   1.086  11.653  0.3497 -0.5971 -1.7302
 6418TIP3    H240670   4.752   1.087  11.597 -0.2344 -0.0427 -0.3184
 6419TIP3   OH240671   4.116   4.313  12.773  0.1709 -0.2851 -0.0242
 6419TIP3    H140672   4.138   4.304  12.681 -0.8411 -1.2199 -0.2051
 6419TIP3    H240673   4.151   4.234  12.814 -2.2000 -1.5485 -0.2348
 6420TIP3   OH240674   5.079   0.044  12.437  0.0410  0.5358  0.2805
 6420TIP3    H140675   5.167   0.006  12.431 -0.1580  0.1740 -0.4494
 6420TIP3    H240676   5.079   0.114  12.372 -0.2348  0.4764  0.2168
 6421TIP3   OH240677   4.733   5.085   2.009 -0.1192  0.2643  0.0379
 6421TIP3    H140678   4.735   5.139   1.929 -0.3581  0.3286  0.0744
 6421TIP3    H240679   4.791   5.012   1.989 -1.0719 -0.3409 -0.6441
 6422TIP3   OH240680   1.954   2.202  11.966  0.4772  0.0017  0.9291
 6422TIP3    H140681   1.902   2.144  11.910  1.1690  0.6811 -0.4794
 6422TIP3    H240682   1.976   2.148  12.042  0.2705 -1.2759  0.1240
 6423TIP3   OH240683   0.344   1.779  16.700  0.0693  0.4429  0.0687
 6423TIP3    H140684   0.265   1.726  16.690  0.8302 -1.3929  2.5908
 6423TIP3    H240685   0.344   1.838  16.625 -2.1777 -1.4504 -1.5443
 6424TIP3   OH240686   3.359   3.732  15.377 -0.5831 -0.0063  0.3479
 6424TIP3    H140687   3.275   3.740  15.422  0.4629 -1.3035  2.7595
 6424TIP3    H240688   3.423   3.762  15.441  0.7749  2.7518 -2.0599
 6425TIP3   OH240689   5.642   6.669  15.781  0.4961  0.2312  0.0550
 6425TIP3    H140690   5.607   6.670  15.692 -2.5821  0.0292  1.1325
 6425TIP3    H240691   5.724   6.717  15.775  1.5053 -1.5718 -3.2381
 6426TIP3   OH240692   5.984   3.034  11.703 -0.2077 -0.4035 -0.1409
 6426TIP3    H140693   6.031   3.114  11.680 -1.3782 -0.2049 -2.1033
 6426TIP3    H240694   6.020   2.968  11.644 -3.3231  0.1152 -2.8992
 6427TIP3   OH240695   3.375   3.949   2.998 -0.1983  0.0936  0.0178
 6427TIP3    H140696   3.396   3.992   2.915  0.1926 -0.6887 -0.2932
 6427TIP3    H240697   3.460   3.929   3.037 -0.2745 -2.7956 -1.0933
 6428TIP3   OH240698   4.426   4.919  11.377 -0.3655 -0.1702  0.2291
 6428TIP3    H140699   4.454   4.956  11.294 -1.0996 -0.2632 -0.0703
 6428TIP3    H240700   4.507   4.900  11.424  0.0478  0.1369 -0.3513
 6429TIP3   OH240701   4.907   6.137  15.658 -0.5672  0.0982  0.2303
 6429TIP3    H140702   4.827   6.185  15.637 -0.1973  0.6839  0.1268
 6429TIP3    H240703   4.878   6.048  15.676 -1.3712  0.5425  1.2463
 6430TIP3   OH240704   3.661   1.172   1.470 -0.0937 -0.0738  0.1269
 6430TIP3    H140705   3.602   1.126   1.410  1.6934 -0.2270 -1.6302
 6430TIP3    H240706   3.660   1.119   1.550  0.9514 -2.5815 -1.4043
 6431TIP3   OH240707   1.840   2.077   1.183  0.0013  0.2425  0.7237
 6431TIP3    H140708   1.800   2.023   1.115  0.9064 -0.0694  0.4096
 6431TIP3    H240709   1.932   2.048   1.184  0.3352  1.2736  1.0543
 6432TIP3   OH240710   4.691   4.144  16.822 -0.3134  0.1289  0.1156
 6432TIP3    H140711   4.611   4.142  16.874  0.1316  2.5566  1.0257
 6432TIP3    H240712   4.754   4.093  16.874 -1.2271 -1.8879 -0.6588
 6433TIP3   OH240713   6.767   2.736   1.554  0.5941  0.0748  0.1395
 6433TIP3    H140714   6.682   2.777   1.537  0.5359 -0.1838 -0.2054
 6433TIP3    H240715   6.752   2.642   1.541  0.7367 -0.0580  0.8773
 6434TIP3   OH240716   2.104   5.188  10.934  0.1378 -0.4157  0.0536
 6434TIP3    H140717   2.079   5.266  10.884  0.3663 -1.4988 -1.8448
 6434TIP3    H240718   2.194   5.170  10.908  1.1971  0.3936  2.8158
 6435TIP3   OH240719   1.732   4.837   3.532  0.6040 -0.2077 -0.0741
 6435TIP3    H140720   1.765   4.921   3.501 -0.4938  0.5122  0.6349
 6435TIP3    H240721   1.644   4.830   3.494 -0.2203  0.0558  1.6765
 6436TIP3   OH240722   4.526   2.695  14.236  0.3556  0.3639 -0.5116
 6436TIP3    H140723   4.494   2.761  14.174 -0.0601 -0.3642 -1.0940
 6436TIP3    H240724   4.534   2.615  14.183  0.6421 -0.1014  0.2296
 6437TIP3   OH240725   0.690   1.737  14.006 -0.1359 -0.2544 -0.2350
 6437TIP3    H140726   0.752   1.810  14.008 -1.2103  0.6830  0.9998
 6437TIP3    H240727   0.739   1.663  14.044  0.0703  0.6406  1.3561
 6438TIP3   OH240728   5.315   4.534  14.517  0.1066 -0.1652 -0.0400
 6438TIP3    H140729   5.332   4.603  14.581  0.4962 -1.0025  0.7794
 6438TIP3    H240730   5.227   4.503  14.538  0.3715 -0.6835  0.3379
 6439TIP3   OH240731   0.165   5.929  14.533 -0.5012  0.0299  0.0119
 6439TIP3    H140732   0.186   5.860  14.595 -0.3638  0.0727  0.0132
 6439TIP3    H240733   0.209   5.903  14.452  0.9576  0.9500  0.4643
 6440TIP3   OH240734   1.517   5.243  14.819  0.2250 -0.5270  0.2162
 6440TIP3    H140735   1.608   5.263  14.843 -0.2622 -0.9725  2.6657
 6440TIP3    H240736   1.477   5.328  14.803 -0.1225  0.1859  4.0339
 6441TIP3   OH240737   2.807   6.540   0.570 -0.1479  0.0688 -0.3849
 6441TIP3    H140738   2.742   6.507   0.633  1.0510 -0.4650  0.6153
 6441TIP3    H240739   2.867   6.467   0.557  0.9707  0.9576 -0.3152
 6442TIP3   OH240740   5.021   3.785  11.907  0.0210  0.2342 -0.5258
 6442TIP3    H140741   4.948   3.782  11.844 -0.1736 -0.3983 -0.2881
 6442TIP3    H240742   4.997   3.720  11.973  0.3479  0.7082  0.0655
 6443TIP3   OH240743   2.285   0.354  15.780 -0.5712  0.2396 -0.1019
 6443TIP3    H140744   2.288   0.450  15.784  1.3260  0.2126 -0.0642
 6443TIP3    H240745   2.280   0.327  15.872  0.9161  0.3124  0.0362
 6444TIP3   OH240746   6.199   4.525  15.442 -0.3337 -0.5615 -0.2909
 6444TIP3    H140747   6.212   4.617  15.418  3.0127 -0.9343 -0.3489
 6444TIP3    H240748   6.152   4.528  15.525  0.1060  1.2270 -0.0657
 6445TIP3   OH240749   4.557   2.949  16.150 -0.0841 -0.0044 -0.0133
 6445TIP3    H140750   4.574   3.040  16.176  0.7345  0.1301 -0.9687
 6445TIP3    H240751   4.466   2.951  16.119 -0.8724 -0.0391  2.1320
 6446TIP3   OH240752   5.700   1.170   2.652  0.3079  0.2296  0.0388
 6446TIP3    H140753   5.690   1.145   2.744  2.5025  0.7479  0.4606
 6446TIP3    H240754   5.754   1.249   2.654  0.2761  0.3346 -1.7094
 6447TIP3   OH240755   0.351   3.450  16.085  0.4525  0.5718  0.3596
 6447TIP3    H140756   0.353   3.362  16.124  1.0324  1.6524  2.9493
 6447TIP3    H240757   0.285   3.443  16.016  0.7093 -1.9692  0.2574
 6448TIP3   OH240758   4.216   4.106   1.199  0.3608 -0.7066  0.3625
 6448TIP3    H140759   4.303   4.138   1.175  1.8287 -3.5851  1.3956
 6448TIP3    H240760   4.161   4.128   1.124  2.1399  0.5087 -0.6658
 6449TIP3   OH240761   0.455   1.201   1.039  0.2637 -0.1495 -0.5345
 6449TIP3    H140762   0.402   1.122   1.033 -2.5597  1.3745  1.7808
 6449TIP3    H240763   0.523   1.180   1.103  0.8060 -1.2344 -1.4178
 6450TIP3   OH240764   4.240   5.657  15.069  0.2248 -0.2740 -0.7768
 6450TIP3    H140765   4.314   5.675  15.126  0.5047  0.3246 -1.3158
 6450TIP3    H240766   4.207   5.744  15.045 -2.2123 -0.4653  1.4212
 6451TIP3   OH240767   3.526   4.292   6.304 -0.3537 -0.2477  0.6659
 6451TIP3    H140768   3.471   4.370   6.295 -0.1825  0.0725  2.1172
 6451TIP3    H240769   3.611   4.327   6.332 -0.0119 -0.8882  0.4265
 6452TIP3   OH240770   4.792   3.407  12.250  0.6510 -0.1479  0.7687
 6452TIP3    H140771   4.716   3.436  12.199  0.1035  0.7149  2.0133
 6452TIP3    H240772   4.804   3.476  12.316  2.3893 -0.3742  0.7341
 6453TIP3   OH240773   1.878   6.498   4.755  0.1566  0.0778 -0.0704
 6453TIP3    H140774   1.944   6.566   4.741  0.4419 -0.2095 -0.1387
 6453TIP3    H240775   1.928   6.422   4.785 -0.0241 -0.4508 -1.0847
 6454TIP3   OH240776   1.771   5.639   3.991 -0.3547 -0.2524  0.4526
 6454TIP3    H140777   1.735   5.635   3.903  1.0898  0.8898 -0.2455
 6454TIP3    H240778   1.761   5.551   4.026  0.2728 -1.0999 -1.3847
 6455TIP3   OH240779   2.875   3.215   2.694 -0.5741  0.8318  0.2597
 6455TIP3    H140780   2.803   3.155   2.715 -0.0642  0.4173  0.8612
 6455TIP3    H240781   2.894   3.260   2.777 -0.5538  1.3879 -0.0448
 6456TIP3   OH240782   6.390   2.954   0.470  0.2382  0.1263  0.1753
 6456TIP3    H140783   6.393   3.049   0.456  1.1360 -0.1421 -1.6013
 6456TIP3    H240784   6.324   2.923   0.408 -0.4574 -0.3799  1.1362
 6457TIP3   OH240785   0.150   3.745   0.358 -0.4826 -0.5409 -0.3978
 6457TIP3    H140786   0.058   3.720   0.365  0.0495 -2.4270  0.5093
 6457TIP3    H240787   0.197   3.680   0.410  1.1845  1.6786  1.0780
 6458TIP3   OH240788   2.509   0.902  15.717  0.3366 -0.1565  0.4437
 6458TIP3    H140789   2.503   0.839  15.646  2.5137 -0.5256  0.4914
 6458TIP3    H240790   2.453   0.974  15.691 -0.3239 -1.0730 -0.7716
 6459TIP3   OH240791   2.917   4.002   2.550 -0.3594  0.3207 -0.0133
 6459TIP3    H140792   2.905   3.970   2.639  0.8389  0.6500  0.2872
 6459TIP3    H240793   2.855   4.075   2.543 -1.7620 -0.8250 -0.0872
 6460TIP3   OH240794   4.052   6.394  16.752  0.2761 -0.0457  0.8579
 6460TIP3    H140795   3.987   6.461  16.731  0.1639 -0.2380  0.5846
 6460TIP3    H240796   4.130   6.443  16.779  0.1812  0.1931  0.7027
 6461TIP3   OH240797   5.718   6.509   3.348  0.5785  1.3414  0.0269
 6461TIP3    H140798   5.806   6.520   3.312  0.3937  2.0226 -0.2411
 6461TIP3    H240799   5.676   6.594   3.335  0.4752  1.6066  1.8120
 6462TIP3   OH240800   6.666   3.526  16.542 -0.1727  0.2720  0.2436
 6462TIP3    H140801   6.596   3.493  16.486 -1.0698  0.9321  0.9464
 6462TIP3    H240802   6.704   3.599  16.493 -1.0376  0.9302  0.5338
 6463TIP3   OH240803   0.171   6.312   0.022  0.0393 -0.4866  0.1840
 6463TIP3    H140804   0.207   6.398   0.043 -0.6913  0.2212 -1.3612
 6463TIP3    H240805   0.245   6.265  -0.017 -0.2651  0.4407 -1.5809
 6464TIP3   OH240806   3.556   1.117   5.679  0.4765  0.5353  0.5340
 6464TIP3    H140807   3.636   1.136   5.630 -0.4144  0.2568 -1.0809
 6464TIP3    H240808   3.581   1.129   5.771  2.1478  1.2455  0.0231
 6465TIP3   OH240809   3.928   1.879  11.776  0.1674  0.1141  0.5539
 6465TIP3    H140810   3.860   1.820  11.743  0.6863  0.2354 -0.7831
 6465TIP3    H240811   3.888   1.965  11.773  0.7548  0.3644 -1.4556
 6466TIP3   OH240812   0.627   4.216   4.475 -0.1949  0.1769 -0.1267
 6466TIP3    H140813   0.551   4.202   4.418 -0.5630 -0.5540  0.5226
 6466TIP3    H240814   0.589   4.229   4.562  0.3866  0.6970  0.0498
 6467TIP3   OH240815   6.196   2.346  13.182 -0.3542 -0.2743  0.5669
 6467TIP3    H140816   6.180   2.410  13.251  0.9019  0.3868  0.2636
 6467TIP3    H240817   6.243   2.394  13.114  0.3662 -1.4335  0.2042
 6468TIP3   OH240818   4.276   3.134  16.070  0.0461  0.1041 -0.7539
 6468TIP3    H140819   4.272   3.165  16.160 -2.0569  0.4399 -0.9082
 6468TIP3    H240820   4.365   3.153  16.042  0.9125 -0.4968  1.4002
 6469TIP3   OH240821   1.741   2.585  11.792 -0.0209 -0.3684 -0.6974
 6469TIP3    H140822   1.677   2.599  11.862 -0.4043 -0.3901 -1.0433
 6469TIP3    H240823   1.826   2.589  11.837 -0.3044 -3.0544  0.2767
 6470TIP3   OH240824   4.270   3.375   5.805 -0.1829 -0.1372  0.2365
 6470TIP3    H140825   4.197   3.318   5.830 -0.8578  0.4575 -0.3232
 6470TIP3    H240826   4.340   3.353   5.866 -0.5349 -1.3317  0.2420
 6471TIP3   OH240827   5.674   1.042  14.254  0.1949 -0.2027 -0.0417
 6471TIP3    H140828   5.696   0.996  14.335  2.3664 -1.1633 -1.0871
 6471TIP3    H240829   5.681   1.135  14.277 -0.3770 -0.4240  1.1314
 6472TIP3   OH240830   5.998   1.291   3.824 -0.2388  0.1342  0.0265
 6472TIP3    H140831   6.087   1.258   3.835 -0.2685 -1.0142 -2.5461
 6472TIP3    H240832   5.953   1.265   3.904  0.9176 -2.2044 -0.0028
 6473TIP3   OH240833   4.475   4.791  12.874  0.1013  0.3149  0.0308
 6473TIP3    H140834   4.521   4.817  12.954 -1.2309 -1.4374  1.4494
 6473TIP3    H240835   4.458   4.698  12.884 -1.4969  0.3496 -1.5829
 6474TIP3   OH240836   6.270   0.974  14.944 -0.7138  0.1566  0.4775
 6474TIP3    H140837   6.293   1.063  14.916  1.3453 -0.3896  0.2359
 6474TIP3    H240838   6.290   0.972  15.037  2.3791 -0.8745 -0.0970
 6475TIP3   OH240839   0.638   5.745   3.218  0.1563 -0.0527 -0.0644
 6475TIP3    H140840   0.720   5.696   3.222  0.1764  0.0435  0.8415
 6475TIP3    H240841   0.664   5.837   3.231  0.1263  0.2422 -1.7908
 6476TIP3   OH240842   5.932   4.850  13.993 -0.2603 -0.6202  0.3472
 6476TIP3    H140843   5.859   4.880  14.048 -0.8062 -1.3908  0.0548
 6476TIP3    H240844   6.009   4.895  14.030 -0.7556 -0.4002  1.1508
 6477TIP3   OH240845   2.286   1.646   6.146  0.5171  0.6941 -0.0145
 6477TIP3    H140846   2.239   1.587   6.206  1.1221 -2.1500 -2.1465
 6477TIP3    H240847   2.231   1.724   6.142 -2.0617 -0.9693  0.5269
 6478TIP3   OH240848   1.666   6.332   3.953  0.6997  0.1323  0.0804
 6478TIP3    H140849   1.612   6.254   3.966  2.0004 -0.6566  0.9525
 6478TIP3    H240850   1.756   6.298   3.947  1.0098  1.2217 -3.0574
 6479TIP3   OH240851   5.417   4.645   2.746 -0.1964  0.4457 -0.5418
 6479TIP3    H140852   5.390   4.623   2.835 -0.1672  1.1647 -0.3463
 6479TIP3    H240853   5.465   4.568   2.715 -0.5982  0.0160 -0.1042
 6480TIP3   OH240854   2.940   6.662  14.515 -0.0730 -0.1545 -0.2958
 6480TIP3    H140855   2.953   6.717  14.438 -1.8420  1.3199  0.3807
 6480TIP3    H240856   3.026   6.657  14.557  0.7191 -0.2711 -1.8922
 6481TIP3   OH240857   4.586   1.037  11.571  0.5145  0.1858  0.1494
 6481TIP3    H140858   4.590   0.947  11.536 -1.0753  0.3554 -0.5642
 6481TIP3    H240859   4.521   1.033  11.641 -0.8146  1.0836 -0.9813
 6482TIP3   OH240860   5.204   5.335  11.728  0.0962 -0.1785  0.2074
 6482TIP3    H140861   5.237   5.413  11.773 -0.9973  0.5573 -0.2417
 6482TIP3    H240862   5.252   5.332  11.646 -1.1723  1.1148 -0.6208
 6483TIP3   OH240863   4.246   0.315   1.320  0.1214  0.0289  0.3597
 6483TIP3    H140864   4.280   0.403   1.337  0.7881 -0.3690  1.1861
 6483TIP3    H240865   4.160   0.329   1.282 -0.5640  1.0291  2.1762
 6484TIP3   OH240866   5.731   3.520   4.694 -0.2508  0.1695 -0.8890
 6484TIP3    H140867   5.731   3.428   4.670 -2.8591  0.4004 -2.1214
 6484TIP3    H240868   5.685   3.564   4.623  0.9337  2.4771 -0.3673
 6485TIP3   OH240869   2.821   1.767   3.514  0.2266  0.2004 -0.2033
 6485TIP3    H140870   2.743   1.740   3.465  0.6570  1.3836 -1.6144
 6485TIP3    H240871   2.829   1.701   3.584 -3.1762  1.1104  1.2809
 6486TIP3   OH240872   1.831   6.071  15.978  0.7042  0.0324 -0.5627
 6486TIP3    H140873   1.823   6.100  16.069 -3.3709  1.4503 -1.1519
 6486TIP3    H240874   1.837   5.976  15.983  0.4952  0.0924  1.1894
 6487TIP3   OH240875   5.939   6.715   6.444  0.9270  0.4604  0.5129
 6487TIP3    H140876   5.858   6.665   6.436  1.3856 -0.0324 -1.8733
 6487TIP3    H240877   5.911   6.806   6.454  0.0321  0.4283 -1.3397
 6488TIP3   OH240878   1.677   0.928   5.334 -0.7487 -0.0139 -0.1740
 6488TIP3    H140879   1.728   0.910   5.255 -1.3840  0.1309 -0.6221
 6488TIP3    H240880   1.612   0.858   5.338 -0.9319  0.1658  0.0414
 6489TIP3   OH240881   3.301   0.198   0.948  0.0889  0.5950  0.2910
 6489TIP3    H140882   3.248   0.276   0.936  1.1293  1.1852 -0.6747
 6489TIP3    H240883   3.367   0.203   0.878  0.7558 -0.6495  0.8021
 6490TIP3   OH240884   4.566   3.890   3.001 -0.0868 -0.3260 -0.3178
 6490TIP3    H140885   4.550   3.975   3.041  0.0134  0.0054 -0.9656
 6490TIP3    H240886   4.485   3.870   2.954 -0.1536 -0.6452 -0.0691
 6491TIP3   OH240887   1.751   3.462  11.325 -0.1091 -0.0535  0.0274
 6491TIP3    H140888   1.717   3.503  11.245 -1.2460  0.9708  0.9885
 6491TIP3    H240889   1.846   3.472  11.319 -0.1651 -0.1611 -1.2828
 6492TIP3   OH240890   3.011   0.785  14.597  0.8971 -0.1865  0.0178
 6492TIP3    H140891   3.030   0.701  14.557  0.9904  0.1396 -0.6386
 6492TIP3    H240892   3.068   0.789  14.674 -0.3073 -1.4231  1.0223
 6493TIP3   OH240893   4.056   0.199  14.409 -0.0261  0.4276 -0.2864
 6493TIP3    H140894   4.037   0.133  14.342  1.2704 -0.2083 -0.0687
 6493TIP3    H240895   3.972   0.215  14.452 -0.2576 -1.6464  0.1315
 6494TIP3   OH240896   4.050   2.272   2.961 -0.1773 -0.1546 -0.3750
 6494TIP3    H140897   4.082   2.244   3.046  0.3457  0.4452 -0.3659
 6494TIP3    H240898   4.067   2.197   2.903  0.1271 -0.2927 -0.1084
 6495TIP3   OH240899   5.908   1.302   4.635 -0.2718 -0.7001 -0.4944
 6495TIP3    H140900   5.894   1.219   4.590 -1.4324 -0.1666 -1.1678
 6495TIP3    H240901   5.822   1.326   4.669  0.5373 -1.0134  1.9676
 6496TIP3   OH240902   0.979   4.678   6.106  0.3599 -0.8950 -0.4359
 6496TIP3    H140903   0.899   4.705   6.151  1.2903  0.4745  0.4899
 6496TIP3    H240904   1.045   4.673   6.175  1.9672  1.7933 -1.6011
 6497TIP3   OH240905   3.209   5.747   1.649  0.1758 -0.6775  0.5341
 6497TIP3    H140906   3.229   5.686   1.577  2.7426 -1.2497  1.6387
 6497TIP3    H240907   3.184   5.690   1.722  0.7085 -0.3007  1.0177
 6498TIP3   OH240908   4.272   2.157   0.491  0.1673 -0.5200 -0.0142
 6498TIP3    H140909   4.281   2.105   0.411 -2.8721  0.0016 -0.8277
 6498TIP3    H240910   4.261   2.247   0.461 -1.8535 -0.4155  0.8421
 6499TIP3   OH240911   2.297   4.510   5.140 -0.2225  0.5487  0.0105
 6499TIP3    H140912   2.364   4.461   5.190 -0.1549  0.8462  0.2172
 6499TIP3    H240913   2.219   4.455   5.144 -0.2259  0.5830  0.4768
 6500TIP3   OH240914   4.481   2.718  14.517  0.0379  0.1906  0.7059
 6500TIP3    H140915   4.470   2.624  14.531 -1.3250  0.1716 -0.1931
 6500TIP3    H240916   4.492   2.726  14.422 -2.1059  1.0596  0.4692
 6501TIP3   OH240917   3.704   5.615   2.096 -0.0629  0.2018  0.1731
 6501TIP3    H140918   3.789   5.601   2.055 -0.0922  1.5255 -0.3974
 6501TIP3    H240919   3.642   5.611   2.023 -0.3451  0.4701  0.3958
 6502TIP3   OH240920   2.201   5.128   0.304 -0.0598 -0.5380  0.4187
 6502TIP3    H140921   2.186   5.212   0.348 -0.8527 -1.0328  1.1296
 6502TIP3    H240922   2.134   5.070   0.340 -0.1019 -1.2333 -0.7424
 6503TIP3   OH240923   4.707   6.291  15.628  0.0726  0.1438  0.5533
 6503TIP3    H140924   4.719   6.363  15.567 -0.7159 -0.5887 -0.5035
 6503TIP3    H240925   4.673   6.332  15.708  0.5142  1.0370  0.2868
 6504TIP3   OH240926   5.463   1.825  14.779  0.2670 -0.3117  0.2099
 6504TIP3    H140927   5.415   1.908  14.777  0.3730 -0.2322  0.9325
 6504TIP3    H240928   5.395   1.758  14.772  0.1582 -0.1799 -0.0542
 6505TIP3   OH240929   2.917   0.749   1.253  0.3262  0.0279 -0.4878
 6505TIP3    H140930   2.957   0.818   1.307 -1.3011  0.0330  0.7995
 6505TIP3    H240931   2.884   0.685   1.317  2.3252 -2.3279 -1.6464
 6506TIP3   OH240932   5.913   1.518  11.636  0.0453  0.0495  0.0494
 6506TIP3    H140933   5.838   1.551  11.685 -0.2959 -0.1860 -0.3114
 6506TIP3    H240934   5.885   1.520  11.545  0.0345 -1.1471  0.0096
 6507TIP3   OH240935   0.977   6.651   3.525  0.0056 -0.2078 -1.1993
 6507TIP3    H140936   0.946   6.737   3.496  0.7068  0.1445 -0.9366
 6507TIP3    H240937   0.933   6.636   3.609 -0.1088 -0.1048 -1.2410
 6508TIP3   OH240938   1.034   1.527   3.089  0.4615 -0.0502  0.2027
 6508TIP3    H140939   0.997   1.460   3.031  1.0717  0.6086 -0.9814
 6508TIP3    H240940   0.988   1.515   3.172 -1.4679 -0.0893 -0.8250
 6509TIP3   OH240941   0.556   2.692  16.282  0.6128 -0.2615  0.0372
 6509TIP3    H140942   0.625   2.710  16.219  1.0610  2.3367  1.1367
 6509TIP3    H240943   0.592   2.624  16.339  1.5606 -0.1628 -0.4357
 6510TIP3   OH240944   5.807   2.120   3.018  0.3368 -0.1295  0.1420
 6510TIP3    H140945   5.875   2.144   2.954  0.2868  0.1015  0.1751
 6510TIP3    H240946   5.756   2.052   2.973 -1.0399  1.5322 -0.9513
 6511TIP3   OH240947   4.417   5.265  15.017 -0.0197 -0.2051  0.3369
 6511TIP3    H140948   4.390   5.193  14.960  1.8765  0.1524 -1.1147
 6511TIP3    H240949   4.356   5.336  14.997 -2.3137 -1.4744  2.2317
 6512TIP3   OH240950   2.698   6.259   2.224  0.3743  0.4925  0.2203
 6512TIP3    H140951   2.733   6.188   2.170 -0.3571  1.5010 -1.6512
 6512TIP3    H240952   2.608   6.270   2.195 -0.2422  0.6806  2.0964
 6513TIP3   OH240953   5.946   2.185   4.364  0.5483 -0.1709 -0.2177
 6513TIP3    H140954   5.980   2.117   4.423  1.6736 -0.7533 -1.4772
 6513TIP3    H240955   5.925   2.139   4.283 -0.7364  0.6562 -0.3930
 6514TIP3   OH240956   2.537   2.400  12.034 -0.1334 -0.1890  0.7025
 6514TIP3    H140957   2.631   2.416  12.038 -0.1358  0.4006 -1.0747
 6514TIP3    H240958   2.505   2.427  12.121  1.1460  0.8282  0.8917
 6515TIP3   OH240959   4.737   2.670  13.287  0.1254 -0.1462 -0.5417
 6515TIP3    H140960   4.652   2.699  13.320  0.6395  3.0522 -1.6820
 6515TIP3    H240961   4.759   2.594  13.342 -3.0928 -0.6811  0.2292
 6516TIP3   OH240962   4.828   2.002   6.314  0.3142  0.6528 -0.0553
 6516TIP3    H140963   4.836   2.065   6.385  1.1347  0.8583 -0.3101
 6516TIP3    H240964   4.912   1.955   6.315 -0.4186 -0.6772  0.3549
 6517TIP3   OH240965   0.507   0.337  12.861  0.0069  0.1883 -0.2734
 6517TIP3    H140966   0.510   0.308  12.770  1.0723  0.8340 -0.4539
 6517TIP3    H240967   0.476   0.427  12.856  1.1471  0.5974 -0.0923
 6518TIP3   OH240968   4.288   5.259  13.696  0.6303  0.2941  0.0047
 6518TIP3    H140969   4.316   5.329  13.756 -1.8468  1.4231 -0.0063
 6518TIP3    H240970   4.198   5.282  13.674 -0.2917 -2.9431 -0.0413
 6519TIP3   OH240971   5.353   2.901  13.533  0.1322 -0.0649 -0.4062
 6519TIP3    H140972   5.371   2.888  13.440  0.6427 -0.0964 -0.3092
 6519TIP3    H240973   5.271   2.854  13.548  0.6848 -1.1375 -0.5780
 6520TIP3   OH240974   0.337   5.247   5.214  0.4257  0.1290 -0.0334
 6520TIP3    H140975   0.307   5.320   5.160 -1.0768 -1.5158 -1.5446
 6520TIP3    H240976   0.256   5.209   5.249  1.1501 -1.0797  0.3803
 6521TIP3   OH240977   1.330   0.238   1.648  0.3108 -0.0637 -0.2774
 6521TIP3    H140978   1.324   0.288   1.567  0.3931 -0.1922 -0.3621
 6521TIP3    H240979   1.309   0.302   1.717 -2.1000 -0.5089 -0.5431
 6522TIP3   OH240980   6.090   6.032  14.983  0.3791 -0.2755 -0.4461
 6522TIP3    H140981   6.068   5.940  14.993 -1.5600  0.1897 -0.1342
 6522TIP3    H240982   6.042   6.061  14.906 -1.7947  1.2225  1.3376
 6523TIP3   OH240983   0.466   3.850   5.463  0.1634 -0.6545  0.3588
 6523TIP3    H140984   0.497   3.813   5.546 -0.6770 -0.4067  0.7930
 6523TIP3    H240985   0.530   3.917   5.442 -0.8413  0.9334  2.0441
 6524TIP3   OH240986   1.105   5.487  13.067 -0.2066  0.1983  0.1870
 6524TIP3    H140987   1.017   5.451  13.068 -0.8742  1.7463  1.4543
 6524TIP3    H240988   1.137   5.472  12.978 -2.1151  0.5030 -0.5785
 6525TIP3   OH240989   6.336   1.343   0.624 -0.3893  0.4449 -0.2035
 6525TIP3    H140990   6.411   1.285   0.636  0.1968  1.0090 -1.0516
 6525TIP3    H240991   6.296   1.349   0.711  1.8080  1.8601  0.8106
 6526TIP3   OH240992   2.479   5.192  12.063 -0.3914  0.0165 -0.2386
 6526TIP3    H140993   2.556   5.166  12.012 -0.3273  0.1369 -0.2035
 6526TIP3    H240994   2.436   5.110  12.084 -2.1627  0.0347 -3.1602
 6527TIP3   OH240995   0.242   4.959  11.568 -0.0568  0.1573 -0.0732
 6527TIP3    H140996   0.323   4.917  11.539  0.3035  1.3750 -0.9073
 6527TIP3    H240997   0.270   5.025  11.631 -0.1769  1.7161 -1.5738
 6528TIP3   OH240998   6.381   4.713   0.302  0.6244  0.2267  0.3548
 6528TIP3    H140999   6.376   4.634   0.248  0.8197 -0.5441  1.4470
 6528TIP3    H241000   6.465   4.753   0.278  0.9400 -0.3732  0.4534
 6529TIP3   OH241001   4.161   6.107  11.272  0.2952  0.5389 -0.3285
 6529TIP3    H141002   4.198   6.099  11.184 -0.7027  0.1441 -0.7157
 6529TIP3    H241003   4.113   6.190  11.271 -1.2022 -0.3096 -0.7235
 6530TIP3   OH241004   0.981   5.722   5.971 -0.0237 -0.4483  0.2082
 6530TIP3    H141005   0.927   5.658   5.924 -1.0046 -0.0922  0.8191
 6530TIP3    H241006   0.955   5.712   6.062  1.6403 -0.9209  0.6549
 6531TIP3   OH241007   2.067   3.964  11.900  0.3253  0.1739 -0.0264
 6531TIP3    H141008   2.047   3.928  11.986  1.5515 -1.4493 -0.3902
 6531TIP3    H241009   1.990   4.017  11.878 -0.5557 -0.4268  1.4912
 6532TIP3   OH241010   0.981   6.611  14.652  0.7810  0.2337  0.3574
 6532TIP3    H141011   0.995   6.600  14.558 -0.0691  2.3075 -0.0607
 6532TIP3    H241012   0.888   6.595  14.665  0.9572 -0.3721  0.9036
 6533TIP3   OH241013   5.374   0.033   5.401 -0.3811 -0.2643  0.0883
 6533TIP3    H141014   5.359  -0.017   5.321 -0.7708 -1.8793  1.1396
 6533TIP3    H241015   5.353   0.123   5.377 -1.4197 -0.8644 -1.3706
 6534TIP3   OH241016   5.583   0.246  15.371  0.3092 -0.5509 -0.2691
 6534TIP3    H141017   5.616   0.291  15.450 -1.2154  1.0343 -0.4790
 6534TIP3    H241018   5.645   0.174  15.357  1.5176  0.0841  1.4568
 6535TIP3   OH241019   2.174   2.669   3.518 -0.1074  0.1274  0.5220
 6535TIP3    H141020   2.131   2.697   3.437  2.0255 -1.0921 -1.1186
 6535TIP3    H241021   2.104   2.628   3.569 -1.3698  0.2908 -0.9962
 6536TIP3   OH241022   6.575   4.042  14.683 -0.1255 -0.3020  1.0323
 6536TIP3    H141023   6.657   4.084  14.710  0.0227 -1.0816  1.8698
 6536TIP3    H241024   6.565   3.969  14.745 -0.8901 -0.8725  0.2550
 6537TIP3   OH241025   2.478   2.192   5.670  0.5064  0.6533  0.6044
 6537TIP3    H141026   2.479   2.247   5.749  2.7337 -0.1278  1.1977
 6537TIP3    H241027   2.571   2.176   5.651  0.0154  0.5935 -2.0412
 6538TIP3   OH241028   1.851   6.503   1.710  0.1635  0.5945  0.4599
 6538TIP3    H141029   1.890   6.422   1.740 -0.8220 -1.2560 -2.7820
 6538TIP3    H241030   1.921   6.548   1.663  0.1922  0.6319  0.5386
 6539TIP3   OH241031   3.110   6.534  10.879 -0.0793  0.0581  0.0910
 6539TIP3    H141032   3.174   6.560  10.813  1.3984  0.0573  1.4661
 6539TIP3    H241033   3.065   6.614  10.902  0.4895  0.3550  0.1936
 6540TIP3   OH241034   1.017   5.237  14.106 -0.5344 -0.1595  0.1167
 6540TIP3    H141035   0.947   5.295  14.075 -0.5904  0.3419  1.1486
 6540TIP3    H241036   0.973   5.154  14.123 -0.8443  0.0965  0.5725
 6541TIP3   OH241037   0.215   3.811  14.680  0.2226 -0.2834  0.3038
 6541TIP3    H141038   0.295   3.758  14.687  1.3065  1.2681  0.0257
 6541TIP3    H241039   0.204   3.825  14.586 -1.8935 -2.6260  0.0795
 6542TIP3   OH241040   6.603   5.796  16.054  0.3465  0.5138  0.1447
 6542TIP3    H141041   6.622   5.702  16.064  0.5395  0.5746  0.3407
 6542TIP3    H241042   6.508   5.801  16.062  0.4710  0.5462  1.8942
 6543TIP3   OH241043   3.617   3.048  15.370 -0.0961 -0.6471  0.2502
 6543TIP3    H141044   3.536   3.080  15.330 -0.2826 -1.0110  0.3349
 6543TIP3    H241045   3.629   3.104  15.446 -0.5068 -0.8721  0.4839
 6544TIP3   OH241046   3.561   6.725   1.885 -0.4714  1.0723  0.4959
 6544TIP3    H141047   3.557   6.698   1.976 -3.5949 -1.7840 -0.3073
 6544TIP3    H241048   3.642   6.686   1.852 -2.2431 -3.4187  0.7366
 6545TIP3   OH241049   6.707   0.544  11.746 -0.8262  0.3305 -0.4749
 6545TIP3    H141050   6.718   0.451  11.726  1.0723  0.7251 -1.5124
 6545TIP3    H241051   6.794   0.573  11.773 -1.7405  1.4918  1.3776
 6546TIP3   OH241052   1.866   4.909   3.923 -0.2297 -0.4360 -0.6039
 6546TIP3    H141053   1.887   4.963   3.847  0.2417 -0.1355 -0.2606
 6546TIP3    H241054   1.807   4.842   3.889  0.8002 -0.9354 -1.4610
 6547TIP3   OH241055   5.667   5.740   4.112 -0.3916 -0.2902  0.4900
 6547TIP3    H141056   5.694   5.653   4.083 -1.0959 -0.6634  0.9388
 6547TIP3    H241057   5.745   5.776   4.154 -0.6536 -1.5127  2.1348
 6548TIP3   OH241058   4.709   4.846   2.201  0.1712  0.3825 -0.1659
 6548TIP3    H141059   4.672   4.929   2.232 -1.7505 -0.3519 -0.3532
 6548TIP3    H241060   4.743   4.804   2.280  1.0970  1.2833 -0.0583
 6549TIP3   OH241061   1.151   5.614  11.112  0.3161 -0.0120  0.4647
 6549TIP3    H141062   1.192   5.528  11.114  0.4082  0.0363  0.5943
 6549TIP3    H241063   1.062   5.598  11.145 -0.2682 -0.3927 -1.1871
 6550TIP3   OH241064   4.187   1.860  12.246  0.5416 -0.4734  0.5737
 6550TIP3    H141065   4.122   1.894  12.184  1.7955 -0.3814 -0.7248
 6550TIP3    H241066   4.177   1.915  12.323  0.3444  0.7733 -0.3114
 6551TIP3   OH241067   0.675   0.795  16.185 -0.3172 -0.0637  0.0815
 6551TIP3    H141068   0.621   0.870  16.210 -1.3837 -0.6450 -0.4081
 6551TIP3    H241069   0.633   0.761  16.106  1.4514  0.1574 -1.0035
 6552TIP3   OH241070   0.632   3.879   3.368 -0.3327 -0.1747  0.2118
 6552TIP3    H141071   0.606   3.968   3.347 -0.2389 -0.0807  0.4947
 6552TIP3    H241072   0.562   3.846   3.425  0.3699  0.2309  1.3482
 6553TIP3   OH241073   4.505   6.465   2.442  0.0441 -0.5025  0.2789
 6553TIP3    H141074   4.476   6.374   2.447  0.6218 -0.7072  0.0023
 6553TIP3    H241075   4.441   6.508   2.384  1.5327 -1.4784 -2.2370
 6554TIP3   OH241076   6.779   4.618   4.690 -0.4530 -0.4558 -0.0306
 6554TIP3    H141077   6.704   4.560   4.675  0.1244 -1.2382  0.1225
 6554TIP3    H241078   6.741   4.706   4.683 -1.4330 -0.8355  0.2510
 6555TIP3   OH241079   3.935   3.046  13.517  0.1173  0.0367 -0.3839
 6555TIP3    H141080   3.841   3.038  13.503  0.0925  0.5070 -0.4916
 6555TIP3    H241081   3.942   3.081  13.606  0.2025 -0.4538 -0.1986
 6556TIP3   OH241082   2.592   1.326  13.957 -0.3399  0.3928 -0.5531
 6556TIP3    H141083   2.549   1.374  14.027  0.7914  0.5906  0.0363
 6556TIP3    H241084   2.527   1.263  13.926 -0.4612 -0.6167  1.5830
 6557TIP3   OH241085   6.347   2.512  10.650 -0.0218  0.2492  0.2748
 6557TIP3    H141086   6.423   2.464  10.683  0.1314 -1.2314 -1.9800
 6557TIP3    H241087   6.382   2.596  10.619  0.9273 -0.7113 -1.4444
 6558TIP3   OH241088   2.703   5.000   4.715 -0.0875  0.1637 -0.4041
 6558TIP3    H141089   2.677   4.914   4.748  2.3939 -0.7293 -0.5890
 6558TIP3    H241090   2.639   5.061   4.752 -1.9256 -1.7354 -0.2942
 6559TIP3   OH241091   2.308   3.016  11.221  0.1629  0.3352 -0.0057
 6559TIP3    H141092   2.224   3.060  11.238  1.5376  2.6627  1.3015
 6559TIP3    H241093   2.313   2.949  11.290 -0.8479 -0.2566 -0.4718
 6560TIP3   OH241094   1.795   5.841   4.467 -0.4872 -0.3558  0.3685
 6560TIP3    H141095   1.790   5.844   4.372  0.5924  1.2557  0.3209
 6560TIP3    H241096   1.713   5.881   4.498 -0.2375  0.4128  0.0700
 6561TIP3   OH241097   3.768   5.107   3.887 -0.1789 -0.1971 -0.2547
 6561TIP3    H141098   3.695   5.129   3.829  0.3119  0.5749 -0.5944
 6561TIP3    H241099   3.840   5.086   3.827 -0.0446 -0.6931  0.0786
 6562TIP3   OH241100   5.825   3.334   2.767  0.8683 -0.7237  0.5565
 6562TIP3    H141101   5.768   3.342   2.690  0.0813  0.1849  1.2133
 6562TIP3    H241102   5.811   3.415   2.816  1.4561 -1.2368  1.6063
 6563TIP3   OH241103   2.571   4.161   1.193  0.5956 -0.4070 -0.1371
 6563TIP3    H141104   2.604   4.070   1.194 -0.1866 -0.7053 -0.7440
 6563TIP3    H241105   2.621   4.203   1.123  1.2387 -0.2467  0.4012
 6564TIP3   OH241106   2.788   6.350  13.533 -0.1729 -0.1711 -0.0758
 6564TIP3    H141107   2.777   6.412  13.605 -2.4435 -0.0518 -0.4769
 6564TIP3    H241108   2.739   6.272  13.559  0.2941 -0.7375 -0.8266
 6565TIP3   OH241109   5.791   3.028   1.028 -0.4701 -0.3519 -0.1258
 6565TIP3    H141110   5.857   3.079   0.980 -1.4633  0.7208 -0.3871
 6565TIP3    H241111   5.798   2.940   0.991  1.3276 -0.4833  0.3842
 6566TIP3   OH241112   0.603   3.504  16.232 -0.2518 -0.1840 -0.1413
 6566TIP3    H141113   0.519   3.495  16.187 -0.7814  1.1326  0.5373
 6566TIP3    H241114   0.579   3.523  16.323  0.6832  3.0883 -0.4663
 6567TIP3   OH241115   3.545   4.415   1.767 -0.6188  0.0429 -0.1195
 6567TIP3    H141116   3.533   4.322   1.787 -0.1386 -0.3846 -1.6485
 6567TIP3    H241117   3.589   4.451   1.844 -0.5353 -1.0739  0.3664
 6568TIP3   OH241118   5.831   5.045  13.698  0.0692  0.2082  0.4194
 6568TIP3    H141119   5.892   5.116  13.679  0.0097  0.7651  2.0943
 6568TIP3    H241120   5.759   5.058  13.637  0.7363  0.7131 -0.2728
 6569TIP3   OH241121   5.874   0.448  13.078  0.2308  0.2686 -0.0421
 6569TIP3    H141122   5.893   0.521  13.018  0.6321  0.2787  0.0951
 6569TIP3    H241123   5.894   0.369  13.027 -0.8942  0.2224 -0.4362
 6570TIP3   OH241124   2.540   3.322  17.187 -0.7281  0.4823  0.0530
 6570TIP3    H141125   2.475   3.252  17.196  0.8098 -1.0399 -0.1132
 6570TIP3    H241126   2.619   3.285  17.227 -0.1371  2.5550  0.9014
 6571TIP3   OH241127   2.438   3.726  13.503  0.0866 -0.1249  0.7398
 6571TIP3    H141128   2.429   3.813  13.465  0.0356 -0.0302  0.9699
 6571TIP3    H241129   2.349   3.689  13.499 -0.4367  0.7589  2.8891
 6572TIP3   OH241130   3.625   0.740   3.504 -0.1624 -0.1804  0.3676
 6572TIP3    H141131   3.719   0.755   3.498 -0.5733  4.0669  1.4811
 6572TIP3    H241132   3.587   0.798   3.439 -2.0900 -1.9637 -0.1984
 6573TIP3   OH241133   5.583   0.890  15.781 -0.4430  0.3035 -0.0600
 6573TIP3    H141134   5.501   0.940  15.773 -0.7669 -0.1927  0.0602
 6573TIP3    H241135   5.557   0.800  15.757 -0.4895 -0.3788  2.3443
 6574TIP3   OH241136   6.488   2.774   5.667 -0.6772  0.0560  0.0708
 6574TIP3    H141137   6.507   2.864   5.640 -0.2484 -0.4757 -1.4927
 6574TIP3    H241138   6.535   2.764   5.750 -2.9519  2.0884  1.7464
 6575TIP3   OH241139   5.750   4.229   5.094  0.7807 -0.3814  0.4003
 6575TIP3    H141140   5.800   4.181   5.028 -1.1217 -0.4978 -1.0529
 6575TIP3    H241141   5.741   4.168   5.167  0.5953 -1.3000 -0.3766
 6576TIP3   OH241142   2.510   3.173  12.309  0.2730 -0.4145  0.1166
 6576TIP3    H141143   2.508   3.135  12.221 -0.1602  0.1585 -0.1241
 6576TIP3    H241144   2.477   3.104  12.366 -2.8693  0.3574 -0.6076
 6577TIP3   OH241145   6.643   5.595  14.828  0.3167  0.0760 -0.1385
 6577TIP3    H141146   6.588   5.524  14.861  0.1136  0.7748  1.1224
 6577TIP3    H241147   6.597   5.675  14.857  2.0322  0.6802  1.0813
 6578TIP3   OH241148   0.022   0.629  13.750 -0.0864 -0.2399  0.6187
 6578TIP3    H141149   0.073   0.651  13.827 -0.6411  0.5508  0.7667
 6578TIP3    H241150   0.008   0.534  13.757  0.3314 -0.2622  1.1988
 6579TIP3   OH241151   2.862   2.974  15.440  0.1325 -0.5627  0.2882
 6579TIP3    H141152   2.889   3.001  15.527  0.7562  1.4429 -0.4796
 6579TIP3    H241153   2.794   3.036  15.415 -0.9911 -1.9154 -0.1769
 6580TIP3   OH241154   4.766   0.690  13.109  0.5066 -0.0703  0.4130
 6580TIP3    H141155   4.749   0.697  13.203 -0.4259 -2.4658  0.4912
 6580TIP3    H241156   4.819   0.767  13.088  0.3732  0.7400  2.8003
 6581TIP3   OH241157   0.786   6.693   4.148  0.0938  0.1607  0.3868
 6581TIP3    H141158   0.706   6.744   4.138 -0.5735 -0.8323  0.6182
 6581TIP3    H241159   0.774   6.616   4.093  1.7131  0.9151 -1.1537
 6582TIP3   OH241160   3.512   6.049   5.103  0.6737  0.2053  0.1285
 6582TIP3    H141161   3.431   6.093   5.077  0.7186  0.1964 -0.0309
 6582TIP3    H241162   3.522   6.070   5.195  0.9929  1.0149 -0.0828
 6583TIP3   OH241163   1.175   2.237  12.884 -0.0325  0.4603 -0.2502
 6583TIP3    H141164   1.160   2.144  12.868  0.0374  0.6375 -1.4455
 6583TIP3    H241165   1.193   2.274  12.798 -1.0117  1.7639  0.0705
 6584TIP3   OH241166   4.879   2.740   0.555 -0.2196 -0.5010 -0.6713
 6584TIP3    H141167   4.936   2.789   0.495  0.1053  0.3128  0.2742
 6584TIP3    H241168   4.792   2.748   0.517  0.1036 -0.7227 -1.4844
 6585TIP3   OH241169   5.597   4.689   2.492 -0.1106 -0.0813  0.3799
 6585TIP3    H141170   5.649   4.759   2.531  0.2656  0.0960 -0.4213
 6585TIP3    H241171   5.507   4.723   2.493  0.2699  1.0931 -1.4184
 6586TIP3   OH241172   4.120   4.781  15.972  0.8758  0.1435  0.2067
 6586TIP3    H141173   4.049   4.845  15.976  1.7190  1.0570  2.0670
 6586TIP3    H241174   4.080   4.699  16.002  0.0890  0.0858 -0.9535
 6587TIP3   OH241175   1.891   4.858   1.954 -0.2412  0.6218 -0.1185
 6587TIP3    H141176   1.918   4.923   2.019  1.1653 -1.6020  1.6549
 6587TIP3    H241177   1.964   4.854   1.893 -0.1249  0.3928  0.0346
 6588TIP3   OH241178   5.655   5.515  15.991 -0.5059  0.2087 -0.0805
 6588TIP3    H141179   5.603   5.547  16.064  0.7945  0.2396  0.8580
 6588TIP3    H241180   5.696   5.593  15.954 -0.8473  0.1444 -0.6241
 6589TIP3   OH241181   5.951   5.671  12.551 -0.2952 -0.4934  0.2546
 6589TIP3    H141182   5.997   5.753  12.535  0.9299 -0.9971  1.0082
 6589TIP3    H241183   5.866   5.682  12.508 -0.4477  1.4278  0.9451
 6590TIP3   OH241184   2.323   1.996  13.780  0.5254  0.3052 -0.4981
 6590TIP3    H141185   2.336   1.901  13.787  0.1868  0.1257 -1.9277
 6590TIP3    H241186   2.232   2.010  13.808  0.9045  0.3581  0.7341
 6591TIP3   OH241187   0.890   3.668   4.112 -0.1862  0.0765  0.2791
 6591TIP3    H141188   0.965   3.697   4.164 -0.5632 -0.8368  1.3853
 6591TIP3    H241189   0.828   3.741   4.116  0.3018  0.5100  0.0442
 6592TIP3   OH241190   0.992   4.800   5.860  0.2804  0.1195  0.4378
 6592TIP3    H141191   0.961   4.747   5.934 -1.7158 -0.0759 -0.4674
 6592TIP3    H241192   1.009   4.737   5.790 -1.0535  0.5109 -0.2922
 6593TIP3   OH241193   6.313   6.680  14.896  0.0904  0.0899  0.6670
 6593TIP3    H141194   6.368   6.751  14.861  0.2233 -0.9589 -1.3868
 6593TIP3    H241195   6.364   6.645  14.970  1.2863  0.4006  0.0240
 6594TIP3   OH241196   3.267   5.301   0.339 -0.4553 -0.5070  0.1827
 6594TIP3    H141197   3.286   5.224   0.393  1.1264 -0.5285 -0.3649
 6594TIP3    H241198   3.299   5.375   0.390 -0.9862 -0.3073  0.2311
 6595TIP3   OH241199   5.379   4.340  15.647 -0.4386 -0.7386  0.0993
 6595TIP3    H141200   5.352   4.420  15.693 -0.3709 -1.2361  1.0309
 6595TIP3    H241201   5.317   4.333  15.574 -1.2945 -0.5385  0.7798
 6596TIP3   OH241202   5.748   0.551   0.066 -0.5464  0.0967  0.4541
 6596TIP3    H141203   5.723   0.536  -0.025 -0.8456  0.9949  0.3771
 6596TIP3    H241204   5.665   0.547   0.114 -0.4595  0.1677  0.6114
 6597TIP3   OH241205   4.418   2.024   0.671 -0.0505  0.3853 -0.3800
 6597TIP3    H141206   4.432   2.104   0.722 -0.9543  0.2056  0.1932
 6597TIP3    H241207   4.360   2.051   0.600 -1.9052 -0.0851  0.8766
 6598TIP3   OH241208   1.143   1.161  10.827  0.2266 -0.1256 -0.0073
 6598TIP3    H141209   1.168   1.102  10.756 -2.4118  0.1747 -1.3231
 6598TIP3    H241210   1.168   1.248  10.796  0.7768 -0.1825  0.2763
 6599TIP3   OH241211   2.760   2.598   1.308 -0.2092  0.0496 -0.0763
 6599TIP3    H141212   2.731   2.507   1.298 -1.3168  0.3254  0.4451
 6599TIP3    H241213   2.855   2.593   1.316 -0.3050 -1.1077  0.4750
 6600TIP3   OH241214   4.241   0.407  13.785  0.2722  0.4617  0.2144
 6600TIP3    H141215   4.181   0.456  13.841 -0.2352 -0.3646  0.3987
 6600TIP3    H241216   4.324   0.455  13.793 -0.7474  2.7014 -1.4763
 6601TIP3   OH241217   4.910   3.735  16.486  0.2191 -0.0780  0.3682
 6601TIP3    H141218   4.966   3.731  16.563  0.6470  1.8605  0.2243
 6601TIP3    H241219   4.863   3.818  16.495 -1.4931 -0.9410 -0.2888
 6602TIP3   OH241220   2.072   1.969  12.706  0.2221 -0.3705  0.7999
 6602TIP3    H141221   1.999   1.938  12.759  0.8348 -0.7900  1.4151
 6602TIP3    H241222   2.139   1.901  12.715  0.3228 -0.4873 -0.5702
 6603TIP3   OH241223   2.133   2.444  17.032 -0.0534 -0.2823 -0.2899
 6603TIP3    H141224   2.048   2.410  17.003 -0.1447 -1.0860  0.8226
 6603TIP3    H241225   2.142   2.528  16.988 -0.8879 -0.7280 -1.3489
 6604TIP3   OH241226   4.383   1.269  16.260 -0.3202  0.7876 -0.6449
 6604TIP3    H141227   4.433   1.250  16.340  1.7089 -2.4839 -2.4702
 6604TIP3    H241228   4.294   1.242  16.280  0.0840  0.3167  0.6025
 6605TIP3   OH241229   0.253   4.004   2.656  0.7476  0.3188  0.2798
 6605TIP3    H141230   0.213   4.046   2.579 -0.2247 -1.5488 -0.2996
 6605TIP3    H241231   0.212   3.918   2.660  2.2782 -0.4034  1.7099
 6606TIP3   OH241232   3.024   2.286  15.558  0.5113 -0.5085  0.4974
 6606TIP3    H141233   2.998   2.337  15.635  0.4742  2.4458 -1.3358
 6606TIP3    H241234   3.119   2.292  15.556  0.4176  0.7677 -0.5257
 6607TIP3   OH241235   5.669   3.639  11.013 -0.3159  0.0131  0.2777
 6607TIP3    H141236   5.606   3.632  10.941  0.7736  0.6584 -0.7741
 6607TIP3    H241237   5.706   3.727  11.003  0.2613 -0.1016  1.2982
 6608TIP3   OH241238   1.644   1.506  13.639 -0.9998 -0.5692 -0.2262
 6608TIP3    H141239   1.660   1.601  13.633  0.7436 -0.7985  0.2922
 6608TIP3    H241240   1.728   1.469  13.667 -0.8465 -2.5660 -2.9479
 6609TIP3   OH241241   3.114   2.880   5.816 -0.0715  0.7658  0.6130
 6609TIP3    H141242   3.093   2.972   5.799  3.2757  1.9908  2.0729
 6609TIP3    H241243   3.189   2.884   5.876  0.7587 -2.9135  0.0545
 6610TIP3   OH241244   6.673   1.708   4.192 -0.4528 -0.0940  0.1836
 6610TIP3    H141245   6.633   1.734   4.109 -0.0837 -0.4679 -0.1192
 6610TIP3    H241246   6.733   1.780   4.213 -0.4274 -0.0717  0.0401
 6611TIP3   OH241247   6.328   4.617   6.187 -0.1637  0.3273  0.1473
 6611TIP3    H141248   6.328   4.655   6.275  0.3832  1.5292 -0.3484
 6611TIP3    H241249   6.412   4.571   6.180 -1.1484 -1.7445  1.0263
 6612TIP3   OH241250   1.648   6.568  10.715 -0.1249  0.2031 -0.5984
 6612TIP3    H141251   1.668   6.497  10.776 -0.2041 -0.3517 -1.2137
 6612TIP3    H241252   1.723   6.572  10.656 -0.4932  0.0746 -1.0821
 6613TIP3   OH241253   0.434   5.233  16.828 -0.3258  0.1793  0.5187
 6613TIP3    H141254   0.340   5.222  16.845 -0.8607  2.4407 -0.5044
 6613TIP3    H241255   0.443   5.214  16.735  0.3395 -0.5116  0.7197
 6614TIP3   OH241256   0.767   3.020  17.051  0.1639 -0.3730  0.6128
 6614TIP3    H141257   0.690   3.050  17.100  0.1228 -2.1613  1.7298
 6614TIP3    H241258   0.732   2.995  16.965 -0.2325  0.2444  0.5872
 6615TIP3   OH241259   4.663   0.998  13.825  0.5172  0.2855  0.1904
 6615TIP3    H141260   4.588   1.057  13.830  1.1495  1.0261  1.6473
 6615TIP3    H241261   4.659   0.949  13.908  1.7828  0.5380  0.4126
 6616TIP3   OH241262   0.403   5.543   5.073  0.1683 -0.1254  0.4468
 6616TIP3    H141263   0.451   5.524   5.153 -0.2227 -3.1450  0.0775
 6616TIP3    H241264   0.314   5.564   5.103  0.0873 -0.9994  0.8517
 6617TIP3   OH241265   3.710   4.871   0.708 -0.3615 -0.1385  0.1854
 6617TIP3    H141266   3.649   4.937   0.675  0.6507  0.3398 -0.8050
 6617TIP3    H241267   3.771   4.856   0.635  1.2470  0.0706  1.4180
 6618TIP3   OH241268   3.229   1.538   3.937 -0.0438  0.1334 -0.0469
 6618TIP3    H141269   3.240   1.452   3.895  0.0054  0.7480 -1.3458
 6618TIP3    H241270   3.265   1.600   3.874 -0.7621  1.1813  0.5517
 6619TIP3   OH241271   6.525   3.915  16.546 -0.2834  0.9365  0.0958
 6619TIP3    H141272   6.598   3.961  16.587 -0.3853  0.5880  0.6883
 6619TIP3    H241273   6.492   3.976  16.480 -1.5198  2.4892  1.9982
 6620TIP3   OH241274   3.976   6.285  14.506 -0.3325 -0.3256 -0.5203
 6620TIP3    H141275   3.974   6.311  14.414  0.0347 -1.2180 -0.8013
 6620TIP3    H241276   4.061   6.241  14.516  0.5553  1.5682  0.7704
 6621TIP3   OH241277   4.214   4.256   4.285  0.3658 -0.1249  0.2429
 6621TIP3    H141278   4.190   4.305   4.364  0.9433 -0.2642  0.5144
 6621TIP3    H241279   4.135   4.257   4.231  0.1715  0.5437  0.5299
 6622TIP3   OH241280   0.685   0.326   0.312 -1.0122 -0.1442  0.0326
 6622TIP3    H141281   0.619   0.388   0.281  0.9793  1.7620 -0.6448
 6622TIP3    H241282   0.754   0.330   0.246  0.5451 -0.7732  1.5621
 6623TIP3   OH241283   1.102   5.278  15.027 -0.1454  0.1932 -0.5441
 6623TIP3    H141284   1.146   5.353  15.068 -0.9157  1.7793 -2.4398
 6623TIP3    H241285   1.009   5.299  15.033 -0.2917  0.5284 -3.0464
 6624TIP3   OH241286   6.549   3.313   2.764 -0.3279 -0.4909 -0.1961
 6624TIP3    H141287   6.566   3.306   2.670 -0.8635  0.5362 -0.3906
 6624TIP3    H241288   6.629   3.284   2.806  0.2894  0.0098 -0.9976
 6625TIP3   OH241289   1.593   3.264  14.466  0.3375  0.1502  0.2395
 6625TIP3    H141290   1.519   3.220  14.425  1.2807 -2.2917  0.9266
 6625TIP3    H241291   1.640   3.304  14.393 -0.5005 -0.1265 -0.4693
 6626TIP3   OH241292   6.065   5.131  12.716  0.4371  0.0563  0.4965
 6626TIP3    H141293   6.103   5.044  12.726  0.4536  0.2239  2.1181
 6626TIP3    H241294   6.104   5.165  12.636 -0.1177 -1.6853 -0.5558
 6627TIP3   OH241295   5.276   5.505   4.712 -0.5554  0.8455 -0.0353
 6627TIP3    H141296   5.327   5.500   4.793 -2.6149  0.0584  1.2746
 6627TIP3    H241297   5.248   5.415   4.695 -0.1278  0.9816 -1.6960
 6628TIP3   OH241298   0.811   5.811   2.444 -0.2249  0.1696  0.1799
 6628TIP3    H141299   0.829   5.776   2.357 -0.5403  2.1285 -0.7333
 6628TIP3    H241300   0.882   5.874   2.459 -0.5971  0.4041  1.0227
 6629TIP3   OH241301   6.610   1.750  14.934  0.5088  0.3309 -0.1155
 6629TIP3    H141302   6.648   1.837  14.944 -1.3147  1.1910 -0.1971
 6629TIP3    H241303   6.569   1.731  15.018  1.1581 -0.6224  0.0102
 6630TIP3   OH241304   3.423   0.818  15.418  0.4860  0.2638 -0.0075
 6630TIP3    H141305   3.381   0.733  15.426  1.0189 -0.0899 -0.8412
 6630TIP3    H241306   3.426   0.835  15.324  2.1270  0.2982  0.0155
 6631TIP3   OH241307   3.511   1.858   5.110 -0.2973 -0.5606 -0.3013
 6631TIP3    H141308   3.417   1.853   5.127 -0.1444 -2.1597  0.3276
 6631TIP3    H241309   3.551   1.835   5.194  0.6393 -0.3930 -0.6884
 6632TIP3   OH241310   1.411   2.306   5.482  0.2872  0.2376  0.6299
 6632TIP3    H141311   1.498   2.267   5.486 -1.1014 -3.0836  1.7567
 6632TIP3    H241312   1.388   2.320   5.574  0.2870  3.0250  0.3131
 6633TIP3   OH241313   4.140   1.027   3.348  0.1964  0.8451  0.1445
 6633TIP3    H141314   4.175   0.942   3.322  1.0625  0.4003  2.4970
 6633TIP3    H241315   4.093   1.059   3.271 -1.2069 -2.2834 -0.4378
 6634TIP3   OH241316   2.522   2.753  15.639 -0.5697  0.5311  0.3741
 6634TIP3    H141317   2.461   2.707  15.582  2.0947  1.4166 -3.5708
 6634TIP3    H241318   2.582   2.686  15.670 -0.3621  0.4274 -0.2425
 6635TIP3   OH241319   4.949   3.736   2.306 -0.1620 -0.0081  0.0312
 6635TIP3    H141320   4.912   3.782   2.381 -2.0453  0.9381 -1.4019
 6635TIP3    H241321   4.878   3.730   2.243  0.7966 -2.5155 -0.9615
 6636TIP3   OH241322   0.702   2.258  12.008 -0.4231  0.4036  0.5207
 6636TIP3    H141323   0.679   2.248  12.100 -0.7400  0.6715  0.4750
 6636TIP3    H241324   0.689   2.172  11.970  1.1781 -0.1066  1.0337
 6637TIP3   OH241325   5.150   0.396   5.073  0.2393  0.2779  0.1606
 6637TIP3    H141326   5.095   0.318   5.075 -0.5142  0.7468 -0.9880
 6637TIP3    H241327   5.169   0.410   4.980  0.6233  1.2770  0.3717
 6638TIP3   OH241328   4.891   5.505  15.691  0.2003  0.1073 -0.3410
 6638TIP3    H141329   4.969   5.544  15.729  0.6480 -0.0013 -1.1276
 6638TIP3    H241330   4.894   5.413  15.719  0.2755  0.1374 -0.2499
 6639TIP3   OH241331   5.499   1.413   0.816 -0.8570 -0.7442  0.3290
 6639TIP3    H141332   5.572   1.351   0.822 -1.5476 -1.6766 -0.5372
 6639TIP3    H241333   5.424   1.359   0.791 -1.1411  0.6496 -2.0538
 6640TIP3   OH241334   6.653   0.870  11.418 -0.8571  0.5780 -0.1071
 6640TIP3    H141335   6.645   0.822  11.335  1.0106 -1.1707  0.6491
 6640TIP3    H241336   6.564   0.871  11.453 -1.4623  0.2525 -1.5339
 6641TIP3   OH241337   3.134   0.372  11.545 -0.2597  0.9023  0.3144
 6641TIP3    H141338   3.203   0.333  11.491 -0.8381 -0.8203  0.7933
 6641TIP3    H241339   3.104   0.447  11.493 -1.2905 -1.0864 -2.1829
 6642TIP3   OH241340   4.725   6.745   1.579 -0.4018 -0.0935 -0.0011
 6642TIP3    H141341   4.692   6.818   1.632  0.7443  0.2081  0.3234
 6642TIP3    H241342   4.741   6.675   1.642  0.3549  0.0463 -0.0310
 6643TIP3   OH241343   0.539   3.593   3.104 -0.1851  0.2510  0.6753
 6643TIP3    H141344   0.595   3.520   3.131  0.5454  0.5514  0.0080
 6643TIP3    H241345   0.600   3.665   3.087 -0.4957 -0.0567 -2.2404
 6644TIP3   OH241346   5.754   2.000  16.539 -0.3019 -0.3318  0.1028
 6644TIP3    H141347   5.757   1.905  16.553 -0.6120 -0.5708 -1.2485
 6644TIP3    H241348   5.668   2.026  16.571 -0.4947 -0.6294 -0.1626
 6645TIP3   OH241349   5.106   5.842   2.997 -1.1195  0.2421 -0.2539
 6645TIP3    H141350   5.074   5.831   2.907 -0.6369  0.3464 -0.4401
 6645TIP3    H241351   5.084   5.932   3.020  1.2672  1.1924 -1.3063
 6646TIP3   OH241352   1.155   1.148  11.876 -0.8642  0.1628 -0.0166
 6646TIP3    H141353   1.240   1.105  11.874 -0.2669  1.3518 -1.4748
 6646TIP3    H241354   1.098   1.085  11.920  0.4083 -1.3097 -0.3920
 6647TIP3   OH241355   5.816   5.503  14.922  0.0205  0.2677 -0.2831
 6647TIP3    H141356   5.817   5.492  15.017  0.8544  0.0546 -0.3140
 6647TIP3    H241357   5.908   5.504  14.896 -0.2119 -1.0641 -1.2537
 6648TIP3   OH241358   5.222   6.601  13.051 -0.1834  0.3010 -0.0024
 6648TIP3    H141359   5.267   6.561  12.976  0.4686  0.2828  0.3869
 6648TIP3    H241360   5.279   6.674  13.077 -1.0911  1.1560 -0.3643
 6649TIP3   OH241361   3.331   1.134  12.221 -0.1825  0.0748 -0.4677
 6649TIP3    H141362   3.292   1.089  12.147 -0.2659  1.1437 -1.0850
 6649TIP3    H241363   3.258   1.180  12.263  0.1515  0.9156 -0.7832
 6650TIP3   OH241364   6.123   2.205   3.381  0.3725  0.1483  0.2558
 6650TIP3    H141365   6.094   2.289   3.346 -0.9815 -0.1392  0.6378
 6650TIP3    H241366   6.043   2.155   3.394  1.1738 -1.4113 -0.4426
 6651TIP3   OH241367   6.494   2.086   1.265  0.7408 -0.4252 -0.2321
 6651TIP3    H141368   6.565   2.023   1.272  0.1695 -1.1525 -0.7525
 6651TIP3    H241369   6.467   2.081   1.173 -0.0597 -0.2536 -0.0150
 6652TIP3   OH241370   5.510   0.727  12.938 -0.2484  0.3210  0.6576
 6652TIP3    H141371   5.520   0.639  12.973 -0.5266  0.0789  0.1307
 6652TIP3    H241372   5.511   0.716  12.843 -1.9845  0.6893  0.5748
 6653TIP3   OH241373   2.909   2.063  13.563  0.2648 -0.0337  0.1810
 6653TIP3    H141374   2.862   2.146  13.574  0.9131  0.6201 -1.6116
 6653TIP3    H241375   2.849   2.008  13.512  0.8005  0.2689 -0.8134
 6654TIP3   OH241376   3.972   0.421   4.973 -0.4385  0.2213  0.0924
 6654TIP3    H141377   3.877   0.430   4.977 -0.5473  0.0521 -1.6343
 6654TIP3    H241378   3.993   0.422   4.880  1.0526 -1.8167  0.3425
 6655TIP3   OH241379   3.040   6.275   4.736 -0.0850 -0.2860 -0.9693
 6655TIP3    H141380   3.059   6.360   4.776 -0.4577 -0.6498  0.0042
 6655TIP3    H241381   3.002   6.223   4.806  0.6189 -1.4402 -1.4135
 6656TIP3   OH241382   2.804   6.641  11.701 -0.4591 -0.5670 -0.1268
 6656TIP3    H141383   2.894   6.645  11.734 -0.8552  0.5546  0.8810
 6656TIP3    H241384   2.812   6.599  11.615  1.3950  1.7885 -1.2379
 6657TIP3   OH241385   2.052   0.664   1.037 -0.1459 -0.1444 -0.5134
 6657TIP3    H141386   2.096   0.748   1.044 -0.6880  0.0241  1.4349
 6657TIP3    H241387   1.961   0.682   1.060 -0.0066 -1.4399  1.2754
 6658TIP3   OH241388   1.869   0.725  16.786 -0.7143 -0.2682 -0.0514
 6658TIP3    H141389   1.838   0.656  16.727  0.3909  0.0179 -1.0123
 6658TIP3    H241390   1.964   0.723  16.778 -0.6166  0.8061  0.5611
 6659TIP3   OH241391   0.538   6.735  14.343 -0.2414  0.2508 -0.3349
 6659TIP3    H141392   0.542   6.825  14.378 -0.6220  0.7509 -1.5368
 6659TIP3    H241393   0.504   6.745  14.255 -0.8447 -1.1581 -0.2806
 6660TIP3   OH241394   6.024   0.022   2.536 -0.5177 -0.0582  0.4645
 6660TIP3    H141395   5.948   0.012   2.593 -1.8112 -0.0231 -1.1706
 6660TIP3    H241396   5.998   0.090   2.473  1.9100  1.9449  1.4688
 6661TIP3   OH241397   1.069   5.460   4.170  0.2980 -0.0491  0.3133
 6661TIP3    H141398   1.070   5.374   4.129  0.5948  0.5847 -1.0852
 6661TIP3    H241399   0.979   5.470   4.201 -0.2796 -0.1295 -1.2169
 6662TIP3   OH241400   0.484   4.972   0.330 -0.0813  0.2389  0.2992
 6662TIP3    H141401   0.509   5.015   0.248  1.1195  1.3752  1.2169
 6662TIP3    H241402   0.471   4.880   0.305 -1.4770  0.8472 -1.4689
 6663TIP3   OH241403   5.398   5.101   2.013  0.0334 -0.6235  0.0367
 6663TIP3    H141404   5.342   5.024   2.019 -0.0906 -0.7111 -1.6610
 6663TIP3    H241405   5.395   5.125   1.920 -0.3176  1.7224  0.5985
 6664TIP3   OH241406   0.103   2.487   4.058 -0.8806 -0.3764  0.0034
 6664TIP3    H141407   0.077   2.470   4.148 -1.8924 -0.7037 -0.3388
 6664TIP3    H241408   0.021   2.502   4.011 -0.3681 -0.1814 -0.8578
 6665TIP3   OH241409   3.892   2.131  16.992 -0.8039 -0.3260  0.1612
 6665TIP3    H141410   3.903   2.191  16.918 -1.0359 -1.7271 -1.0635
 6665TIP3    H241411   3.908   2.185  17.069 -2.2112  1.6001 -0.8060
 6666TIP3   OH241412   2.734   3.062   5.510 -0.1044 -0.7709  0.1879
 6666TIP3    H141413   2.660   3.003   5.517 -0.2544 -0.4669  1.4617
 6666TIP3    H241414   2.764   3.074   5.600  1.0156 -0.2906 -0.2283
 6667TIP3   OH241415   0.306   1.113  13.794  0.0955 -0.0305 -0.2965
 6667TIP3    H141416   0.283   1.044  13.855  0.4022  1.0422  1.0960
 6667TIP3    H241417   0.398   1.132  13.812  0.2226  0.2535 -1.1616
 6668TIP3   OH241418   2.479   2.687   4.325 -0.4418  0.5060 -0.5663
 6668TIP3    H141419   2.554   2.669   4.382 -0.9340 -0.7514 -0.3065
 6668TIP3    H241420   2.509   2.660   4.238 -1.3525 -2.2789 -0.1049
 6669TIP3   OH241421   5.039   4.516  13.351  0.2521 -0.0796 -0.2528
 6669TIP3    H141422   5.035   4.423  13.326 -2.5980 -0.9797  2.7751
 6669TIP3    H241423   5.132   4.537  13.350  1.0188 -2.9862 -1.0534
 6670TIP3   OH241424   4.658   2.987  11.347  0.2698 -0.4472 -0.1735
 6670TIP3    H141425   4.649   2.894  11.366  0.0762 -0.5823 -0.8899
 6670TIP3    H241426   4.621   2.997  11.259  2.5600 -0.1474 -1.1887
 6671TIP3   OH241427   1.719   2.942   1.013  0.4635 -0.0880  0.0553
 6671TIP3    H141428   1.663   2.919   0.938  1.4172 -1.4044 -0.2833
 6671TIP3    H241429   1.721   3.037   1.012  0.0337 -0.0681 -1.2882
 6672TIP3   OH241430   2.744   1.506  15.195  0.0918  0.2520 -0.5667
 6672TIP3    H141431   2.806   1.449  15.240  0.6729  0.3049 -1.2841
 6672TIP3    H241432   2.795   1.546  15.125 -0.0032  2.5571  0.6038
 6673TIP3   OH241433   3.533   4.174  11.927 -0.2868  0.1131 -0.4297
 6673TIP3    H141434   3.512   4.105  11.990 -1.3025 -0.0422 -0.9140
 6673TIP3    H241435   3.450   4.192  11.883  0.4352  0.0773 -1.8596
 6674TIP3   OH241436   6.741   2.459   4.283  0.1405  0.3061  0.5439
 6674TIP3    H141437   6.654   2.424   4.260 -0.2080  1.1109  0.6106
 6674TIP3    H241438   6.724   2.550   4.307  0.7788  0.0184  2.1713
 6675TIP3   OH241439   6.475   2.196  11.709  0.2338  0.0341 -0.4343
 6675TIP3    H141440   6.522   2.274  11.737 -0.4025  0.6691 -1.0886
 6675TIP3    H241441   6.492   2.189  11.615 -2.9873  1.8351 -1.3319
 6676TIP3   OH241442   2.615   4.101   1.482 -0.1245  0.4357 -0.0164
 6676TIP3    H141443   2.627   4.127   1.391 -1.0987  1.5747  0.1523
 6676TIP3    H241444   2.570   4.016   1.477 -2.6967  1.7377 -0.6610
 6677TIP3   OH241445   6.149   1.090   5.323 -0.4772 -0.3357  0.3631
 6677TIP3    H141446   6.129   1.086   5.417 -0.6911  0.8219  0.3787
 6677TIP3    H241447   6.094   1.160   5.289  0.6496  0.2482 -0.3427
 6678TIP3   OH241448   3.959   0.569  16.891  0.5752 -0.6226  0.2625
 6678TIP3    H141449   3.985   0.638  16.951 -1.5086  0.1587  0.3743
 6678TIP3    H241450   3.961   0.489  16.944  0.6607 -0.2597  0.8160
 6679TIP3   OH241451   1.664   3.727   2.971 -0.0685  0.1890 -0.4895
 6679TIP3    H141452   1.649   3.821   2.966 -0.0553  0.2794  0.8712
 6679TIP3    H241453   1.602   3.690   2.908 -2.4191  0.9169  1.2436
 6680TIP3   OH241454   2.950   4.760   5.858  0.0796 -0.0391  0.5563
 6680TIP3    H141455   3.023   4.812   5.894 -0.1012  0.1060  0.7122
 6680TIP3    H241456   2.946   4.786   5.766 -0.8649  1.2290  0.9226
 6681TIP3   OH241457   5.314   1.867   0.462  0.6541  0.3289 -0.2388
 6681TIP3    H141458   5.302   1.774   0.477 -1.4244  0.8226  1.7928
 6681TIP3    H241459   5.383   1.893   0.522  0.1658  0.3446  0.3227
 6682TIP3   OH241460   4.180   1.613   1.271  0.0453  0.2858  0.2281
 6682TIP3    H141461   4.105   1.588   1.325  0.4096 -2.1373 -0.2630
 6682TIP3    H241462   4.147   1.612   1.181  0.4243  0.1629  0.0853
 6683TIP3   OH241463   5.607   5.769  12.018  0.0315  0.3839  0.3758
 6683TIP3    H141464   5.663   5.845  12.001  1.9953 -1.1389 -0.4382
 6683TIP3    H241465   5.531   5.782  11.962  1.8033  0.3123 -2.2639
 6684TIP3   OH241466   4.527   2.250   2.304  0.2564 -0.1972 -0.0483
 6684TIP3    H141467   4.613   2.223   2.338  0.2584  1.6625  1.5792
 6684TIP3    H241468   4.507   2.186   2.236  2.9746 -0.6175 -0.5458
 6685TIP3   OH241469   4.363   0.473   1.582  0.4264 -0.2857 -0.0289
 6685TIP3    H141470   4.332   0.495   1.670 -1.5590 -0.0696 -0.7198
 6685TIP3    H241471   4.385   0.557   1.542  3.1346 -0.5133  0.8184
 6686TIP3   OH241472   0.410   0.787   5.253  0.4488 -0.6587 -0.0726
 6686TIP3    H141473   0.491   0.830   5.224  0.3916 -1.1100 -0.9263
 6686TIP3    H241474   0.404   0.708   5.200  0.4234 -1.6156  1.3099
 6687TIP3   OH241475   3.305   6.719  14.070 -0.1482  0.5304  0.3449
 6687TIP3    H141476   3.382   6.729  14.014  0.6368 -0.6452  1.1678
 6687TIP3    H241477   3.265   6.806  14.072 -0.5500  0.4976 -2.4591
 6688TIP3   OH241478   2.713   1.828  12.987 -0.2220 -0.2790 -0.3937
 6688TIP3    H141479   2.646   1.870  13.042  1.6999  0.9431  1.1504
 6688TIP3    H241480   2.723   1.740  13.025  1.4446  0.7135  1.7068
 6689TIP3   OH241481   2.321   1.939  16.560 -0.7930  0.2515 -0.5301
 6689TIP3    H141482   2.341   1.901  16.646 -0.1896 -2.2838 -1.6896
 6689TIP3    H241483   2.403   1.932  16.512 -0.8109  2.6654 -1.0398
 6690TIP3   OH241484   6.617   3.023  11.742 -0.1693  0.5520 -0.1456
 6690TIP3    H141485   6.652   2.969  11.814  0.7849 -0.7146 -1.5003
 6690TIP3    H241486   6.529   2.987  11.726  0.1953 -0.1746 -0.5817
 6691TIP3   OH241487   2.283   3.217  13.209 -0.6803 -0.0508 -0.9023
 6691TIP3    H141488   2.348   3.174  13.153  0.4637  0.8898 -0.3456
 6691TIP3    H241489   2.309   3.309  13.210 -0.3110 -0.1096  1.5935
 6692TIP3   OH241490   3.054   1.402   2.841 -0.4521  0.0432 -0.2409
 6692TIP3    H141491   3.120   1.425   2.775  0.7985 -0.6631  0.7220
 6692TIP3    H241492   2.973   1.396   2.792  0.0867  1.4276 -1.3901
 6693TIP3   OH241493   2.746   1.662   5.074 -0.1155 -0.6178  0.0592
 6693TIP3    H141494   2.754   1.617   4.990  1.3035  0.3946 -0.3751
 6693TIP3    H241495   2.836   1.679   5.102 -0.5665  1.4867  0.4361
 6694TIP3   OH241496   4.580   6.224   3.671  0.3648  0.0426  0.0843
 6694TIP3    H141497   4.572   6.130   3.652  2.5526 -0.8885  2.9089
 6694TIP3    H241498   4.524   6.267   3.607  1.5401 -2.9623 -3.2663
 6695TIP3   OH241499   2.440   3.744   0.657 -0.0856 -0.0530  0.3301
 6695TIP3    H141500   2.509   3.751   0.591 -0.5567  0.6186 -0.0955
 6695TIP3    H241501   2.456   3.659   0.699 -0.4393 -1.0168 -1.3904
 6696TIP3   OH241502   1.132   4.625  14.841  0.0835 -0.0206  0.2022
 6696TIP3    H141503   1.104   4.702  14.891 -1.8625 -1.3640  1.2860
 6696TIP3    H241504   1.050   4.581  14.817  1.1308 -3.4546  2.3266
 6697TIP3   OH241505   5.700   6.239  13.934  0.0310 -0.3395 -0.4371
 6697TIP3    H141506   5.667   6.174  13.873 -0.8337  0.3454 -0.7213
 6697TIP3    H241507   5.621   6.280  13.970  0.5578  1.0830 -0.8490
 6698TIP3   OH241508   2.274   0.483   2.684  0.6123 -0.0037 -0.4106
 6698TIP3    H141509   2.325   0.557   2.717  0.4195  0.2485 -0.6713
 6698TIP3    H241510   2.312   0.407   2.728 -0.0945  0.3905  0.9386
 6699TIP3   OH241511   4.302   2.109   2.712  0.3842  0.4076  0.3207
 6699TIP3    H141512   4.231   2.093   2.650 -0.2445  0.7931  0.9119
 6699TIP3    H241513   4.360   2.170   2.667  0.3560  0.0581 -0.1884
 6700TIP3   OH241514   6.602   6.218  13.023  0.3564  0.6434  0.2952
 6700TIP3    H141515   6.655   6.173  13.089 -0.9393 -1.9562 -0.3241
 6700TIP3    H241516   6.512   6.192  13.042 -0.1913  0.9982 -1.6147
 6701TIP3   OH241517   4.461   4.431   2.032 -0.0655 -0.9188  0.4001
 6701TIP3    H141518   4.523   4.358   2.043  2.1199  0.6561 -0.5302
 6701TIP3    H241519   4.497   4.501   2.086 -1.8090 -0.3104  0.8347
 6702TIP3   OH241520   4.271   2.094  15.171  0.5246  0.3321 -0.5358
 6702TIP3    H141521   4.291   2.103  15.264  1.2056 -0.8939 -0.5381
 6702TIP3    H241522   4.186   2.050  15.168  0.9214 -0.4639 -0.4675
 6703TIP3   OH241523   2.181   0.517   3.380  0.0295  0.5400 -0.2289
 6703TIP3    H141524   2.202   0.581   3.313  0.5948  0.5513 -0.0480
 6703TIP3    H241525   2.094   0.484   3.357 -0.3240  1.4649 -0.2457
 6704TIP3   OH241526   1.536   3.734   3.415  0.0876 -0.4491  0.3145
 6704TIP3    H141527   1.450   3.749   3.375 -0.2612 -2.1755  0.3407
 6704TIP3    H241528   1.582   3.678   3.352  0.6238 -0.7803  0.9884
 6705TIP3   OH241529   3.131   5.044  12.755  0.3224  0.5761  0.0624
 6705TIP3    H141530   3.199   5.110  12.769  0.3797  0.4850  0.2139
 6705TIP3    H241531   3.119   5.003  12.840  0.8277 -0.1212 -0.1863
 6706TIP3   OH241532   0.035   1.870  12.080 -0.4115 -0.4825 -0.2339
 6706TIP3    H141533  -0.017   1.826  12.148 -2.8069  0.0192 -1.6222
 6706TIP3    H241534  -0.030   1.910  12.023  1.4403 -1.5595 -3.3301
 6707TIP3   OH241535   2.588   4.232   4.978 -0.3380  0.0854  0.0120
 6707TIP3    H141536   2.607   4.138   4.976 -0.9609 -0.0591 -2.0597
 6707TIP3    H241537   2.644   4.270   4.911  0.9475  1.4809  1.7641
 6708TIP3   OH241538   4.225   3.902   2.446 -0.4902  0.0093  0.0229
 6708TIP3    H141539   4.164   3.947   2.389 -1.5096 -1.7127 -0.3318
 6708TIP3    H241540   4.170   3.857   2.510  0.4906 -0.3353  0.6503
 6709TIP3   OH241541   3.638   4.252  16.257  0.2153 -0.4534  0.8924
 6709TIP3    H141542   3.702   4.211  16.199  0.5299  0.2348  0.7405
 6709TIP3    H241543   3.571   4.286  16.198 -0.0551 -0.7659  1.0187
 6710TIP3   OH241544   0.291   6.357   3.050 -0.2791  0.0700 -0.9362
 6710TIP3    H141545   0.234   6.405   3.110  0.8822 -1.2694  1.4056
 6710TIP3    H241546   0.318   6.421   2.985 -3.6852  0.9716 -1.6709
 6711TIP3   OH241547   2.040   5.319   0.673  0.2710  0.6457 -0.2268
 6711TIP3    H141548   2.051   5.408   0.638 -0.9655  0.6387 -0.7085
 6711TIP3    H241549   1.999   5.270   0.602  0.7243 -0.2535  0.1209
 6712TIP3   OH241550   3.195   2.767  13.061 -0.2273  0.0477  0.2789
 6712TIP3    H141551   3.116   2.734  13.019 -0.4685  0.3458  0.4999
 6712TIP3    H241552   3.164   2.828  13.128  0.1260 -0.6854  1.1416
 6713TIP3   OH241553   4.992   4.815  13.085 -0.0370 -0.1436 -0.4508
 6713TIP3    H141554   4.994   4.725  13.052  1.6087 -0.2817 -0.0609
 6713TIP3    H241555   4.993   4.869  13.006 -1.0422 -0.4374 -0.6873
 6714TIP3   OH241556   0.653   6.656   1.416  0.3470 -0.9304 -0.0298
 6714TIP3    H141557   0.662   6.638   1.510  1.6251  0.5784  0.1855
 6714TIP3    H241558   0.743   6.656   1.383  0.1611  1.0508 -0.7058
 6715TIP3   OH241559   6.478   6.767   5.899  0.0220 -0.8961 -0.3414
 6715TIP3    H141560   6.516   6.705   5.961 -1.8064 -4.3494 -2.3521
 6715TIP3    H241561   6.544   6.777   5.830  0.3559 -0.5088  0.0316
 6716TIP3   OH241562   2.658   4.756  12.163  0.0900 -1.1496 -0.0708
 6716TIP3    H141563   2.741   4.758  12.211  0.3612 -0.7516 -0.5468
 6716TIP3    H241564   2.595   4.721  12.225  0.5411 -1.1074  0.4152
 6717TIP3   OH241565   4.599   5.990  14.363 -0.1838 -0.1383 -0.2613
 6717TIP3    H141566   4.636   6.077  14.372  1.4786 -0.8387  0.0141
 6717TIP3    H241567   4.641   5.938  14.432 -0.5438 -1.3394 -0.9119
 6718TIP3   OH241568   2.984   1.345   3.563  0.7972 -0.0270 -0.2803
 6718TIP3    H141569   3.012   1.257   3.541 -1.0721 -0.4802 -0.9694
 6718TIP3    H241570   3.065   1.396   3.563  1.9048 -1.7022  0.0973
 6719TIP3   OH241571   0.931   2.988   0.676 -0.1103  0.2160 -0.4003
 6719TIP3    H141572   0.847   3.026   0.649 -1.0485 -2.3363 -1.3551
 6719TIP3    H241573   0.996   3.055   0.655 -1.7400  1.6700 -1.0099
 6720TIP3   OH241574   2.334   1.363  13.726 -0.2494  0.1111 -0.2074
 6720TIP3    H141575   2.381   1.281  13.742 -1.4732 -0.8119 -1.1409
 6720TIP3    H241576   2.382   1.404  13.654 -0.7552 -0.7543 -1.0590
 6721TIP3   OH241577   0.937   2.023  13.665  0.8793  0.4312 -0.8560
 6721TIP3    H141578   0.938   2.017  13.569  3.8830  0.5798 -0.9090
 6721TIP3    H241579   1.014   2.075  13.687 -0.2516  1.2223  1.6519
 6722TIP3   OH241580   4.030   3.970  15.607 -0.0969  0.2849 -0.2422
 6722TIP3    H141581   4.089   3.970  15.531 -2.0608  3.2350 -2.0292
 6722TIP3    H241582   3.949   3.930  15.574  0.1219 -1.7126  1.4880
 6723TIP3   OH241583   5.478   3.515  14.863  0.5942  0.1039 -0.5192
 6723TIP3    H141584   5.442   3.573  14.930 -1.6966  0.1780 -1.7045
 6723TIP3    H241585   5.531   3.572  14.808  1.1453  0.3647  0.2602
 6724TIP3   OH241586   5.333   0.231   3.406  0.5786  0.0874  0.3826
 6724TIP3    H141587   5.358   0.168   3.339 -0.2861  1.0004 -0.8454
 6724TIP3    H241588   5.306   0.178   3.481 -2.3886 -1.1596 -1.3874
 6725TIP3   OH241589   5.691   0.054  14.622  0.4561 -0.1078  0.5049
 6725TIP3    H141590   5.765   0.021  14.572  0.8645  0.6650  0.5929
 6725TIP3    H241591   5.694   0.149  14.611 -1.7137 -0.1559 -1.1885
 6726TIP3   OH241592   1.369   5.054   2.692  0.0787 -0.0396  0.5045
 6726TIP3    H141593   1.355   5.055   2.787  1.2002  1.1714  0.6804
 6726TIP3    H241594   1.418   5.134   2.674 -1.2796  0.4458 -1.2994
 6727TIP3   OH241595   2.547   2.342  15.727 -0.5751 -0.1280  0.0722
 6727TIP3    H141596   2.624   2.292  15.754  0.1857  0.5166 -0.8765
 6727TIP3    H241597   2.539   2.325  15.633 -1.0613  0.5227 -0.0047
 6728TIP3   OH241598   0.668   4.209  14.287 -0.2141  0.1668  0.1632
 6728TIP3    H141599   0.608   4.249  14.350  0.5312  0.7662  0.5144
 6728TIP3    H241600   0.694   4.281  14.229  0.7292  0.0959  0.4724
 6729TIP3   OH241601   2.632   2.753  16.082 -0.5179  0.3138  0.1589
 6729TIP3    H141602   2.673   2.823  16.032  0.3070 -0.3414 -0.1032
 6729TIP3    H241603   2.538   2.768  16.071 -0.3621  0.2871 -1.4347
 6730TIP3   OH241604   5.945   2.689  14.776 -0.6323  0.0883 -0.0424
 6730TIP3    H141605   6.029   2.644  14.772 -0.3346  0.6681 -0.4807
 6730TIP3    H241606   5.959   2.758  14.842 -0.6507  0.3973 -0.3566
 6731TIP3   OH241607   6.139   4.229  12.719  0.2913  0.0703  0.0130
 6731TIP3    H141608   6.121   4.141  12.752 -1.4429  0.5932  0.6267
 6731TIP3    H241609   6.192   4.216  12.641  0.1907 -1.5092  0.1829
 6732TIP3   OH241610   2.109   4.587  16.400  0.5176 -0.4291  0.4129
 6732TIP3    H141611   2.041   4.575  16.334  0.6434 -0.1452  0.2288
 6732TIP3    H241612   2.149   4.501  16.410  1.8522 -0.0762 -1.3551
 6733TIP3   OH241613   4.633   6.770   4.850  0.2051 -0.2669  0.1246
 6733TIP3    H141614   4.716   6.814   4.868  1.1776 -1.8926 -0.1001
 6733TIP3    H241615   4.567   6.838   4.858  1.6970  1.4424 -1.2281
 6734TIP3   OH241616   0.103   4.276  15.822 -0.4599 -0.0331  0.2871
 6734TIP3    H141617   0.183   4.273  15.770 -0.3858 -2.4169  0.4179
 6734TIP3    H241618   0.129   4.314  15.905  0.8401 -1.7205  0.7049
 6735TIP3   OH241619   6.674   2.185   0.375  0.4585  0.3923 -0.4118
 6735TIP3    H141620   6.610   2.118   0.401  0.6074 -0.1427 -1.3810
 6735TIP3    H241621   6.759   2.140   0.380  0.7612  1.0533  0.7257
 6736TIP3   OH241622   5.665   1.688   2.093 -0.2287  0.1108 -0.4825
 6736TIP3    H141623   5.668   1.640   2.175  1.0456  0.8252 -0.0850
 6736TIP3    H241624   5.609   1.635   2.036  0.8682 -1.6864  0.0221
 6737TIP3   OH241625   6.225   3.497   4.195  0.3284  0.5653 -0.0093
 6737TIP3    H141626   6.220   3.558   4.269  2.2256  0.4469  0.2552
 6737TIP3    H241627   6.152   3.523   4.138 -1.9066 -0.0319  2.3594
 6738TIP3   OH241628   6.527   2.631   0.224  0.0043  0.3425  0.6399
 6738TIP3    H141629   6.561   2.571   0.291  0.0057  0.2934  0.5955
 6738TIP3    H241630   6.444   2.662   0.259 -0.1146  0.1248  0.5536
 6739TIP3   OH241631   2.088   1.918  16.407  0.0585  0.2722 -0.3436
 6739TIP3    H141632   2.174   1.921  16.450 -0.0453  2.2327 -0.1678
 6739TIP3    H241633   2.106   1.940  16.316 -0.1711 -0.1039 -0.4821
 6740TIP3   OH241634   3.494   4.458  13.157  0.1681 -0.0417  0.8125
 6740TIP3    H141635   3.589   4.446  13.148  0.3002  1.1777  0.3886
 6740TIP3    H241636   3.457   4.404  13.087  0.5898  0.0696  0.4964
 6741TIP3   OH241637   5.262   3.308   1.185  0.5967 -0.3171  0.5733
 6741TIP3    H141638   5.184   3.288   1.237 -0.7285 -1.4592 -1.6729
 6741TIP3    H241639   5.315   3.364   1.241 -2.5547  1.8530  1.6512
 6742TIP3   OH241640   5.963   4.563   5.675 -0.1553  0.6262  0.0650
 6742TIP3    H141641   5.869   4.554   5.693 -0.1260 -1.2309 -0.4755
 6742TIP3    H241642   5.974   4.655   5.649 -1.9612  0.6761 -0.6526
 6743TIP3   OH241643   2.947   2.876   4.853  0.2755  0.3696 -0.0718
 6743TIP3    H141644   2.898   2.953   4.823 -0.6465  0.3591  1.3167
 6743TIP3    H241645   3.011   2.861   4.784  0.7020  2.5735 -0.2543
 6744TIP3   OH241646   6.767   4.944   0.420 -0.2065 -0.2051  0.2679
 6744TIP3    H141647   6.693   4.900   0.463 -1.0705  1.5051  0.5895
 6744TIP3    H241648   6.750   4.933   0.326  0.3204 -1.6919  0.3101
 6745TIP3   OH241649   1.267   0.624   5.636  0.8015  1.1466  0.5201
 6745TIP3    H141650   1.236   0.556   5.577  1.7719  1.0109  0.1441
 6745TIP3    H241651   1.361   0.607   5.645  0.9408  2.0639  0.9114
 6746TIP3   OH241652   5.324   0.709  15.961 -0.4897 -0.0765  0.0629
 6746TIP3    H141653   5.381   0.775  16.001 -1.5568  0.8132  0.1438
 6746TIP3    H241654   5.244   0.710  16.014 -0.0731 -2.3948  0.9004
 6747TIP3   OH241655   2.846   1.164  12.775  0.4862  0.5200  0.0877
 6747TIP3    H141656   2.911   1.108  12.818  0.6547 -0.4507 -1.3458
 6747TIP3    H241657   2.897   1.213  12.711 -0.2545 -0.8722 -1.6542
 6748TIP3   OH241658   3.804   6.778  13.441  0.4535  0.1578  0.3432
 6748TIP3    H141659   3.877   6.804  13.385  0.0351 -0.3414 -0.4490
 6748TIP3    H241660   3.843   6.720  13.506  0.7718 -0.1099 -0.0797
 6749TIP3   OH241661   5.416   2.038  16.497 -0.3836  0.1747 -0.6168
 6749TIP3    H141662   5.479   2.076  16.558 -0.0152  0.6674 -1.2991
 6749TIP3    H241663   5.349   1.999  16.554  0.7340 -0.7377  0.1315
 6750TIP3   OH241664   1.976   5.312   0.138 -0.5057 -0.2491  0.0448
 6750TIP3    H141665   2.033   5.298   0.214 -0.3000 -0.1148 -0.0835
 6750TIP3    H241666   1.900   5.256   0.154  0.7235 -2.2854 -0.9253
 6751TIP3   OH241667   0.195   4.063  14.091  0.6436 -0.1201  0.7480
 6751TIP3    H141668   0.126   4.004  14.122  1.2459 -0.9936  0.4551
 6751TIP3    H241669   0.148   4.141  14.063 -0.2710 -0.8080  0.2960
 6752TIP3   OH241670   3.505   3.883  15.593  0.0634  0.1478 -0.3130
 6752TIP3    H141671   3.423   3.908  15.637  0.5168 -0.3903  0.9016
 6752TIP3    H241672   3.540   3.813  15.648  1.5877  0.7175 -0.5232
 6753TIP3   OH241673   2.971   5.300  12.329 -0.1592  0.1833 -0.1044
 6753TIP3    H141674   2.921   5.237  12.381 -0.8446  1.0198  0.2867
 6753TIP3    H241675   2.956   5.273  12.238 -0.8759  0.0845  0.0368
 6754TIP3   OH241676   3.931   2.825  10.683  0.6930  0.3259 -0.9893
 6754TIP3    H141677   3.919   2.740  10.724 -1.2449  0.8872 -0.3047
 6754TIP3    H241678   3.878   2.821  10.604  0.0032  1.1430 -0.5744
 6755TIP3   OH241679   2.352   1.455   2.082 -0.2541  0.0924  0.5068
 6755TIP3    H141680   2.303   1.526   2.123  0.1112 -0.0612  1.2350
 6755TIP3    H241681   2.442   1.487   2.079 -0.6656  1.2997 -2.8735
 6756TIP3   OH241682   4.486   1.579   0.202  0.4475 -0.6685 -0.2591
 6756TIP3    H141683   4.514   1.504   0.253 -1.0216 -0.2906  1.1997
 6756TIP3    H241684   4.419   1.545   0.143 -2.1057 -0.1892  2.1598
 6757TIP3   OH241685   6.106   3.590   5.024  0.1315  0.8470  0.3381
 6757TIP3    H141686   6.089   3.555   5.111 -2.3995  1.6367  0.2523
 6757TIP3    H241687   6.020   3.619   4.993  0.9216  0.4107 -2.5199
 6758TIP3   OH241688   1.678   4.252  14.833  0.2596  0.1630 -0.3812
 6758TIP3    H141689   1.738   4.317  14.798 -0.2029  0.4272 -0.6946
 6758TIP3    H241690   1.636   4.213  14.756 -0.0209  0.0321 -0.1661
 6759TIP3   OH241691   1.205   2.589   0.009 -0.0064 -0.2448 -0.4378
 6759TIP3    H141692   1.196   2.591   0.105  0.2689 -0.6409 -0.3983
 6759TIP3    H241693   1.240   2.675  -0.014 -1.1594  0.2760 -0.3048
 6760TIP3   OH241694   6.120   4.489   2.445  0.5212 -0.1779  0.0546
 6760TIP3    H141695   6.147   4.480   2.354  1.6612 -0.3085  0.3872
 6760TIP3    H241696   6.185   4.438   2.495  0.0131  0.0194  0.9511
 6761TIP3   OH241697   2.301   5.614  13.587 -0.1268 -1.2712 -0.0864
 6761TIP3    H141698   2.320   5.654  13.502  1.2146  0.5684  1.0057
 6761TIP3    H241699   2.214   5.646  13.610  0.1837 -0.4072 -0.0593
 6762TIP3   OH241700   1.717   1.232  12.194  0.5121  0.1147  0.1912
 6762TIP3    H141701   1.741   1.321  12.216  0.6484 -0.1932  1.3460
 6762TIP3    H241702   1.635   1.240  12.146  1.5667  0.9910 -1.5490
 6763TIP3   OH241703   0.009   0.018  13.765 -0.2877 -0.1136  0.1386
 6763TIP3    H141704  -0.042  -0.060  13.742 -1.1208  0.6532 -0.7507
 6763TIP3    H241705  -0.045   0.063  13.830  0.2725 -0.3602  0.7785
 6764TIP3   OH241706   2.747   5.111  11.610 -0.0713  0.6298 -0.9235
 6764TIP3    H141707   2.743   5.017  11.592 -0.1077  0.1548  1.2418
 6764TIP3    H241708   2.839   5.134  11.599  0.1776  0.0253 -0.1840
 6765TIP3   OH241709   2.477   1.160  17.114 -0.6826  0.4526 -0.0798
 6765TIP3    H141710   2.423   1.152  17.035 -0.8377  1.5447 -0.1103
 6765TIP3    H241711   2.425   1.118  17.183 -0.9721  0.3206 -0.3766
 6766TIP3   OH241712   4.181   2.619   0.521  0.0335  0.2839 -0.0173
 6766TIP3    H141713   4.216   2.587   0.604  1.0325  1.4383  0.0309
 6766TIP3    H241714   4.106   2.674   0.546  1.2814  1.9293  0.2865
 6767TIP3   OH241715   1.655   0.856  11.587  0.2232  0.4834 -0.0973
 6767TIP3    H141716   1.674   0.949  11.579 -0.9237  0.8284  0.8604
 6767TIP3    H241717   1.691   0.831  11.672  0.0606  0.1777 -0.1151
 6768TIP3   OH241718   2.791   6.762   0.250  0.3805  0.1125  0.0707
 6768TIP3    H141719   2.874   6.777   0.205  0.8153 -1.2908  0.3682
 6768TIP3    H241720   2.805   6.795   0.339  1.1383 -1.4434  0.5567
 6769TIP3   OH241721   1.044   3.615  10.813 -0.3574 -0.8717 -0.2170
 6769TIP3    H141722   0.991   3.689  10.845  0.6002 -0.7047  1.0664
 6769TIP3    H241723   0.980   3.547  10.793 -1.2662  0.2712 -1.3843
 6770TIP3   OH241724   3.794   4.147  12.340  0.3755  0.1068  0.0946
 6770TIP3    H141725   3.846   4.077  12.378 -0.1879  0.1988  1.0724
 6770TIP3    H241726   3.852   4.188  12.276  0.0495 -2.5847 -2.1239
 6771TIP3   OH241727   5.634   6.567   0.011  0.8663  0.0236 -1.1750
 6771TIP3    H141728   5.563   6.544   0.072  1.0843  1.9165 -0.1300
 6771TIP3    H241729   5.590   6.616  -0.059  0.8627 -0.6366 -1.6419
 6772TIP3   OH241730   3.516   1.933   1.517  0.0523 -0.0515  0.1090
 6772TIP3    H141731   3.594   1.985   1.496  0.1902 -0.3710 -0.1896
 6772TIP3    H241732   3.508   1.938   1.612  0.4196  0.0139  0.1373
 6773TIP3   OH241733   2.284   0.541   1.521  0.4982 -0.2775  0.3917
 6773TIP3    H141734   2.289   0.467   1.581  0.9921 -0.0010  0.7006
 6773TIP3    H241735   2.195   0.538   1.486  1.1011 -2.1597 -1.0940
 6774TIP3   OH241736   2.429   0.119  13.753  0.1258 -0.9068 -0.0822
 6774TIP3    H141737   2.434   0.033  13.712  0.7939 -0.3442 -1.2502
 6774TIP3    H241738   2.386   0.174  13.687  3.7580  0.7102 -1.3792
 6775TIP3   OH241739   4.173   0.365  15.968 -0.6809 -0.2576 -0.1779
 6775TIP3    H141740   4.232   0.389  15.897  0.7228 -0.8591  0.7359
 6775TIP3    H241741   4.213   0.287  16.008 -2.7264 -1.4385 -0.2569
 6776TIP3   OH241742   4.599   4.200   2.670 -0.3761  0.0740 -0.4510
 6776TIP3    H141743   4.537   4.139   2.631  0.6319 -0.7490 -0.8310
 6776TIP3    H241744   4.638   4.245   2.595  1.7375 -1.6803 -0.5091
 6777TIP3   OH241745   1.262   1.433   3.971 -0.1127  0.0705 -0.2724
 6777TIP3    H141746   1.210   1.410   3.894  0.3565  0.0387 -0.5871
 6777TIP3    H241747   1.244   1.526   3.985  1.3999  0.6268 -1.7043
 6778TIP3   OH241748   2.024   6.677   4.165 -0.0355 -0.3183 -0.0209
 6778TIP3    H141749   2.073   6.601   4.135  1.8754  0.7015  0.3054
 6778TIP3    H241750   2.050   6.687   4.257  0.1272  0.9787 -0.1832
 6779TIP3   OH241751   5.709   4.356  12.701 -0.7235 -0.4355 -0.3196
 6779TIP3    H141752   5.641   4.424  12.698  0.4997  0.8136 -0.8440
 6779TIP3    H241753   5.681   4.292  12.636 -1.2377  0.2441 -0.7844
 6780TIP3   OH241754   0.050   2.158  15.384 -0.0334 -0.2026 -0.1595
 6780TIP3    H141755   0.030   2.101  15.459 -0.4375 -0.5168 -0.4995
 6780TIP3    H241756  -0.030   2.156  15.331  0.1013  0.3515 -0.3865
 6781TIP3   OH241757   4.318   4.543   0.071  0.1113  0.3235 -0.6643
 6781TIP3    H141758   4.244   4.602   0.084  1.3675  1.4708  1.8406
 6781TIP3    H241759   4.392   4.600   0.055  1.0085 -0.6725 -0.1760
 6782TIP3   OH241760   3.884   6.400   5.962  0.2866 -0.3705  0.3427
 6782TIP3    H141761   3.825   6.329   5.938 -0.7345  0.6450 -0.2360
 6782TIP3    H241762   3.869   6.412   6.056 -1.3893  0.6961 -0.0217
 6783TIP3   OH241763   2.871   1.983  16.014 -0.3668 -0.3656  0.0292
 6783TIP3    H141764   2.922   1.915  15.971  0.7563  0.0614  0.6357
 6783TIP3    H241765   2.876   1.962  16.108 -2.9536 -1.4071  0.0354
 6784TIP3   OH241766   4.991   2.649  11.752 -0.0721  0.1209 -0.3643
 6784TIP3    H141767   5.075   2.694  11.757  0.1048 -0.2188 -0.2062
 6784TIP3    H241768   5.007   2.576  11.692  0.3026 -1.0854  1.1135
 6785TIP3   OH241769   4.000   3.265   0.528 -0.6908 -0.0778  0.2095
 6785TIP3    H141770   4.056   3.208   0.475 -1.9198 -1.0532 -0.1025
 6785TIP3    H241771   3.979   3.211   0.605 -1.9341 -0.0941 -0.1248
 6786TIP3   OH241772   5.892   6.573   5.351 -0.3078  0.0990 -0.6761
 6786TIP3    H141773   5.814   6.622   5.374  0.3326  0.1269  1.7228
 6786TIP3    H241774   5.883   6.556   5.257 -1.7570  2.5716 -1.0712
 6787TIP3   OH241775   2.627   0.847   3.278  0.1523  0.1893 -0.4104
 6787TIP3    H141776   2.646   0.757   3.249  0.0145 -0.3783  1.1380
 6787TIP3    H241777   2.712   0.891   3.278  0.6293 -0.6633  1.0752
 6788TIP3   OH241778   4.359   0.248  13.287  0.3044 -0.3091 -0.5606
 6788TIP3    H141779   4.321   0.254  13.200  0.4902  0.7675 -0.5837
 6788TIP3    H241780   4.342   0.334  13.326  2.0020 -0.0772 -0.2783
 6789TIP3   OH241781   3.115   2.001   5.921 -0.7112  0.4774  0.3211
 6789TIP3    H141782   3.065   1.950   5.985 -1.0465  0.5198  0.0946
 6789TIP3    H241783   3.060   2.002   5.842  0.3860 -0.9133 -0.4996
 6790TIP3   OH241784   5.115   3.486   5.361 -0.3694  0.4613 -0.0318
 6790TIP3    H141785   5.179   3.415   5.350 -0.4464  0.6902 -2.4863
 6790TIP3    H241786   5.055   3.453   5.429  2.3355  0.3169  2.5192
 6791TIP3   OH241787   0.240   4.368  16.538  0.4336 -0.0403  0.3855
 6791TIP3    H141788   0.169   4.399  16.481  0.9840 -0.1509 -0.3714
 6791TIP3    H241789   0.261   4.444  16.592  0.5470  0.3642 -0.2168
 6792TIP3   OH241790   1.811   2.487  17.026  0.3897  0.2879  0.1928
 6792TIP3    H141791   1.834   2.565  16.976  0.8511  0.0880  0.0925
 6792TIP3    H241792   1.721   2.503  17.055  0.0769  0.3771 -0.7703
 6793TIP3   OH241793   0.665   3.433   2.889 -0.7225 -0.2119  0.1345
 6793TIP3    H141794   0.677   3.507   2.829  0.6587  1.1032  1.9107
 6793TIP3    H241795   0.577   3.447   2.926 -0.4293  0.6356  0.5397
 6794TIP3   OH241796   1.385   5.166   1.844  0.3008 -0.0314 -0.2108
 6794TIP3    H141797   1.340   5.224   1.905 -0.5050  0.6839 -1.4415
 6794TIP3    H241798   1.449   5.223   1.801 -1.8888  0.5688 -2.9242
 6795TIP3   OH241799   5.427   3.150  11.334  0.0507 -0.0872  0.3417
 6795TIP3    H141800   5.422   3.090  11.408 -1.2628 -0.0815  0.2808
 6795TIP3    H241801   5.380   3.106  11.264  1.5155 -0.2164 -0.6143
 6796TIP3   OH241802   6.049   2.483  12.244 -0.2018 -0.2269  0.1897
 6796TIP3    H141803   6.027   2.529  12.324 -0.3764  0.5158 -0.2782
 6796TIP3    H241804   6.017   2.394  12.257  0.8389 -0.4538  1.4214
 6797TIP3   OH241805   5.346   6.283  12.149 -0.0834  0.7287  0.4887
 6797TIP3    H141806   5.406   6.227  12.199 -0.0541  0.5338  0.2365
 6797TIP3    H241807   5.316   6.348  12.213 -2.4349 -1.3016  1.6232
 6798TIP3   OH241808   6.323   5.135   3.041  0.0657  0.3946  0.1894
 6798TIP3    H141809   6.359   5.183   3.115  0.8812 -0.8759  0.6461
 6798TIP3    H241810   6.248   5.088   3.077  1.0799 -1.0445  0.4886
 6799TIP3   OH241811   4.882   3.277   3.453  0.0391  0.2202 -0.1548
 6799TIP3    H141812   4.852   3.247   3.367  1.0270  0.6743 -0.6822
 6799TIP3    H241813   4.977   3.283   3.444  0.2642 -0.7341  1.3005
 6800TIP3   OH241814   4.823   2.362  14.134 -0.6510 -0.4166 -0.0148
 6800TIP3    H141815   4.739   2.383  14.175  0.0655 -1.4473  2.1367
 6800TIP3    H241816   4.829   2.267  14.139 -0.0116 -0.4860 -1.5724
 6801TIP3   OH241817   3.421   6.390  13.146 -0.3145  0.1594  0.0897
 6801TIP3    H141818   3.468   6.420  13.068 -1.9575  0.0188 -0.9933
 6801TIP3    H241819   3.415   6.295  13.135 -0.7825  0.1675  0.2456
 6802TIP3   OH241820   0.951   5.846   0.633 -0.0208 -0.2625 -0.0804
 6802TIP3    H141821   0.864   5.886   0.637 -0.1630 -0.5610 -0.1703
 6802TIP3    H241822   0.984   5.850   0.722  0.3521  0.9085 -0.2546
 6803TIP3   OH241823   0.383   2.901   0.756  0.0272 -0.1373  0.4621
 6803TIP3    H141824   0.385   2.849   0.675 -0.2009  1.6203 -0.7331
 6803TIP3    H241825   0.472   2.896   0.790  0.3265 -0.2648 -0.3267
 6804TIP3   OH241826   2.544   4.849   5.536  0.9430 -0.4438  0.0902
 6804TIP3    H141827   2.530   4.791   5.461 -1.0733  0.6220 -0.4252
 6804TIP3    H241828   2.557   4.936   5.497 -0.7359  0.2298  0.9571
 6805TIP3   OH241829   5.536   3.071  16.882  0.5578  0.2948 -0.4574
 6805TIP3    H141830   5.520   3.160  16.851  3.5065  1.3802  0.7779
 6805TIP3    H241831   5.563   3.082  16.973 -1.2181 -2.1550  0.4849
 6806TIP3   OH241832   0.440   4.806   3.743 -0.0306  0.7290  0.0908
 6806TIP3    H141833   0.380   4.787   3.815  0.4292 -1.2301  0.0068
 6806TIP3    H241834   0.486   4.886   3.770  0.1742  0.0029  2.0162
 6807TIP3   OH241835   0.238   4.204   5.823 -0.1590  0.2208  0.1668
 6807TIP3    H141836   0.263   4.112   5.827  0.4722  0.3639 -0.2750
 6807TIP3    H241837   0.321   4.251   5.809 -0.5244  0.8140 -0.0407
 6808TIP3   OH241838   2.515   3.837   1.469 -0.0040  0.1073  0.6524
 6808TIP3    H141839   2.424   3.809   1.468 -0.1486  0.5855  0.0274
 6808TIP3    H241840   2.565   3.760   1.442 -0.3804  0.3792 -0.8776
 6809TIP3   OH241841   2.871   2.221  13.227  0.2640 -0.4711  0.1564
 6809TIP3    H141842   2.850   2.190  13.139 -1.4423  1.8699 -0.3615
 6809TIP3    H241843   2.923   2.151  13.265  0.0710 -2.0753 -2.2901
 6810TIP3   OH241844   5.511   4.984   6.205  0.2846  0.1661  0.3635
 6810TIP3    H141845   5.528   4.893   6.229  0.2807  0.3382  1.0528
 6810TIP3    H241846   5.415   4.989   6.198  0.3562 -0.2454 -1.2136
 6811TIP3   OH241847   6.520   0.552  14.890  0.4096  0.5525 -0.1085
 6811TIP3    H141848   6.557   0.503  14.817 -0.3749 -1.1383  0.5627
 6811TIP3    H241849   6.531   0.644  14.866  1.7061  0.0555 -1.5475
 6812TIP3   OH241850   4.533   6.119  11.606 -0.1152  0.0371  0.6278
 6812TIP3    H141851   4.509   6.106  11.515  0.3673  0.0187  0.5021
 6812TIP3    H241852   4.480   6.195  11.634 -0.5226 -0.1754  0.4405
 6813TIP3   OH241853   0.137   3.959  12.818 -0.1310  0.0377 -0.0501
 6813TIP3    H141854   0.112   3.866  12.820 -1.9699  0.4629 -1.5981
 6813TIP3    H241855   0.199   3.965  12.746 -0.1644  0.0561 -0.0772
 6814TIP3   OH241856   6.539   1.128   1.563  0.2213  0.2207  0.5126
 6814TIP3    H141857   6.577   1.166   1.483  1.9655  1.4804  1.8738
 6814TIP3    H241858   6.493   1.050   1.532 -2.2002  2.4870 -2.2290
 6815TIP3   OH241859   0.766   2.636   0.108 -0.1214 -0.2138 -0.0208
 6815TIP3    H141860   0.705   2.694   0.154  1.2851  1.1479  0.2028
 6815TIP3    H241861   0.834   2.617   0.173  1.7728  1.5294 -1.3679
 6816TIP3   OH241862   0.580   3.459  12.408  0.4352 -0.3679  0.0703
 6816TIP3    H141863   0.539   3.380  12.441 -0.8135  0.8771  1.6698
 6816TIP3    H241864   0.674   3.442  12.412  0.1907 -1.6563  0.6362
 6817TIP3   OH241865   6.733   3.757  16.410  0.3858 -0.3065 -1.0105
 6817TIP3    H141866   6.705   3.814  16.481  1.5762 -0.8781 -0.0466
 6817TIP3    H241867   6.709   3.805  16.330  0.5862  1.1517 -0.2280
 6818TIP3   OH241868   4.274   1.344  13.325  0.3285 -0.5130 -0.0644
 6818TIP3    H141869   4.328   1.381  13.255  1.0222 -1.7983 -0.2415
 6818TIP3    H241870   4.319   1.262  13.349 -1.8976 -1.9887 -0.6915
 6819TIP3   OH241871   5.229   6.490   2.653 -0.1071  0.4224  0.7490
 6819TIP3    H141872   5.184   6.553   2.710 -1.7814 -0.0510  0.0125
 6819TIP3    H241873   5.160   6.458   2.594  1.2541 -0.2412 -0.5273
 6820TIP3   OH241874   3.990   4.878  15.722  0.0873 -0.3435  0.5751
 6820TIP3    H141875   4.074   4.836  15.702 -0.2872  0.7833 -4.8791
 6820TIP3    H241876   4.012   4.969  15.741  0.1812 -0.2257 -0.0786
 6821TIP3   OH241877   3.574   4.727   2.237 -0.2912  0.4222  0.3679
 6821TIP3    H141878   3.558   4.761   2.325  2.7192  0.9757  0.8292
 6821TIP3    H241879   3.512   4.775   2.182 -0.7716  1.6782  1.9076
 6822TIP3   OH241880   0.780   3.903  12.755  0.5153 -0.5190  0.1395
 6822TIP3    H141881   0.861   3.859  12.734  0.0243 -2.8549  2.5405
 6822TIP3    H241882   0.807   3.990  12.787  2.2130 -1.6216  1.8858
 6823TIP3   OH241883   2.853   2.693  16.225  0.2559 -0.0997 -0.3084
 6823TIP3    H141884   2.827   2.728  16.310 -0.0241 -2.1309  0.4966
 6823TIP3    H241885   2.789   2.729  16.163  0.0768  0.8941  0.4303
 6824TIP3   OH241886   1.116   0.236  11.501 -0.3708  0.1358 -0.0755
 6824TIP3    H141887   1.114   0.303  11.569 -0.0560  2.2117 -1.9990
 6824TIP3    H241888   1.088   0.156  11.545 -1.1982  1.5998  2.2198
 6825TIP3   OH241889   4.866   3.145  12.240  0.2027  0.2928 -0.3867
 6825TIP3    H141890   4.789   3.087  12.238  0.2290  0.2634 -0.7507
 6825TIP3    H241891   4.829   3.233  12.250  0.1438  0.2422 -0.1587
 6826TIP3   OH241892   5.960   4.567  12.566  0.0776 -0.5733  0.1742
 6826TIP3    H141893   6.055   4.579  12.571  0.2220 -1.3661 -0.4786
 6826TIP3    H241894   5.932   4.562  12.658  0.6552 -0.2975  0.3723
 6827TIP3   OH241895   5.651   2.063   0.551 -0.8315  0.2616 -0.1707
 6827TIP3    H141896   5.706   2.073   0.629  0.7570  3.2582 -1.5280
 6827TIP3    H241897   5.614   1.975   0.559  0.5697 -0.1562  3.1006
 6828TIP3   OH241898   5.881   0.370   1.377  0.1546 -0.0509 -0.5751
 6828TIP3    H141899   5.786   0.372   1.389  0.2387 -0.2794  0.1270
 6828TIP3    H241900   5.896   0.425   1.299 -0.3033  2.2244  0.8486
 6829TIP3   OH241901   6.038   4.254  13.506 -0.2896 -0.3825  0.4083
 6829TIP3    H141902   6.115   4.303  13.477 -1.1329  2.3966  2.4157
 6829TIP3    H241903   6.073   4.177  13.550  1.1503 -1.1693 -1.9918
 6830TIP3   OH241904   3.381   5.176  14.170 -0.3399 -0.0109 -0.7368
 6830TIP3    H141905   3.434   5.188  14.249 -0.6189  0.6366 -0.6381
 6830TIP3    H241906   3.443   5.189  14.098 -0.2502  0.2097 -0.6219
 6831TIP3   OH241907   6.097   0.194  16.235  0.2181 -0.0391  0.0242
 6831TIP3    H141908   6.047   0.177  16.156  1.3203 -1.2025 -0.4660
 6831TIP3    H241909   6.052   0.144  16.303  0.8936 -1.4307 -0.5027
 6832TIP3   OH241910   4.378   3.830  14.987 -0.0346  0.1599 -0.0246
 6832TIP3    H141911   4.390   3.915  14.944 -0.5851  0.6928  0.8331
 6832TIP3    H241912   4.374   3.851  15.080 -1.9812 -0.5775  0.1097
 6833TIP3   OH241913   3.912   3.430  13.710 -0.7461 -0.4343  0.0032
 6833TIP3    H141914   3.876   3.514  13.739  0.2183  0.7065 -1.9348
 6833TIP3    H241915   3.867   3.411  13.627  0.7653 -0.5992 -0.8083
 6834TIP3   OH241916   4.433   6.515   4.056 -0.2126 -0.0064 -0.0211
 6834TIP3    H141917   4.418   6.543   4.147  0.3909  0.3804 -0.0322
 6834TIP3    H241918   4.471   6.427   4.065 -1.7173 -0.6770  0.0290
 6835TIP3   OH241919   6.198   1.620  10.104  0.1428 -0.1419 -0.2995
 6835TIP3    H141920   6.274   1.651  10.053  0.1169  0.4997  0.0377
 6835TIP3    H241921   6.209   1.661  10.190  1.0798 -2.4979  0.7926
 6836TIP3   OH241922   4.542   1.892   1.983  0.0397 -0.1585  0.1320
 6836TIP3    H141923   4.577   1.833   1.916 -0.8575 -1.3343  0.6538
 6836TIP3    H241924   4.618   1.937   2.018  0.6796 -0.5407 -0.7255
 6837TIP3   OH241925   3.042   1.852  13.041 -0.0102 -0.4997 -0.3152
 6837TIP3    H141926   3.011   1.849  12.951  1.2559 -3.5848 -0.7744
 6837TIP3    H241927   3.121   1.906  13.038 -1.0078  0.9871 -0.6265
 6838TIP3   OH241928   5.299   1.291  16.030 -0.3827  0.5005 -0.7670
 6838TIP3    H141929   5.355   1.243  15.969 -1.9920  0.6235 -2.4448
 6838TIP3    H241930   5.319   1.383  16.013  0.3149  0.5140  0.0708
 6839TIP3   OH241931   3.823   2.346  13.331 -0.1406  0.4690  0.2456
 6839TIP3    H141932   3.834   2.335  13.425  0.0347  0.8123  0.2653
 6839TIP3    H241933   3.909   2.326  13.294 -0.6273 -1.3467  0.0067
 6840TIP3   OH241934   0.750   1.153   3.965  0.1245 -0.1355  0.4263
 6840TIP3    H141935   0.837   1.165   4.003 -0.5481  0.7344  1.7521
 6840TIP3    H241936   0.689   1.184   4.033 -1.2052 -0.3331 -0.6325
 6841TIP3   OH241937   0.802   6.509  12.951  0.1183 -0.1632  0.2687
 6841TIP3    H141938   0.745   6.506  13.027  0.7759 -1.2523  0.7460
 6841TIP3    H241939   0.774   6.436  12.896  1.0444 -0.7345  0.5271
 6842TIP3   OH241940   0.856   1.013  12.307 -0.1692  0.0597  0.0446
 6842TIP3    H141941   0.897   1.088  12.265  0.8204 -0.3425  0.2467
 6842TIP3    H241942   0.771   1.005  12.265  0.3912  0.2630 -1.1815
 6843TIP3   OH241943   4.123   5.153   6.719  0.6332 -0.0657  0.1676
 6843TIP3    H141944   4.122   5.058   6.736  1.0369 -0.0968  0.0321
 6843TIP3    H241945   4.214   5.178   6.732  0.6622  0.1753 -0.5024
 6844TIP3   OH241946   0.575   5.021  11.953 -0.0449 -0.1184 -0.1362
 6844TIP3    H141947   0.526   4.966  11.892 -2.5867  0.9883  0.7765
 6844TIP3    H241948   0.603   4.961  12.022 -0.8095 -0.6880 -0.3014
 6845TIP3   OH241949   5.310   0.005  14.853 -0.2676  0.2424 -0.2122
 6845TIP3    H141950   5.297  -0.050  14.930  0.3612  0.0613 -0.2261
 6845TIP3    H241951   5.311   0.094  14.887  0.8394  0.1191  0.1186
 6846TIP3   OH241952   6.636   0.448  10.617  0.7002  0.0623 -0.7407
 6846TIP3    H141953   6.585   0.369  10.632  0.4145  0.3335 -0.2460
 6846TIP3    H241954   6.621   0.470  10.526 -0.3213  0.3120 -0.5272
 6847TIP3   OH241955   3.473   5.826  14.058 -0.0697 -0.2498  0.6487
 6847TIP3    H141956   3.521   5.908  14.049  0.5671 -0.7142 -0.3015
 6847TIP3    H241957   3.385   5.852  14.085 -0.3826  0.8685 -1.3139
 6848TIP3   OH241958   2.705   0.652  15.062  0.5778 -0.3252 -0.4344
 6848TIP3    H141959   2.722   0.685  14.973 -0.0727 -1.5558 -1.0386
 6848TIP3    H241960   2.685   0.559  15.050 -0.4494 -0.3023  0.8963
 6849TIP3   OH241961   3.652   5.675  13.590  0.2859 -0.3513 -0.0933
 6849TIP3    H141962   3.743   5.664  13.619 -0.1113 -0.6992  1.0591
 6849TIP3    H241963   3.644   5.769  13.575  0.5199 -0.1544  0.9296
 6850TIP3   OH241964   1.759   1.864   3.857 -0.1332 -0.2989  0.2753
 6850TIP3    H141965   1.702   1.919   3.911 -0.4366 -2.1966  2.0069
 6850TIP3    H241966   1.846   1.875   3.895  0.2288  0.6144 -0.7582
 6851TIP3   OH241967   0.991   3.087   5.316  0.1154  0.3979 -0.1220
 6851TIP3    H141968   1.005   3.050   5.229 -0.8457 -0.0928 -0.0767
 6851TIP3    H241969   0.897   3.106   5.320  0.2097  0.7681  0.6688
 6852TIP3   OH241970   6.621   4.294  15.717 -0.5054 -0.1476 -0.1746
 6852TIP3    H141971   6.694   4.302  15.779 -1.1304 -1.1794  0.7289
 6852TIP3    H241972   6.662   4.268  15.635  0.0846 -1.5640  0.5467
 6853TIP3   OH241973   2.766   0.434  16.015  0.1331  0.0390 -0.1413
 6853TIP3    H141974   2.689   0.435  16.071  0.0287  0.8120 -0.2985
 6853TIP3    H241975   2.735   0.462  15.929  0.1999 -1.5553 -0.7378
 6854TIP3   OH241976   3.133   4.989   0.481 -0.1837 -0.5050  0.2650
 6854TIP3    H141977   3.078   4.912   0.463 -0.3440 -0.1820 -0.6450
 6854TIP3    H241978   3.209   4.977   0.425  0.0223 -0.2453  0.4901
 6855TIP3   OH241979   0.410   2.892   1.839  0.1446 -0.3451  0.6802
 6855TIP3    H141980   0.370   2.813   1.875  0.8329 -0.5358  1.0230
 6855TIP3    H241981   0.383   2.892   1.747 -2.6552  0.7702  1.3689
 6856TIP3   OH241982   1.403   5.486  14.831 -0.2387  0.2210 -0.0955
 6856TIP3    H141983   1.394   5.564  14.775 -1.6802  1.3565  1.5829
 6856TIP3    H241984   1.466   5.512  14.898  0.6328 -0.7288 -0.5286
 6857TIP3   OH241985   1.978   0.126  12.506 -0.2904  0.1858 -0.2384
 6857TIP3    H141986   2.037   0.051  12.511  0.5211  0.8699  1.0274
 6857TIP3    H241987   1.896   0.090  12.473  0.2937 -1.1127 -0.3415
 6858TIP3   OH241988   0.350   0.753  13.089 -0.8191  0.8452 -0.3556
 6858TIP3    H141989   0.407   0.793  13.023  0.0936  0.4313  0.1661
 6858TIP3    H241990   0.281   0.818  13.104  1.8644  3.3713  2.1655
 6859TIP3   OH241991   3.487   2.391   5.613 -0.6175 -0.0638 -0.6186
 6859TIP3    H141992   3.492   2.440   5.695 -0.9599  0.4826 -0.9241
 6859TIP3    H241993   3.568   2.339   5.612 -0.5375  0.0393 -0.0088
 6860TIP3   OH241994   5.363   3.521  16.473 -0.3731  0.1876 -0.2549
 6860TIP3    H141995   5.377   3.615  16.481  0.0186  0.1290 -0.2537
 6860TIP3    H241996   5.339   3.508  16.381 -0.3515  0.2788 -0.2730
 6861TIP3   OH241997   1.900   0.976  11.771  0.1328 -0.3758  0.2984
 6861TIP3    H141998   1.923   0.909  11.706  1.2152  0.4344 -0.1733
 6861TIP3    H241999   1.822   0.941  11.815  0.2701 -1.6197 -0.4141
 6862TIP3   OH242000   4.300   1.392   5.035 -0.7020  0.0014 -0.5578
 6862TIP3    H142001   4.208   1.414   5.053 -0.8855 -0.8100 -0.4669
 6862TIP3    H242002   4.303   1.379   4.940 -1.0843 -1.6615 -0.3804
 6863TIP3   OH242003   0.036   5.314   1.580  0.6782  0.5354 -0.7687
 6863TIP3    H142004   0.056   5.353   1.495 -1.7645  0.0193 -1.6494
 6863TIP3    H242005   0.040   5.220   1.564  3.0139  0.3427  0.4666
 6864TIP3   OH242006   0.370   2.268  11.285  0.0024  0.0541  0.2024
 6864TIP3    H142007   0.347   2.303  11.371  1.5830  1.6279  0.0505
 6864TIP3    H242008   0.447   2.213  11.302 -0.9055 -1.3086  0.0551
 6865TIP3   OH242009   0.246   5.218  12.806  0.0269 -0.4662 -0.0510
 6865TIP3    H142010   0.321   5.189  12.858  0.3547 -1.3659 -1.0040
 6865TIP3    H242011   0.245   5.160  12.730 -0.4641  0.8145 -1.0514
 6866TIP3   OH242012   0.223   6.733   3.623 -1.0827 -0.1319 -0.1433
 6866TIP3    H142013   0.132   6.750   3.596 -0.3989  0.9176 -2.0153
 6866TIP3    H242014   0.234   6.639   3.608 -2.1925 -0.5220  1.2868
 6867TIP3   OH242015   2.477   5.600  15.383 -0.6206  0.0840 -0.1975
 6867TIP3    H142016   2.518   5.682  15.354  0.0387 -0.4833 -0.9075
 6867TIP3    H242017   2.540   5.532  15.358  0.1287 -0.4598  2.7965
 6868TIP3   OH242018   1.685   0.124  13.938 -0.2651  0.2357  0.2153
 6868TIP3    H142019   1.736   0.133  14.019  0.6232 -0.6264 -0.2211
 6868TIP3    H242020   1.607   0.075  13.964 -0.3167  0.5602  0.6801
 6869TIP3   OH242021   3.848   2.192  12.530 -0.0727 -0.5573  0.1547
 6869TIP3    H142022   3.877   2.146  12.451 -0.1982 -0.0068 -0.2105
 6869TIP3    H242023   3.789   2.129  12.573  1.2553 -1.5065  0.6633
 6870TIP3   OH242024   0.460   3.838   0.593 -0.1488  0.0545  0.3819
 6870TIP3    H142025   0.479   3.769   0.529  0.1855  1.0653 -0.6554
 6870TIP3    H242026   0.539   3.892   0.593 -1.0372  1.4027 -0.1197
 6871TIP3   OH242027   1.048   0.307  17.075 -0.4096  0.1573  0.0365
 6871TIP3    H142028   1.110   0.320  17.146 -1.7986 -0.4322  1.3947
 6871TIP3    H242029   1.026   0.396  17.045  0.7199  0.3780 -0.1663
 6872TIP3   OH242030   1.711   5.776  11.756 -0.2309  0.7571 -0.3210
 6872TIP3    H142031   1.616   5.779  11.760 -0.3960  0.6792 -2.7387
 6872TIP3    H242032   1.737   5.865  11.731  0.3761  0.8475  0.5764
 6873TIP3   OH242033   1.080   3.172   1.727 -0.4062 -0.7540 -0.4585
 6873TIP3    H142034   1.010   3.153   1.664  0.4281 -0.5784 -1.4741
 6873TIP3    H242035   1.035   3.182   1.811 -1.7612  0.5566 -1.2852
 6874TIP3   OH242036   6.325   1.676  16.179  0.1606 -0.2062  0.7280
 6874TIP3    H142037   6.327   1.726  16.260  0.3942 -0.2886  0.7759
 6874TIP3    H242038   6.275   1.731  16.118 -1.2892 -0.8065  1.3458
 6875TIP3   OH242039   3.548   2.373   2.538  0.5858  0.3545 -0.1001
 6875TIP3    H142040   3.626   2.356   2.590  1.1627 -0.9060 -1.3126
 6875TIP3    H242041   3.553   2.310   2.465 -2.5851 -1.2778  0.8661
 6876TIP3   OH242042   2.236   3.550  13.446 -0.2571  0.9849 -0.0542
 6876TIP3    H142043   2.319   3.521  13.407  0.6630  1.6449  1.3600
 6876TIP3    H242044   2.169   3.512  13.389  0.9769 -0.5858 -0.5410
 6877TIP3   OH242045   5.932   2.174   3.738 -0.1339  0.5712  0.1216
 6877TIP3    H142046   5.945   2.259   3.696  0.4890  1.5858  2.2348
 6877TIP3    H242047   5.844   2.148   3.711 -1.0662  2.7490  0.7598
 6878TIP3   OH242048   1.073   4.680   4.620  0.2773 -1.1294  0.2521
 6878TIP3    H142049   1.035   4.655   4.704  1.1469 -0.3139  0.9066
 6878TIP3    H242050   1.000   4.678   4.559 -0.3090 -2.0524  0.9460
 6879TIP3   OH242051   1.878   4.378   4.956 -0.0241  0.3502  0.0135
 6879TIP3    H142052   1.806   4.434   4.928 -0.7355  0.0644  1.1802
 6879TIP3    H242053   1.949   4.396   4.894 -0.7984  1.2945 -0.6223
 6880TIP3   OH242054   1.165   5.093   5.953 -0.3431  0.9347 -0.6029
 6880TIP3    H142055   1.178   5.060   6.042 -0.2163  1.6436 -0.3537
 6880TIP3    H242056   1.075   5.067   5.931 -1.0155  2.3008  0.4183
 6881TIP3   OH242057   3.526   0.001  10.818 -0.4865 -0.6180  0.3796
 6881TIP3    H142058   3.562   0.059  10.885 -1.2513  0.1041  0.1770
 6881TIP3    H242059   3.587  -0.073  10.815  0.4464  0.1172  0.7198
 6882TIP3   OH242060   5.788   0.248  12.009  0.0528 -0.2079  0.0729
 6882TIP3    H142061   5.820   0.312  11.945  1.3522 -1.5680 -0.6976
 6882TIP3    H242062   5.747   0.179  11.957  1.2635 -1.4145  0.6536
 6883TIP3   OH242063   5.365   0.117  13.540 -0.2894 -0.5322 -0.2287
 6883TIP3    H142064   5.433   0.103  13.605 -0.4089 -0.0569  0.0001
 6883TIP3    H242065   5.294   0.057  13.566 -0.7341  0.3497  0.6576
 6884TIP3   OH242066   5.952   5.168  12.354 -0.0558 -0.2869  0.6575
 6884TIP3    H142067   5.948   5.149  12.261 -0.2786  0.1288  0.5787
 6884TIP3    H242068   6.034   5.215  12.367 -0.0139 -0.3651  0.6751
 6885TIP3   OH242069   2.907   1.827  13.924  0.3952 -0.3870  0.0637
 6885TIP3    H142070   2.873   1.748  13.967 -0.9424  0.8466  1.3896
 6885TIP3    H242071   2.979   1.855  13.981 -0.0500  0.1214  0.3806
 6886TIP3   OH242072   3.940   2.480   2.105 -0.1593  0.3866 -0.3620
 6886TIP3    H142073   3.948   2.537   2.029 -1.8811 -0.6452 -1.3832
 6886TIP3    H242074   3.847   2.486   2.130  0.1238 -0.2021  0.9326
 6887TIP3   OH242075   5.076   2.827   5.104  0.5701 -0.0388 -0.1585
 6887TIP3    H142076   5.168   2.827   5.080  0.0071  0.8920 -2.5494
 6887TIP3    H242077   5.045   2.915   5.081 -0.7157  0.0341  1.5956
 6888TIP3   OH242078   6.420   4.783   3.637 -0.3067 -0.3400 -0.0434
 6888TIP3    H142079   6.329   4.781   3.666  0.1366 -1.3897  1.3685
 6888TIP3    H242080   6.430   4.707   3.580 -0.6002  0.4795 -1.2414
 6889TIP3   OH242081   3.998   1.591   2.028 -0.2267  0.5704 -0.4103
 6889TIP3    H142082   3.906   1.619   2.022 -0.3876  0.6124  1.5538
 6889TIP3    H242083   4.042   1.666   2.068  0.6657  0.5184 -1.2731
 6890TIP3   OH242084   5.298   0.734   3.492  0.0016  0.5993  0.4091
 6890TIP3    H142085   5.259   0.733   3.579 -2.8304  0.6701 -0.7471
 6890TIP3    H242086   5.328   0.645   3.477 -0.3141  0.3748  1.1164
 6891TIP3   OH242087   5.213   5.333   2.560 -0.6940  0.3051  0.3317
 6891TIP3    H142088   5.285   5.366   2.613  0.1052  0.6371 -0.9129
 6891TIP3    H242089   5.177   5.410   2.516 -0.6245 -0.0945 -0.4488
 6892TIP3   OH242090   6.214   4.537   5.947 -0.0199  0.9099 -0.2446
 6892TIP3    H142091   6.245   4.574   6.030 -0.1295 -0.1776  0.3024
 6892TIP3    H242092   6.242   4.445   5.949 -0.8698  0.6119 -0.9699
 6893TIP3   OH242093   0.268   0.114   1.830 -0.7424 -0.8763 -0.4882
 6893TIP3    H142094   0.281   0.046   1.896  0.9942 -0.6014 -0.5015
 6893TIP3    H242095   0.355   0.127   1.792 -1.3916  0.1345 -1.6908
 6894TIP3   OH242096   1.796   1.731  11.797 -0.4227 -0.0452 -0.4169
 6894TIP3    H142097   1.775   1.681  11.717 -0.0615 -0.6404 -0.1447
 6894TIP3    H242098   1.890   1.721  11.807 -0.7908 -2.3320  1.6101
 6895TIP3   OH242099   4.393   6.770   2.532  0.2465  0.6290 -0.3313
 6895TIP3    H142100   4.402   6.703   2.600 -2.2360 -1.3075 -1.7489
 6895TIP3    H242101   4.447   6.738   2.459  1.1717  1.6056 -0.1115
 6896TIP3   OH242102   5.240   4.098  16.586 -0.0025  0.0875  0.3504
 6896TIP3    H142103   5.211   4.075  16.498  0.4502 -2.0781  0.7155
 6896TIP3    H242104   5.328   4.062  16.593 -0.1656 -0.0884  1.8111
 6897TIP3   OH242105   6.216   1.270  11.963 -0.3819  0.0856  0.3543
 6897TIP3    H142106   6.144   1.259  12.025 -0.7523 -3.0843 -0.4427
 6897TIP3    H242107   6.174   1.291  11.880 -0.5129 -1.9330 -0.1507
 6898TIP3   OH242108   4.157   3.013  11.455  0.1141  0.1622  0.4184
 6898TIP3    H142109   4.154   3.048  11.545  2.9251  0.5361  0.4596
 6898TIP3    H242110   4.250   3.015  11.432 -0.3783 -1.2924 -2.0007
 6899TIP3   OH242111   1.800   4.373   3.209 -0.4174  0.2343  0.4133
 6899TIP3    H142112   1.779   4.322   3.287 -1.1364  0.5093  0.4082
 6899TIP3    H242113   1.866   4.436   3.239 -1.9748  1.5409  1.2812
 6900TIP3   OH242114   2.768   6.443  13.803 -0.2096  0.2744 -0.5000
 6900TIP3    H142115   2.817   6.525  13.799 -1.6925  1.4821  2.4320
 6900TIP3    H242116   2.679   6.470  13.824 -0.6268 -2.0859  1.2053
 6901TIP3   OH242117   5.132   2.417  13.000  0.1450  0.2267 -0.0313
 6901TIP3    H142118   5.038   2.434  13.012 -0.1974 -0.5639 -1.4175
 6901TIP3    H242119   5.162   2.386  13.086 -0.4785  2.0325  0.9000
 6902TIP3   OH242120   5.070   5.741   2.162 -0.8937  0.0640 -0.3264
 6902TIP3    H142121   5.107   5.752   2.074 -0.1896 -2.0812 -0.3523
 6902TIP3    H242122   5.127   5.677   2.204 -2.4710 -0.5712  0.9458
 6903TIP3   OH242123   4.130   3.581   3.023  0.1824  0.3265 -0.4679
 6903TIP3    H142124   4.095   3.506   2.975  1.7913  0.4438 -1.9092
 6903TIP3    H242125   4.147   3.547   3.111 -1.6702 -0.2185 -0.2725
 6904TIP3   OH242126   1.602   5.535  15.874  0.1556 -0.3910 -0.2911
 6904TIP3    H142127   1.626   5.513  15.783  0.6573 -1.2065  0.0268
 6904TIP3    H242128   1.685   5.529  15.922  0.0561  0.9457  0.0599
 6905TIP3   OH242129   4.036   0.357   4.680 -0.0118  0.8093 -0.1036
 6905TIP3    H142130   4.099   0.330   4.746  0.6156  0.6382 -0.7511
 6905TIP3    H242131   4.064   0.311   4.600 -0.3029  1.5857 -0.6657
 6906TIP3   OH242132   1.767   3.738   2.636  0.3105  0.1565 -0.5465
 6906TIP3    H142133   1.696   3.692   2.680  1.9877 -0.5474  1.5781
 6906TIP3    H242134   1.760   3.829   2.667  1.4120 -0.3098  1.2216
 6907TIP3   OH242135   6.568   1.211  16.939 -0.4998 -0.1233  0.1845
 6907TIP3    H142136   6.499   1.272  16.962  0.5854  1.0119  0.5656
 6907TIP3    H242137   6.545   1.130  16.985 -1.5390  0.2398  0.3264
 6908TIP3   OH242138   3.694   1.298  15.493 -0.2966  0.2379 -0.2769
 6908TIP3    H142139   3.748   1.223  15.516 -0.0609  0.9481  1.7109
 6908TIP3    H242140   3.624   1.263  15.439  0.7321 -1.1154 -0.7721
 6909TIP3   OH242141   4.636   5.087  14.676  0.3589  0.4330  0.2814
 6909TIP3    H142142   4.695   5.012  14.666 -0.3563 -0.2884  1.2534
 6909TIP3    H242143   4.683   5.146  14.734 -0.0150 -0.3389  1.4112
 6910TIP3   OH242144   0.314   5.893   2.726 -0.9159 -0.3172 -0.4267
 6910TIP3    H142145   0.342   5.830   2.660 -2.4501 -1.0469 -0.4371
 6910TIP3    H242146   0.343   5.856   2.809 -1.9692 -1.1769 -0.4162
 6911TIP3   OH242147   6.394   6.205  17.195  0.2162  0.0932 -0.4625
 6911TIP3    H142148   6.417   6.263  17.123 -0.9503 -0.3636 -1.2399
 6911TIP3    H242149   6.433   6.121  17.171  0.9228  0.2512  0.0947
 6912TIP3   OH242150   3.479   0.022  16.446 -0.2130 -0.3527  0.1816
 6912TIP3    H142151   3.423  -0.027  16.386  1.0135 -2.1070  0.3942
 6912TIP3    H242152   3.434   0.106  16.458 -2.1354 -1.2100 -0.6119
 6913TIP3   OH242153   1.881   2.746  13.331  0.2666  0.0772 -0.5254
 6913TIP3    H142154   1.947   2.812  13.305 -0.0675  0.7333  0.2336
 6913TIP3    H242155   1.880   2.684  13.258  0.4383  1.0282 -1.3790
 6914TIP3   OH242156   3.949   3.584   5.039 -0.7469 -0.3544  0.1583
 6914TIP3    H142157   3.967   3.505   5.090 -1.5315 -0.2442  0.6255
 6914TIP3    H242158   3.903   3.641   5.100 -2.0422 -0.3693 -0.7754
 6915TIP3   OH242159   2.149   6.189  13.142 -0.4856  0.4371 -0.4840
 6915TIP3    H142160   2.176   6.259  13.201  2.6212  0.0099 -1.2222
 6915TIP3    H242161   2.118   6.119  13.200 -1.4142  1.5142  0.3625
 6916TIP3   OH242162   4.251   4.208  11.573 -0.1899  0.6487  0.0947
 6916TIP3    H142163   4.191   4.249  11.634 -1.3876 -1.3586  0.3589
 6916TIP3    H242164   4.202   4.200  11.491  0.3667  0.6464 -0.2496
 6917TIP3   OH242165   0.842   2.242   6.433  0.1275 -0.3718  0.1609
 6917TIP3    H142166   0.787   2.283   6.367 -1.2292  1.6442  2.3719
 6917TIP3    H242167   0.799   2.158   6.451  0.9093 -1.2590 -1.9201
 6918TIP3   OH242168   4.154   6.284   0.978  0.2472  0.3676 -0.2991
 6918TIP3    H142169   4.095   6.356   1.001  0.0251  0.3299 -0.7283
 6918TIP3    H242170   4.178   6.302   0.887  1.5818  0.8402  0.1280
 6919TIP3   OH242171   3.630   0.190  12.244 -0.3113 -0.5793 -0.5117
 6919TIP3    H142172   3.703   0.127  12.244  0.9406  0.7974  0.0280
 6919TIP3    H242173   3.625   0.221  12.154 -0.0103 -0.4600 -0.4908
 6920TIP3   OH242174   3.416   2.248   0.854 -0.5358  0.3820  0.1837
 6920TIP3    H142175   3.354   2.185   0.816  0.5913  0.1971 -1.4532
 6920TIP3    H242176   3.419   2.320   0.792  0.4579  0.6598  0.5340
 6921TIP3   OH242177   4.280   2.098  15.438 -0.1842  0.0749  0.3350
 6921TIP3    H142178   4.323   2.134  15.516  0.6050 -1.4529  0.6390
 6921TIP3    H242179   4.191   2.079  15.466  0.0565 -0.3399  0.8377
 6922TIP3   OH242180   5.585   1.046  10.814  0.3578 -0.9931 -0.3339
 6922TIP3    H142181   5.579   1.037  10.719 -1.9410  0.5315 -0.4228
 6922TIP3    H242182   5.606   0.958  10.845  0.4652 -1.6758 -2.2015
 6923TIP3   OH242183   0.895   5.942  12.730 -0.3782 -0.0626 -0.0001
 6923TIP3    H142184   0.899   5.846  12.724 -3.7517 -0.2900 -0.6834
 6923TIP3    H242185   0.848   5.959  12.812 -0.8992  0.9662 -0.4962
 6924TIP3   OH242186   1.754   0.328   2.091  0.2324 -0.1144 -0.2739
 6924TIP3    H142187   1.802   0.410   2.080  0.0526  0.0169 -0.1073
 6924TIP3    H242188   1.686   0.349   2.155  0.3947 -0.4849  0.0243
 6925TIP3   OH242189   4.888   6.206  11.285 -0.2152  0.5628 -0.4610
 6925TIP3    H142190   4.968   6.204  11.338  0.2026  1.2639 -1.0595
 6925TIP3    H242191   4.838   6.279  11.320 -0.5541  0.1973 -0.1660
 6926TIP3   OH242192   3.904   5.466   0.815 -0.1396 -0.2275  0.2697
 6926TIP3    H142193   3.916   5.411   0.738 -0.4464 -0.1148  0.1381
 6926TIP3    H242194   3.811   5.489   0.814 -0.0549  0.1356  0.4285
 6927TIP3   OH242195   3.106   0.214   3.824 -0.2753 -0.3308 -0.5260
 6927TIP3    H142196   3.101   0.120   3.806  0.6976 -0.6630  0.7687
 6927TIP3    H242197   3.027   0.232   3.875  0.0849 -0.7017  0.1848
 6928TIP3   OH242198   0.300   0.003   6.357  0.4073  0.1343 -0.0683
 6928TIP3    H142199   0.278  -0.088   6.377  1.9768  0.0518  1.4863
 6928TIP3    H242200   0.363   0.028   6.425  2.1157  1.5146 -2.0511
 6929TIP3   OH242201   4.973   2.862  10.635  0.4866 -0.0093  0.4055
 6929TIP3    H142202   4.959   2.855  10.541  1.2267 -0.5890  0.3286
 6929TIP3    H242203   4.925   2.941  10.661 -1.9540 -1.2671  0.0210
 6930TIP3   OH242204   0.760   2.544   4.004 -0.4593  0.0880  0.4593
 6930TIP3    H142205   0.757   2.451   4.025 -0.8861 -0.2522 -1.0189
 6930TIP3    H242206   0.683   2.581   4.047 -0.5921 -0.3396  0.5871
 6931TIP3   OH242207   0.254   6.415  16.997 -0.4181  0.3453 -0.0983
 6931TIP3    H142208   0.305   6.379  16.924 -0.0234 -1.2716  0.9098
 6931TIP3    H242209   0.194   6.344  17.020 -1.5191  1.3664  0.2499
 6932TIP3   OH242210   1.402   2.471   1.577  0.0391  0.9461  0.4722
 6932TIP3    H142211   1.462   2.546   1.568  1.0469  0.0455 -0.7213
 6932TIP3    H242212   1.444   2.401   1.527 -1.2035 -0.2340  1.0220
 6933TIP3   OH242213   3.989   3.927  11.411 -0.7910 -0.3229 -0.4230
 6933TIP3    H142214   4.042   3.918  11.490  1.0384 -2.3286 -1.7542
 6933TIP3    H242215   3.960   3.838  11.392  1.7005 -0.6154 -3.7846
 6934TIP3   OH242216   1.582   2.962  13.489  0.3895  0.1927  0.3418
 6934TIP3    H142217   1.645   2.899  13.524  0.8981  0.8973  0.7228
 6934TIP3    H242218   1.617   2.986  13.403 -0.9083 -1.6095 -0.7592
 6935TIP3   OH242219   5.910   6.449  13.070  0.2806  0.0423  0.0423
 6935TIP3    H142220   5.843   6.515  13.053 -0.0751  0.3511  2.3351
 6935TIP3    H242221   5.922   6.405  12.986 -2.7119  0.0349 -0.4985
 6936TIP3   OH242222   4.008   6.779  14.194 -0.0221 -0.2805 -0.3215
 6936TIP3    H142223   4.020   6.710  14.260  0.0458 -0.6931 -0.7612
 6936TIP3    H242224   4.051   6.745  14.116 -1.5259 -0.5241 -1.0780
 6937TIP3   OH242225   2.825   1.367   2.254 -0.0879  0.1676 -0.1092
 6937TIP3    H142226   2.879   1.329   2.185 -0.8569 -1.8329  0.3294
 6937TIP3    H242227   2.874   1.349   2.335 -1.3082 -1.6197  0.2871
 6938TIP3   OH242228   4.685   6.653  13.512 -0.5491  0.3375  0.0995
 6938TIP3    H142229   4.737   6.721  13.468 -0.1531  1.2563  1.8576
 6938TIP3    H242230   4.597   6.665  13.479 -0.2681  1.0123 -0.4277
 6939TIP3   OH242231   5.594   0.466  13.024  0.3541 -1.0822  0.1350
 6939TIP3    H142232   5.648   0.430  12.955 -1.8747 -0.0590 -2.3214
 6939TIP3    H242233   5.656   0.491  13.093  3.0442  0.2288 -2.5453
 6940TIP3   OH242234   1.500   6.641   4.994  0.1760  0.0718 -0.1214
 6940TIP3    H142235   1.418   6.685   5.017  0.2700 -0.2080  0.7698
 6940TIP3    H242236   1.525   6.679   4.910 -1.7869 -1.0777 -1.3150
 6941TIP3   OH242237   3.069   1.472  15.615  0.0995 -0.0711  0.1407
 6941TIP3    H142238   3.128   1.422  15.559  2.0951  0.7651  1.4068
 6941TIP3    H242239   3.017   1.525  15.554  0.5071 -0.9796 -1.0233
 6942TIP3   OH242240   4.617   0.988  16.388 -0.0154  0.1461  0.0345
 6942TIP3    H142241   4.652   0.969  16.475 -1.0562 -2.6562 -0.0419
 6942TIP3    H242242   4.526   0.958  16.391 -1.0343  2.8104 -1.1746
 6943TIP3   OH242243   1.958   4.264  14.475  0.1819  0.3064 -0.2719
 6943TIP3    H142244   2.034   4.210  14.499  0.0990  0.2116 -0.2250
 6943TIP3    H242245   1.981   4.300  14.389  0.3724  0.4504 -0.1620
 6944TIP3   OH242246   2.031   5.694  14.093 -0.4748 -0.5008 -0.2203
 6944TIP3    H142247   2.060   5.783  14.110  1.3411 -1.0483 -0.1606
 6944TIP3    H242248   1.940   5.692  14.121  0.2803  0.5581  2.7064
 6945TIP3   OH242249   1.968   4.114   0.112  0.1447  0.2138  0.2372
 6945TIP3    H142250   2.002   4.038   0.160  0.5854 -0.1510 -0.6453
 6945TIP3    H242251   1.940   4.079   0.028 -0.9165  0.7965  0.3244
 6946TIP3   OH242252   3.075   5.727   0.662 -0.5712 -0.4211  0.5626
 6946TIP3    H142253   3.092   5.651   0.606  0.3158  0.8322 -0.9542
 6946TIP3    H242254   2.991   5.760   0.632  0.0137  0.3892 -0.2413
 6947TIP3   OH242255   2.041   1.668  11.421  0.5158  0.1182  0.2539
 6947TIP3    H142256   2.030   1.752  11.466 -1.3321 -0.1434  0.3682
 6947TIP3    H242257   1.980   1.672  11.347  1.6409 -0.4819 -0.7411
 6948TIP3   OH242258   3.917   4.014  13.867  0.2124  0.9163 -0.1367
 6948TIP3    H142259   3.960   3.979  13.945 -0.5906  1.7141  0.6986
 6948TIP3    H242260   3.955   4.101  13.856 -0.3111  1.1592 -0.0922
 6949TIP3   OH242261   3.225   3.731   2.914  0.0635 -0.0449 -0.1140
 6949TIP3    H142262   3.280   3.804   2.942 -1.4975  1.1305  0.0003
 6949TIP3    H242263   3.258   3.656   2.963 -0.1610  1.1778  2.0271
 6950TIP3   OH242264   3.352   5.784  16.642 -0.3837  0.3089 -0.4304
 6950TIP3    H142265   3.297   5.715  16.678 -1.4074  1.2857 -0.0544
 6950TIP3    H242266   3.438   5.743  16.630 -0.7736 -0.8126  0.4385
 6951TIP3   OH242267   3.950   0.336   1.488 -0.8289 -0.4447 -0.1028
 6951TIP3    H142268   3.965   0.430   1.474 -1.0809 -0.0118  2.1483
 6951TIP3    H242269   3.914   0.305   1.405 -2.1995  1.7791 -0.4289
 6952TIP3   OH242270   4.751   2.822   2.870  0.2911 -0.3622  0.2692
 6952TIP3    H142271   4.671   2.872   2.886  0.5850  0.3213 -0.3765
 6952TIP3    H242272   4.813   2.885   2.835  1.3890 -0.6988  1.5125
 6953TIP3   OH242273   2.513   0.354   0.297 -0.2009  0.3150  0.1424
 6953TIP3    H142274   2.502   0.319   0.208 -1.0798 -0.1643  0.4253
 6953TIP3    H242275   2.424   0.354   0.334  0.0130  1.4155  0.6955
 6954TIP3   OH242276   6.141   6.340   3.405  0.1988  0.2075  0.0114
 6954TIP3    H142277   6.191   6.421   3.412  0.3917  0.0885  0.0284
 6954TIP3    H242278   6.075   6.346   3.473  1.3208 -0.4199  1.2062
 6955TIP3   OH242279   1.278   4.041  12.036 -0.5589  0.1033  0.2773
 6955TIP3    H142280   1.282   4.136  12.028  0.1505  0.1932  1.4912
 6955TIP3    H242281   1.296   4.023  12.128 -1.1106 -1.1940  0.1644
 6956TIP3   OH242282   3.559   3.871   1.989 -0.3827 -0.0094 -0.0730
 6956TIP3    H142283   3.637   3.856   1.936  0.2484  0.8521  0.5783
 6956TIP3    H242284   3.545   3.788   2.036  0.8234  0.1726  0.6586
 6957TIP3   OH242285   1.262   0.694  11.725 -0.5249 -0.3717 -0.3323
 6957TIP3    H142286   1.328   0.711  11.658 -1.4156  1.8896 -0.7112
 6957TIP3    H242287   1.310   0.702  11.808  0.1438 -1.0921 -0.6364
 6958TIP3   OH242288   4.436   2.993   0.972 -0.2593  0.1052 -0.0857
 6958TIP3    H142289   4.439   3.050   0.896 -1.7839 -1.5688 -1.4643
 6958TIP3    H242290   4.502   2.926   0.955 -1.0949 -0.6784 -0.2879
 6959TIP3   OH242291   6.404   5.124  14.622  0.1408 -0.4475  0.1136
 6959TIP3    H142292   6.489   5.165  14.607  0.5409 -1.6523 -1.1046
 6959TIP3    H242293   6.417   5.032  14.599 -1.6714 -0.5244 -0.7806
 6960TIP3   OH242294   6.469   1.488  10.590  0.3856  0.0919 -0.0294
 6960TIP3    H142295   6.483   1.414  10.649  0.8216  1.1386  1.2156
 6960TIP3    H242296   6.553   1.534  10.588  0.2665  0.2940 -1.1778
 6961TIP3   OH242297   5.667   3.041  13.604  0.2781 -0.4513  0.0251
 6961TIP3    H142298   5.720   3.066  13.680  1.8789 -0.5201 -1.0038
 6961TIP3    H242299   5.582   3.017  13.640  0.2928  1.6039  1.5465
 6962TIP3   OH242300   5.121   3.375  13.007 -0.1330  0.2902  0.0073
 6962TIP3    H142301   5.076   3.447  13.050  0.3776  0.4306  0.3172
 6962TIP3    H242302   5.074   3.363  12.924 -1.8941 -0.7741  1.0896
 6963TIP3   OH242303   3.063   2.367   2.676  0.2273 -0.0605 -0.3390
 6963TIP3    H142304   2.972   2.352   2.652  0.0205  0.7190 -0.0456
 6963TIP3    H242305   3.063   2.366   2.772  0.7516 -1.3643 -0.3272
 6964TIP3   OH242306   6.175   2.370   0.988  0.0853  0.0668  0.1189
 6964TIP3    H142307   6.218   2.454   0.969  0.4461  0.2048  1.4850
 6964TIP3    H242308   6.132   2.384   1.072 -0.7105 -0.8095 -0.1335
 6965TIP3   OH242309   4.239   3.600  14.397  0.0855  0.1218 -0.1281
 6965TIP3    H142310   4.316   3.656  14.384 -0.1006  0.4476  0.1800
 6965TIP3    H242311   4.169   3.660  14.419 -0.2724 -0.1735 -0.4447
 6966TIP3   OH242312   6.434   3.740  14.428  0.1066 -0.1575 -0.4634
 6966TIP3    H142313   6.397   3.751  14.515  0.2474  0.7101 -0.5013
 6966TIP3    H242314   6.383   3.799  14.373  1.7765  1.3920 -0.4363
 6967TIP3   OH242315   5.508   5.154  15.245 -0.1701 -0.4081 -0.0329
 6967TIP3    H142316   5.603   5.148  15.249 -0.1984 -0.2528  1.6448
 6967TIP3    H242317   5.489   5.189  15.158  1.2790 -0.7401 -0.5035
 6968TIP3   OH242318   0.294   1.913   5.475 -0.5942 -0.1648 -0.0506
 6968TIP3    H142319   0.268   1.963   5.398 -0.8694 -0.5982 -0.2423
 6968TIP3    H242320   0.311   1.979   5.542 -0.0788  0.2313 -0.5639
 6969TIP3   OH242321   6.559   5.126   5.556 -0.3594 -0.3311 -0.3778
 6969TIP3    H142322   6.505   5.063   5.508 -0.5464  1.3301 -2.4445
 6969TIP3    H242323   6.629   5.149   5.496  1.0035 -0.1956  1.1794
 6970TIP3   OH242324   0.963   6.111  16.034  0.1382  0.2717 -0.4327
 6970TIP3    H142325   0.967   6.206  16.028  1.2271  0.2841  0.2408
 6970TIP3    H242326   1.041   6.081  15.988  1.4101 -0.1355  1.8053
 6971TIP3   OH242327   3.326   3.270  12.281  0.0991  0.2186 -0.6733
 6971TIP3    H142328   3.378   3.333  12.330  0.6935 -0.3142 -0.5979
 6971TIP3    H242329   3.314   3.310  12.195  0.6891  0.3226 -0.7091
 6972TIP3   OH242330   0.045   1.567  16.960 -0.0914  1.0931 -0.2287
 6972TIP3    H142331   0.014   1.498  17.018  0.9111  2.1530  1.6401
 6972TIP3    H242332   0.079   1.520  16.883  1.3483 -0.5860  1.3528
 6973TIP3   OH242333   3.893   1.587  14.428 -0.5549  0.3735 -0.2816
 6973TIP3    H142334   3.832   1.572  14.356 -1.6356  1.6054  0.3319
 6973TIP3    H242335   3.901   1.503  14.472 -2.7413  0.4139  0.2964
 6974TIP3   OH242336   0.814   1.634  14.588  0.0679  0.1258  0.2117
 6974TIP3    H142337   0.779   1.679  14.511  0.2728 -1.0330 -0.5958
 6974TIP3    H242338   0.760   1.665  14.661  0.1350  1.5640 -0.3192
 6975TIP3   OH242339   4.561   6.127  14.952  0.3692  0.6758 -0.2197
 6975TIP3    H142340   4.467   6.110  14.938  0.4595  0.3193 -0.4081
 6975TIP3    H242341   4.599   6.040  14.961  0.4283  0.8428  1.5395
 6976TIP3   OH242342   1.196   2.907  14.596  0.1932 -0.4834  0.3777
 6976TIP3    H142343   1.279   2.867  14.622  1.5020  0.6914 -1.6311
 6976TIP3    H242344   1.156   2.844  14.536 -0.7919 -1.3748  1.9068
 6977TIP3   OH242345   5.208   6.433   5.709 -0.0579  0.0617 -0.2519
 6977TIP3    H142346   5.135   6.474   5.662  0.5973  1.1424 -0.3487
 6977TIP3    H242347   5.274   6.501   5.716  0.5583 -0.6081  0.7183
 6978TIP3   OH242348   5.803   3.137  16.073  0.0293 -0.3428  0.2801
 6978TIP3    H142349   5.878   3.195  16.071 -0.4677  0.3105  0.1157
 6978TIP3    H242350   5.829   3.065  16.130  0.6533  0.0415  0.4886
 6979TIP3   OH242351   5.737   5.916  16.054 -0.8494 -0.3339 -0.1765
 6979TIP3    H142352   5.656   5.924  16.004 -0.1394  2.1067 -1.0974
 6979TIP3    H242353   5.757   6.006  16.082  2.0663 -0.6176 -0.9451
 6980TIP3   OH242354   3.992   1.065  15.448 -0.4808 -0.8157  0.1846
 6980TIP3    H142355   3.906   1.054  15.487 -1.5227 -0.1546 -1.7681
 6980TIP3    H242356   4.001   0.992  15.387  0.1950 -0.6884  0.1169
 6981TIP3   OH242357   5.760   1.298  13.186 -0.4483 -0.2735 -0.1186
 6981TIP3    H142358   5.675   1.271  13.221 -0.5501  0.3247  0.1034
 6981TIP3    H242359   5.740   1.371  13.128 -0.2258 -0.9527 -1.0697
 6982TIP3   OH242360   1.807   4.111   1.444 -0.1297 -0.0633 -0.2558
 6982TIP3    H142361   1.818   4.023   1.407  0.6042 -0.0124 -0.1642
 6982TIP3    H242362   1.894   4.150   1.439 -0.2142  0.2601  0.7425
 6983TIP3   OH242363   6.091   5.541   0.313 -0.6167 -0.1211 -0.3371
 6983TIP3    H142364   6.130   5.518   0.228  0.0276 -0.6820  0.0949
 6983TIP3    H242365   6.022   5.476   0.325 -3.0891  2.0077 -1.9836
 6984TIP3   OH242366   6.125   4.619  17.027 -0.4575 -0.4632 -0.3644
 6984TIP3    H142367   6.109   4.612  16.933  0.7132  0.7000 -0.6866
 6984TIP3    H242368   6.088   4.704  17.051  1.9387  0.6866 -0.4500
 6985TIP3   OH242369   1.411   0.209  14.853 -0.2109  0.5329 -0.1034
 6985TIP3    H142370   1.489   0.252  14.817 -0.3061  0.6825 -0.1363
 6985TIP3    H242371   1.428   0.116  14.844 -1.1800  0.5335 -2.6648
 6986TIP3   OH242372   2.842   3.001   0.981  0.3395 -0.5206  0.6772
 6986TIP3    H142373   2.805   2.917   1.009  0.9508 -1.4495 -1.1362
 6986TIP3    H242374   2.935   2.995   1.003  0.4605 -0.4877  0.1856
 6987TIP3   OH242375   1.570   2.412  15.153  0.3988 -0.1113 -0.2413
 6987TIP3    H142376   1.662   2.395  15.175  0.3218 -1.4401 -0.8696
 6987TIP3    H242377   1.528   2.326  15.155 -0.0377 -0.1200 -3.5838
 6988TIP3   OH242378   6.167   3.822  15.644  0.4314 -0.1614  0.1365
 6988TIP3    H142379   6.133   3.832  15.555 -1.9881  0.1307  1.0037
 6988TIP3    H242380   6.089   3.825  15.700  1.9194  0.3644  2.3345
 6989TIP3   OH242381   1.484   4.244  13.203 -0.8064 -0.4737  0.0809
 6989TIP3    H142382   1.458   4.242  13.296 -0.5185 -1.7897  0.1417
 6989TIP3    H242383   1.409   4.284  13.159 -0.6466  0.8748  0.9597
 6990TIP3   OH242384   0.204   3.330   3.319  0.2977 -0.7022  0.3511
 6990TIP3    H142385   0.171   3.377   3.396 -2.8349 -0.1126 -1.2168
 6990TIP3    H242386   0.220   3.399   3.254  1.2371 -1.3534 -0.1348
 6991TIP3   OH242387   3.712   0.872  12.190  0.0886 -0.4180  0.2969
 6991TIP3    H142388   3.692   0.870  12.096  0.0524 -1.0276  0.3167
 6991TIP3    H242389   3.766   0.951  12.201  2.5401 -1.8297 -0.7463
 6992TIP3   OH242390   1.445   2.093   0.499  1.3069  0.2887  0.1871
 6992TIP3    H142391   1.389   2.084   0.422  1.7184 -0.5343 -0.0236
 6992TIP3    H242392   1.533   2.074   0.468  1.6653  1.1661  0.6100
 6993TIP3   OH242393   4.769   4.323  14.370 -0.1647 -0.5661  0.3373
 6993TIP3    H142394   4.694   4.384  14.371  0.4465  0.3605 -2.2685
 6993TIP3    H242395   4.844   4.378  14.346  0.5712 -2.1549 -1.2029
 6994TIP3   OH242396   1.595   1.593   0.792 -0.2802  0.2708  0.3152
 6994TIP3    H142397   1.516   1.604   0.741  0.0661  0.3759 -0.2037
 6994TIP3    H242398   1.567   1.547   0.871 -0.9185  0.6535  0.3147
 6995TIP3   OH242399   1.424   1.762   4.103 -0.3267 -0.0131  0.1409
 6995TIP3    H142400   1.469   1.678   4.096  0.9769  0.7187 -0.7269
 6995TIP3    H242401   1.479   1.813   4.163  0.1890  0.9735 -1.1197
 6996TIP3   OH242402   6.304   5.511  15.971  0.0911 -0.6351  0.3748
 6996TIP3    H142403   6.230   5.453  15.956 -0.4369 -0.0069  0.5281
 6996TIP3    H242404   6.379   5.465  15.933 -0.1229 -1.8883  1.4159
 6997TIP3   OH242405   0.993   5.596  13.311  0.2380 -0.2005 -0.6106
 6997TIP3    H142406   1.037   5.544  13.244  0.6674 -0.5548 -0.0574
 6997TIP3    H242407   0.957   5.670  13.262 -0.5159 -1.0759 -1.4345
 6998TIP3   OH242408   4.646   2.069   0.903  0.4554  0.4498 -0.1470
 6998TIP3    H142409   4.724   2.013   0.903 -1.0330 -1.8393  1.4997
 6998TIP3    H242410   4.615   2.067   0.812  1.0757 -0.5089 -0.3533
 6999TIP3   OH242411   5.746   3.937   3.200  0.3861  0.3606 -0.4384
 6999TIP3    H142412   5.765   3.957   3.108  1.2977 -0.2908 -0.4055
 6999TIP3    H242413   5.757   3.842   3.206 -2.1378  0.0290 -0.2046
 7000TIP3   OH242414   5.468   1.636  11.555 -0.0255 -0.0042  0.5111
 7000TIP3    H142415   5.406   1.566  11.576 -0.2298 -0.2429 -0.7960
 7000TIP3    H242416   5.527   1.597  11.490  0.6961  0.6269  0.7714
 7001TIP3   OH242417   0.678   3.787  15.621 -0.0385  0.1713  0.4574
 7001TIP3    H142418   0.652   3.811  15.710  2.7015  1.2742  1.0473
 7001TIP3    H242419   0.718   3.700  15.630 -1.6816 -0.6987 -0.1341
 7002TIP3   OH242420   5.636   1.070   6.406 -0.3340 -0.1371 -0.2603
 7002TIP3    H142421   5.694   1.144   6.389  1.0432 -1.3389 -0.9695
 7002TIP3    H242422   5.565   1.081   6.342 -0.9312  1.3129  0.5856
 7003TIP3   OH242423   2.577   4.855   5.820  0.3346  0.0756  0.2606
 7003TIP3    H142424   2.558   4.835   5.728 -1.7023  1.1142  0.3875
 7003TIP3    H242425   2.500   4.904   5.850  0.9688 -0.1844  2.5108
 7004TIP3   OH242426   1.930   5.195   0.456  0.2156 -0.1110 -0.0943
 7004TIP3    H142427   1.850   5.223   0.413 -0.4515 -0.4413  0.8910
 7004TIP3    H242428   1.931   5.100   0.446 -0.4313 -0.3052  1.3602
 7005TIP3   OH242429   6.569   3.506   5.260 -0.4843 -0.2173  0.3097
 7005TIP3    H142430   6.514   3.506   5.339 -1.3980 -1.5492 -0.3047
 7005TIP3    H242431   6.511   3.537   5.190  0.3784  1.1554  0.1573
 7006TIP3   OH242432   6.135   6.094   2.308 -0.2157  0.3688 -0.3270
 7006TIP3    H142433   6.165   6.138   2.387 -1.0884 -1.9204  1.4135
 7006TIP3    H242434   6.115   6.165   2.247 -1.8642  2.4365  2.3743
 7007TIP3   OH242435   0.131   3.048  12.758 -0.2490  0.2839  0.3255
 7007TIP3    H142436   0.150   3.026  12.849 -1.4901 -2.2910  0.0458
 7007TIP3    H242437   0.209   3.021  12.710 -0.5222 -0.6013  0.3674
 7008TIP3   OH242438   6.447   1.368   2.264  0.1307 -0.1005  0.7072
 7008TIP3    H142439   6.423   1.447   2.216 -1.5154 -0.0611  1.5133
 7008TIP3    H242440   6.407   1.380   2.350 -0.4425 -1.9610  0.7340
 7009TIP3   OH242441   0.655   2.655   0.641 -0.8996  0.5320 -0.1286
 7009TIP3    H142442   0.609   2.693   0.566 -2.0511  0.2562  0.3999
 7009TIP3    H242443   0.743   2.636   0.609 -1.6978 -0.6748 -1.7934
 7010TIP3   OH242444   2.786   0.574   0.807  0.0674  0.3849 -0.9912
 7010TIP3    H142445   2.762   0.500   0.751  1.5980  1.5873 -3.4490
 7010TIP3    H242446   2.837   0.535   0.878 -1.4591 -1.1618 -0.7011
 7011TIP3   OH242447   1.816   2.790  13.007  0.3407 -0.0025 -0.0149
 7011TIP3    H142448   1.738   2.735  13.001 -1.1715  2.0224  0.1257
 7011TIP3    H242449   1.889   2.729  12.998 -1.2341 -2.0103  0.1302
 7012TIP3   OH242450   5.984   2.688  12.430 -0.4867  0.0997  0.5422
 7012TIP3    H142451   6.009   2.774  12.397  1.5582 -0.7913 -0.3952
 7012TIP3    H242452   5.889   2.687  12.425 -0.4832  1.7910 -0.7655
 7013TIP3   OH242453   5.703   4.118   0.583 -0.4101 -0.1206  0.1547
 7013TIP3    H142454   5.763   4.184   0.617 -0.0867 -0.8675  1.0733
 7013TIP3    H242455   5.642   4.101   0.655 -1.8550  0.7481 -0.8122
 7014TIP3   OH242456   6.497   0.445   5.383  0.3545 -0.4279 -0.7141
 7014TIP3    H142457   6.581   0.452   5.429 -0.2311 -1.9432  0.7242
 7014TIP3    H242458   6.431   0.458   5.452 -0.6039  0.3492 -1.7400
 7015TIP3   OH242459   5.769   4.238  13.461  0.4549 -0.5393 -0.7847
 7015TIP3    H142460   5.767   4.323  13.505  0.3277 -0.5909 -0.6914
 7015TIP3    H242461   5.863   4.220  13.450  0.5500 -1.2106  0.7902
 7016TIP3   OH242462   5.442   1.692   2.508 -0.3239 -0.3412  0.0129
 7016TIP3    H142463   5.438   1.785   2.485  0.0311 -0.5057 -0.7388
 7016TIP3    H242464   5.416   1.647   2.428  0.0477 -0.9078  0.2140
 7017TIP3   OH242465   6.553   2.655   5.187 -0.0702 -0.1810  0.0929
 7017TIP3    H142466   6.472   2.704   5.170 -0.3447 -0.7487 -0.2705
 7017TIP3    H242467   6.557   2.646   5.282  0.2395  0.9704  0.2011
 7018TIP3   OH242468   6.503   6.304  11.050 -0.2316  0.0609  0.4867
 7018TIP3    H142469   6.509   6.364  10.975  2.5863  0.2566  0.7605
 7018TIP3    H242470   6.509   6.216  11.011  3.1512  0.1909  0.4850
 7019TIP3   OH242471   3.896   4.040   2.014 -0.5458 -0.4858  0.0460
 7019TIP3    H142472   3.859   4.123   1.984 -0.6251 -1.1177 -1.6998
 7019TIP3    H242473   3.885   4.043   2.109  1.8352  2.6595  0.4007
 7020TIP3   OH242474   2.624   5.227   1.837  0.2688 -0.4808 -0.4389
 7020TIP3    H142475   2.654   5.152   1.889  2.9485 -0.8257 -2.2783
 7020TIP3    H242476   2.652   5.206   1.748  0.2593  2.3108 -1.1663
 7021TIP3   OH242477   4.986   1.504  13.095 -0.0536 -0.0282  0.2537
 7021TIP3    H142478   5.032   1.583  13.123  2.5707 -1.0062 -0.9177
 7021TIP3    H242479   4.900   1.535  13.065  0.2636  2.1033  1.3832
 7022TIP3   OH242480   6.362   0.649  10.685  0.5514 -0.1213  0.6522
 7022TIP3    H142481   6.323   0.708  10.750  1.2785  1.3879 -0.2278
 7022TIP3    H242482   6.298   0.645  10.615  0.4572 -0.4790  0.7568
 7023TIP3   OH242483   0.624   4.849  13.692 -0.4567 -0.0300  0.1076
 7023TIP3    H142484   0.711   4.820  13.722 -1.1057 -1.9721  0.2457
 7023TIP3    H242485   0.584   4.886  13.770 -0.5822 -1.2639  0.6652
 7024TIP3   OH242486   2.449   1.669  17.246  0.5964 -0.1125 -0.4135
 7024TIP3    H142487   2.472   1.617  17.169  2.1016  0.4213 -0.3651
 7024TIP3    H242488   2.353   1.670  17.247  0.5483 -0.5140 -2.0104
 7025TIP3   OH242489   0.703   2.383   0.452  0.3755  0.2257 -0.2646
 7025TIP3    H142490   0.783   2.363   0.403  1.9018  0.7548  1.8382
 7025TIP3    H242491   0.659   2.299   0.462  2.4190 -0.7380  1.3407
 7026TIP3   OH242492   2.774   5.407  11.899 -0.1093 -0.8299  0.7241
 7026TIP3    H142493   2.811   5.458  11.826  0.1816 -1.1115  0.6717
 7026TIP3    H242494   2.695   5.367  11.863  0.6605 -1.9227  0.2014
 7027TIP3   OH242495   0.178   3.300  12.254  0.5956  0.6164 -0.0329
 7027TIP3    H142496   0.215   3.387  12.238  0.1142  1.1130  1.4369
 7027TIP3    H242497   0.254   3.242  12.257  0.9893  1.1120 -0.2442
 7028TIP3   OH242498   3.703   6.117   0.309  0.3118  0.2151 -0.0079
 7028TIP3    H142499   3.679   6.031   0.345 -1.7060 -0.1291 -1.9719
 7028TIP3    H242500   3.684   6.110   0.216 -0.3173  2.9418 -0.1637
 7029TIP3   OH242501   6.465   1.180  14.456  0.0220 -0.0608 -0.0850
 7029TIP3    H142502   6.406   1.221  14.393 -0.6946 -0.6311  0.1982
 7029TIP3    H242503   6.546   1.231  14.451 -0.2777  0.3405 -0.9380
 7030TIP3   OH242504   3.498   0.296  15.160 -0.4988 -0.0900 -0.4572
 7030TIP3    H142505   3.478   0.293  15.066 -0.9857  0.0597 -0.3605
 7030TIP3    H242506   3.569   0.232  15.171  1.5826  1.9143 -1.4048
 7031TIP3   OH242507   5.172   5.806  11.577  0.5281  0.0383 -0.2655
 7031TIP3    H142508   5.109   5.809  11.505 -0.7018 -1.5395  0.7024
 7031TIP3    H242509   5.172   5.896  11.612  0.0626  0.4571 -1.3018
 7032TIP3   OH242510   1.392   4.553   3.087  0.2864 -0.2496  0.4855
 7032TIP3    H142511   1.407   4.636   3.132 -1.4934 -0.3695  1.4098
 7032TIP3    H242512   1.317   4.571   3.030  1.0235 -0.7604 -0.6879
 7033TIP3   OH242513   6.522   5.212  16.313  0.5363 -0.0991  0.4178
 7033TIP3    H142514   6.577   5.237  16.388  1.8097 -1.5493  0.0256
 7033TIP3    H242515   6.534   5.282  16.250  0.6921  0.3716  0.9596
 7034TIP3   OH242516   2.382   3.941   0.021 -0.0575 -0.4401  0.1523
 7034TIP3    H142517   2.459   3.885   0.032 -0.1123 -0.3732  0.8861
 7034TIP3    H242518   2.403   4.021   0.068  0.8504  1.0213 -2.5116
 7035TIP3   OH242519   5.688   2.771  14.979  0.2272  0.7020  0.2885
 7035TIP3    H142520   5.642   2.694  14.946  0.8672  1.5511 -2.8803
 7035TIP3    H242521   5.754   2.735  15.039 -0.4587 -1.0507  0.0639
 7036TIP3   OH242522   3.993   5.372  12.922  0.4453 -0.0256 -0.0190
 7036TIP3    H142523   4.067   5.428  12.947  1.1667 -0.6247 -0.7304
 7036TIP3    H242524   3.991   5.304  12.989 -0.2679  0.6852  0.7004
 7037TIP3   OH242525   4.974   0.480  11.378 -0.1810 -0.1832 -0.2279
 7037TIP3    H142526   4.910   0.537  11.420  0.2155  0.0841  0.0239
 7037TIP3    H242527   5.023   0.538  11.319  0.7585 -0.0854  0.6270
 7038TIP3   OH242528   2.273   5.903  12.071  0.1882 -0.0323 -0.4911
 7038TIP3    H142529   2.333   5.828  12.071 -0.5777 -0.6578 -0.5292
 7038TIP3    H242530   2.186   5.864  12.066 -0.1768  0.9077 -2.1415
 7039TIP3   OH242531   0.181   6.202   2.579  0.0118 -0.1103  0.9529
 7039TIP3    H142532   0.276   6.208   2.582  0.0413  0.4640 -0.3008
 7039TIP3    H242533   0.163   6.108   2.587  0.8684 -0.5472 -1.3357
 7040TIP3   OH242534   3.442   1.074   1.318  0.7875 -0.0409  0.2162
 7040TIP3    H142535   3.352   1.092   1.346 -0.7197 -2.5611 -2.4320
 7040TIP3    H242536   3.448   1.110   1.230  1.0686 -2.8968 -1.0584
 7041TIP3   OH242537   3.468   6.019   2.209  0.1116 -0.4382  0.5806
 7041TIP3    H142538   3.415   6.097   2.224  1.5086  1.1037 -1.8734
 7041TIP3    H242539   3.551   6.038   2.253  1.6716  1.0664 -2.6889
 7042TIP3   OH242540   4.977   2.603   3.465 -0.2071  0.6282  0.3421
 7042TIP3    H142541   5.039   2.661   3.508 -0.0583  0.0887  0.8678
 7042TIP3    H242542   5.024   2.520   3.454 -0.6453  0.3821  0.2576
 7043TIP3   OH242543   2.069   3.205   2.077  0.2474 -0.2279  0.1608
 7043TIP3    H142544   1.999   3.202   2.142  1.6310  0.6326  1.7574
 7043TIP3    H242545   2.134   3.141   2.108  0.7541 -0.0951 -0.5969
 7044TIP3   OH242546   2.294   2.009  14.297 -0.3015 -0.4863  0.0036
 7044TIP3    H142547   2.317   1.920  14.271 -2.7239 -0.3665 -3.1591
 7044TIP3    H242548   2.369   2.062  14.271 -0.0531 -1.2581 -0.9205
 7045TIP3   OH242549   4.061   5.569   1.378  0.4173  0.4428 -0.6545
 7045TIP3    H142550   4.154   5.578   1.400  0.9071  0.1210 -2.4042
 7045TIP3    H242551   4.049   5.626   1.302 -0.2746 -1.1211 -1.7784
 7046TIP3   OH242552   3.460   6.501   4.364 -0.3606  0.0412 -0.3540
 7046TIP3    H142553   3.474   6.407   4.353 -0.1361  0.2590 -2.3596
 7046TIP3    H242554   3.532   6.542   4.317 -1.7118  1.1891 -1.5304
 7047TIP3   OH242555   3.448   0.047   3.104 -0.1191 -0.2786  0.0824
 7047TIP3    H142556   3.428  -0.041   3.074 -0.0244 -0.2905  0.0541
 7047TIP3    H242557   3.501   0.085   3.034 -0.5441 -0.0400 -0.1133
 7048TIP3   OH242558   3.786   2.521   2.720 -0.6634 -0.4135 -0.7652
 7048TIP3    H142559   3.732   2.599   2.718  0.0031  0.0595 -0.8902
 7048TIP3    H242560   3.839   2.530   2.799 -0.0761 -0.3772 -1.1531
 7049TIP3   OH242561   3.521   0.905   3.322  0.5595 -0.5705 -0.7099
 7049TIP3    H142562   3.595   0.951   3.282  1.2807 -0.8944  0.2151
 7049TIP3    H242563   3.457   0.974   3.340  0.9239 -0.1838 -0.8733
 7050TIP3   OH242564   2.303   1.789  11.360  0.1922 -0.0006  0.4827
 7050TIP3    H142565   2.223   1.737  11.371  0.7412 -1.0627 -0.2632
 7050TIP3    H242566   2.301   1.817  11.268  0.0424  1.0995  0.8079
 7051TIP3   OH242567   3.866   2.060   4.842  0.0721 -0.1984 -0.3960
 7051TIP3    H142568   3.930   2.112   4.892  0.4480 -0.5273 -0.5331
 7051TIP3    H242569   3.791   2.053   4.901  0.7733 -1.1756  0.4155
 7052TIP3   OH242570   1.040   1.693  16.535 -0.4978  0.1718 -0.6076
 7052TIP3    H142571   1.005   1.753  16.601 -1.2822 -1.3527  0.4251
 7052TIP3    H242572   1.074   1.750  16.467  2.8314  2.0115  2.2400
 7053TIP3   OH242573   0.331   6.299   5.497  0.2537 -0.3144  0.2254
 7053TIP3    H142574   0.245   6.268   5.469  0.1770 -0.6213  0.7896
 7053TIP3    H242575   0.367   6.227   5.548  0.8934 -0.2289 -0.0947
 7054TIP3   OH242576   2.905   4.832   0.950  0.3191  0.1546 -0.3751
 7054TIP3    H142577   2.963   4.891   0.903  0.6985  0.4782  0.4730
 7054TIP3    H242578   2.952   4.748   0.951  1.9696  0.9800  2.3575
 7055TIP3   OH242579   2.270   0.532  11.200  0.7445 -0.1249  0.3872
 7055TIP3    H142580   2.352   0.534  11.150 -0.3135 -1.3740 -1.5130
 7055TIP3    H242581   2.275   0.451  11.251  0.0894 -0.9796 -0.8713
 7056TIP3   OH242582   2.732   5.241  14.979 -0.2439  0.2784 -0.1060
 7056TIP3    H142583   2.705   5.332  14.989 -0.3068  0.2554 -0.0658
 7056TIP3    H242584   2.758   5.233  14.887  0.4305  0.5160  0.0558
 7057TIP3   OH242585   6.663   6.372  11.303  0.3549  0.1197  0.0689
 7057TIP3    H142586   6.736   6.410  11.255 -0.7864  3.0253  0.4618
 7057TIP3    H242587   6.594   6.359  11.238 -0.8493  3.1582  0.5837
 7058TIP3   OH242588   6.216   1.750  14.934 -0.1168  0.0627 -0.1140
 7058TIP3    H142589   6.274   1.749  14.858  0.4281  0.0728  0.2958
 7058TIP3    H242590   6.274   1.732  15.008 -0.0848  2.9953  0.6887
 7059TIP3   OH242591   5.917   4.735   0.547  0.3826 -0.1985 -0.2689
 7059TIP3    H142592   5.960   4.724   0.463  2.8684 -0.6591  0.9644
 7059TIP3    H242593   5.920   4.647   0.587 -1.3639 -0.1432  0.0654
 7060TIP3   OH242594   2.785   4.558  15.947  0.4753  0.5863 -0.7674
 7060TIP3    H142595   2.788   4.597  15.859  4.2161 -1.0971 -1.6266
 7060TIP3    H242596   2.782   4.464  15.930  0.2498  0.2708  0.9400
 7061TIP3   OH242597   0.204   2.018  16.474 -0.4991 -0.5809  0.9206
 7061TIP3    H142598   0.163   1.967  16.404 -0.5046  1.4535 -0.6467
 7061TIP3    H242599   0.296   1.992  16.471 -0.1186  0.7197 -1.1212
 7062TIP3   OH242600   2.033   2.905   0.758  0.2166  0.6010 -0.0509
 7062TIP3    H142601   2.020   2.996   0.783  0.1386  0.6838 -0.3879
 7062TIP3    H242602   2.123   2.886   0.783 -0.0646  0.4702  0.9283
 7063TIP3   OH242603   0.458   4.027  14.321 -0.9244 -0.5223  0.1998
 7063TIP3    H142604   0.501   4.112  14.326 -0.6950 -0.7040  1.5680
 7063TIP3    H242605   0.478   3.996  14.232  1.6264 -0.5146  0.6891
 7064TIP3   OH242606   4.722   6.379   1.438  0.0453  0.9287  0.6475
 7064TIP3    H142607   4.785   6.448   1.418  1.5865 -0.4258  0.6260
 7064TIP3    H242608   4.734   6.362   1.531  1.4035 -0.8686  0.2069
 7065TIP3   OH242609   6.720   0.289  12.378 -0.4262  0.0259 -0.2054
 7065TIP3    H142610   6.657   0.277  12.448 -0.7344  0.8323 -0.3342
 7065TIP3    H242611   6.672   0.336  12.309 -0.1189 -0.7090 -0.9459
 7066TIP3   OH242612   2.873   4.904   4.038  0.3888 -0.0303  0.2595
 7066TIP3    H142613   2.897   4.813   4.021  1.1275  0.0729  0.6766
 7066TIP3    H242614   2.955   4.953   4.026  0.2448  0.4326  1.0544
 7067TIP3   OH242615   4.586   6.450  11.075 -0.4780 -0.1116  0.1266
 7067TIP3    H142616   4.595   6.419  10.985  2.1351  0.2043  0.2081
 7067TIP3    H242617   4.520   6.392  11.114 -0.0096 -1.7136 -1.3576
 7068TIP3   OH242618   1.764   5.497  16.080  0.7615  0.5944 -0.0163
 7068TIP3    H142619   1.819   5.436  16.030  1.8919  1.5802 -0.0204
 7068TIP3    H242620   1.807   5.502  16.166  0.1707  0.7300  0.2790
 7069TIP3   OH242621   1.170   1.721  16.835 -0.4694  0.1892  0.1114
 7069TIP3    H142622   1.211   1.804  16.808  1.5519 -0.8237 -0.1158
 7069TIP3    H242623   1.110   1.700  16.763  0.5713  0.4195 -0.8631
 7070TIP3   OH242624   6.530   5.645  12.702  1.0000  0.3697  0.1725
 7070TIP3    H142625   6.608   5.615  12.655  2.4147  1.5447  1.6335
 7070TIP3    H242626   6.498   5.568  12.748  1.2489 -0.1492 -0.5095
 7071TIP3   OH242627   2.156   1.445  13.429  0.2798 -0.0387 -0.4418
 7071TIP3    H142628   2.248   1.433  13.453  0.8725 -0.2017 -2.5786
 7071TIP3    H242629   2.107   1.396  13.495  1.7155 -0.0979  0.6324
 7072TIP3   OH242630   4.370   2.076  11.805 -0.2480  0.0159  0.1960
 7072TIP3    H142631   4.287   2.042  11.772  0.4067 -2.3790  0.7712
 7072TIP3    H242632   4.437   2.029  11.755  0.7787  1.5991  0.0238
 7073TIP3   OH242633   6.007   0.942  14.191 -0.2277  0.2722  0.6167
 7073TIP3    H142634   5.915   0.939  14.215 -0.6169  0.0111 -0.8379
 7073TIP3    H242635   6.028   1.036  14.188 -1.0018  0.4134 -1.0126
 7074TIP3   OH242636   5.590   0.320  13.268 -0.6296 -0.5070 -0.4079
 7074TIP3    H142637   5.501   0.351  13.252 -0.9041  0.7382  2.7883
 7074TIP3    H242638   5.579   0.232  13.305 -0.5153 -0.4104 -0.1440
 7075TIP3   OH242639   1.159   0.801   2.623  0.0415  0.3430  0.2021
 7075TIP3    H142640   1.092   0.814   2.557  0.3425  1.3105  0.0757
 7075TIP3    H242641   1.223   0.743   2.581  0.1955  0.8929 -0.3429
 7076TIP3   OH242642   3.524   4.167   5.251 -0.3052  0.6788  0.1849
 7076TIP3    H142643   3.545   4.073   5.248  1.7126  1.1106 -0.3372
 7076TIP3    H242644   3.514   4.186   5.344 -1.0611 -0.0986  0.2781
 7077TIP3   OH242645   4.108   1.708  11.892  0.2244  0.3392  0.3117
 7077TIP3    H142646   4.141   1.710  11.802  0.4475 -1.0750  0.3421
 7077TIP3    H242647   4.018   1.741  11.885  0.7224  1.6726 -0.1836
 7078TIP3   OH242648   5.220   3.053  15.246  0.0819  0.3181 -0.5516
 7078TIP3    H142649   5.146   3.098  15.287 -2.8127 -3.8873 -0.6177
 7078TIP3    H242650   5.265   3.010  15.318 -0.4331 -0.9264 -0.9499
 7079TIP3   OH242651   0.609   2.685  11.242 -0.0196 -0.3380  0.3190
 7079TIP3    H142652   0.524   2.642  11.230 -0.6332 -0.3822  3.9250
 7079TIP3    H242653   0.594   2.751  11.309  3.0195 -1.1939  2.0159
 7080TIP3   OH242654   6.737   4.928   4.668  0.2957 -0.5832 -0.3917
 7080TIP3    H142655   6.766   4.959   4.583 -1.1913  2.1939  0.0104
 7080TIP3    H242656   6.805   4.955   4.729 -1.2009  2.6324  0.0256
 7081TIP3   OH242657   0.974   3.474   0.754  0.6237 -0.3026  0.3720
 7081TIP3    H142658   0.903   3.462   0.818 -0.7378 -0.3810 -1.1017
 7081TIP3    H242659   1.040   3.410   0.780 -0.5103 -1.3148  0.8696
 7082TIP3   OH242660   5.221   5.005   6.164  0.3811  0.7673  0.8113
 7082TIP3    H142661   5.152   4.941   6.181  0.1736  0.9904  0.8217
 7082TIP3    H242662   5.206   5.033   6.074 -0.3721  1.7962  1.2260
 7083TIP3   OH242663   0.457   2.124   4.917 -0.0620  0.2604 -0.2768
 7083TIP3    H142664   0.409   2.052   4.876  0.4254  0.3718 -1.0749
 7083TIP3    H242665   0.544   2.087   4.937  0.3426  0.7350 -1.1019
 7084TIP3   OH242666   5.553   0.580   2.060  0.5744  0.4461 -0.0651
 7084TIP3    H142667   5.500   0.645   2.105  1.4133  0.4048  1.0309
 7084TIP3    H242668   5.641   0.618   2.057  0.7677 -0.0269 -0.6928
 7085TIP3   OH242669   1.345   5.955  15.496 -0.3536  0.4835 -0.4263
 7085TIP3    H142670   1.332   5.973  15.403 -0.1010  0.1654 -0.5269
 7085TIP3    H242671   1.434   5.922  15.501  0.4774  2.6842  0.2605
 7086TIP3   OH242672   3.493   2.313  12.997 -0.0655 -0.5496  0.0278
 7086TIP3    H142673   3.495   2.352  13.085  0.9870 -2.6200  1.0028
 7086TIP3    H242674   3.534   2.227  13.009 -0.2757 -1.0455 -2.4336
 7087TIP3   OH242675   0.627   4.953   4.313  0.1619 -0.0601 -0.1253
 7087TIP3    H142676   0.675   4.972   4.393  1.3438 -1.5173 -0.4212
 7087TIP3    H242677   0.606   4.860   4.319  0.3882 -0.2309 -1.5427
 7088TIP3   OH242678   6.395   4.648   3.162 -0.4684  0.1195  0.1445
 7088TIP3    H142679   6.468   4.595   3.130 -0.7873 -0.9972  1.1766
 7088TIP3    H242680   6.423   4.738   3.147 -0.5743 -0.2690 -3.1261
 7089TIP3   OH242681   3.795   0.244  14.950  0.4200 -0.1190 -0.4753
 7089TIP3    H142682   3.859   0.226  14.881 -0.6954  1.1592 -1.9227
 7089TIP3    H242683   3.717   0.276  14.903 -0.3880  0.8181  1.3759
 7090TIP3   OH242684   3.498   2.146   6.473 -0.0983 -0.4251  0.2522
 7090TIP3    H142685   3.539   2.166   6.557  0.6117 -0.4042 -0.0867
 7090TIP3    H242686   3.500   2.229   6.425  0.9589 -0.7824 -0.3733
 7091TIP3   OH242687   3.344   4.496   6.265  0.0025 -0.3457  0.1043
 7091TIP3    H142688   3.358   4.591   6.259  1.1743 -0.5054  0.0062
 7091TIP3    H242689   3.269   4.486   6.323  0.9927  0.6070  1.6187
 7092TIP3   OH242690   1.883   0.539   3.883  0.1600  0.0350 -0.0719
 7092TIP3    H142691   1.927   0.502   3.806  0.7362  1.3011 -0.3759
 7092TIP3    H242692   1.871   0.464   3.942  0.7230 -0.7451 -0.9252
 7093TIP3   OH242693   2.863   3.548  11.264  0.5900 -0.1494 -0.4212
 7093TIP3    H142694   2.812   3.610  11.316  0.2796 -1.1499  0.4851
 7093TIP3    H242695   2.814   3.466  11.268  1.2565 -0.6041 -1.1822
 7094TIP3   OH242696   3.354   5.798   3.937 -1.0191  0.9013  0.0723
 7094TIP3    H142697   3.340   5.735   4.008  2.3114 -0.7281 -0.4868
 7094TIP3    H242698   3.313   5.758   3.860  0.2776 -0.2364 -0.0727
 7095TIP3   OH242699   0.143   0.757  15.629 -0.8354  0.1672 -0.4284
 7095TIP3    H142700   0.219   0.709  15.665 -1.7285 -1.7278 -0.9192
 7095TIP3    H242701   0.155   0.847  15.659  1.8071  0.0273 -0.8104
 7096TIP3   OH242702   2.881   4.714   0.677 -0.0659  0.1558 -0.2175
 7096TIP3    H142703   2.860   4.775   0.747 -0.1262  2.6488 -2.2737
 7096TIP3    H242704   2.800   4.710   0.625  0.6211  0.0134 -1.2927
 7097TIP3   OH242705   4.524   3.382  12.556 -0.2198 -0.2348 -0.2173
 7097TIP3    H142706   4.444   3.387  12.608 -0.5661 -0.9376 -0.6691
 7097TIP3    H242707   4.564   3.299  12.583  2.0516  1.5449  2.3951
 7098TIP3   OH242708   3.769   5.360   5.695  1.0482 -0.3285  0.0293
 7098TIP3    H142709   3.816   5.278   5.710  2.3959  0.0345 -1.9344
 7098TIP3    H242710   3.682   5.344   5.731  1.8736 -1.8911  1.5181
 7099TIP3   OH242711   1.657   2.676  12.700 -0.0126  0.4227 -0.0659
 7099TIP3    H142712   1.716   2.648  12.631  1.1790  0.1839  1.0032
 7099TIP3    H242713   1.654   2.602  12.761 -0.4281  0.9008  0.5178
 7100TIP3   OH242714   4.780   2.086  13.992 -0.0070 -0.1835 -0.0055
 7100TIP3    H142715   4.769   2.054  14.082  0.9390  0.3509  0.3113
 7100TIP3    H242716   4.690   2.096  13.960 -0.3880  0.3897  1.1678
 7101TIP3   OH242717   1.418   0.456   5.503  0.1843 -0.0837 -0.1480
 7101TIP3    H142718   1.487   0.430   5.564 -0.1651 -0.8555 -0.0591
 7101TIP3    H242719   1.357   0.382   5.504 -0.1554  0.1742 -0.9459
 7102TIP3   OH242720   5.531   4.940  17.022 -0.0341 -0.3175 -0.2002
 7102TIP3    H142721   5.549   4.981  16.937 -1.0001 -1.0863 -0.7996
 7102TIP3    H242722   5.497   5.012  17.076  1.2119  0.3184 -0.2395
 7103TIP3   OH242723   4.729   5.885  14.932  0.4521  0.2360 -0.1940
 7103TIP3    H142724   4.765   5.945  14.997 -0.4527  1.4881 -0.8085
 7103TIP3    H242725   4.780   5.804  14.942 -0.3579 -0.0001  2.7625
 7104TIP3   OH242726   2.561   0.807  17.019 -0.1400 -0.5879  0.6576
 7104TIP3    H142727   2.640   0.778  16.972  0.0561  0.1378  0.5295
 7104TIP3    H242728   2.590   0.820  17.109 -0.2461 -0.8645  0.7323
 7105TIP3   OH242729   3.036   1.348  12.755  0.4788  0.2890 -0.1767
 7105TIP3    H142730   3.029   1.359  12.849 -2.7778 -0.7559 -0.1653
 7105TIP3    H242731   3.078   1.429  12.724  0.3703  1.2533  2.0402
 7106TIP3   OH242732   0.564   5.229  13.907  0.6061  0.3775  0.4620
 7106TIP3    H142733   0.483   5.193  13.942  0.4936  0.2598  0.0877
 7106TIP3    H242734   0.606   5.271  13.982 -1.4977  3.6465  0.0090
 7107TIP3   OH242735   2.142   6.474  12.823 -0.3744 -0.3799 -0.1058
 7107TIP3    H142736   2.183   6.525  12.893  1.7538 -2.6931  0.4591
 7107TIP3    H242737   2.214   6.425  12.783 -1.9128 -1.0255 -2.3130
 7108TIP3   OH242738   0.099   5.375   5.099  0.1509  0.1225  0.0410
 7108TIP3    H142739   0.037   5.437   5.136 -0.9777 -0.4308 -0.8504
 7108TIP3    H242740   0.051   5.333   5.027  1.2105 -1.0672 -0.0126
 7109TIP3   OH242741   1.745   1.853  13.171 -0.0017 -0.0932  0.4539
 7109TIP3    H142742   1.652   1.829  13.172 -0.0069 -0.3300 -1.2897
 7109TIP3    H242743   1.777   1.830  13.258 -1.4657 -0.4532  0.9313
 7110TIP3   OH242744   2.202   3.139   4.445  0.4500 -0.1214  0.1271
 7110TIP3    H142745   2.277   3.084   4.466  1.1450  1.1434  1.0853
 7110TIP3    H242746   2.135   3.114   4.509  1.9109  2.3973  2.8385
 7111TIP3   OH242747   1.965   1.906  12.029  0.0674 -0.2401 -0.5243
 7111TIP3    H142748   1.914   1.893  11.950 -0.4362 -4.9176  0.2749
 7111TIP3    H242749   2.053   1.877  12.007  1.3698  3.2262 -0.5617
 7112TIP3   OH242750   3.158   6.583  16.504  0.4940  0.4954  0.0472
 7112TIP3    H142751   3.158   6.495  16.541 -1.6136  0.7551  0.8253
 7112TIP3    H242752   3.224   6.581  16.435  2.2850 -0.9476  1.7093
 7113TIP3   OH242753   1.950   2.900  16.414 -0.3772 -0.1721  0.2715
 7113TIP3    H142754   2.002   2.956  16.356  0.1795  0.1867  1.0970
 7113TIP3    H242755   1.905   2.962  16.472 -0.3323 -0.5509  0.7124
 7114TIP3   OH242756   1.299   2.937  10.847 -0.0834  0.4573  0.1497
 7114TIP3    H142757   1.325   2.980  10.765 -1.5280 -0.7224 -0.9794
 7114TIP3    H242758   1.216   2.895  10.827 -0.5174  0.1913  2.2744
 7115TIP3   OH242759   3.385   6.057  11.918  0.0732 -0.5968  0.1253
 7115TIP3    H142760   3.313   6.008  11.878 -0.5598 -0.2649  0.8414
 7115TIP3    H242761   3.410   6.006  11.995  0.6841 -0.7674 -0.1790
 7116TIP3   OH242762   5.541   0.992  16.760 -0.1389  0.4261 -0.3237
 7116TIP3    H142763   5.453   0.969  16.729  0.9019 -1.7550 -1.9585
 7116TIP3    H242764   5.592   1.008  16.680  1.3312  0.0347  0.4917
 7117TIP3   OH242765   6.257   2.692   6.298  0.2293  0.1253  0.1859
 7117TIP3    H142766   6.235   2.781   6.269 -0.6470 -0.1586 -0.0647
 7117TIP3    H242767   6.215   2.635   6.233 -0.1466 -0.4878  0.9551
 7118TIP3   OH242768   5.983   1.762   4.417  0.5028 -0.1061 -0.1148
 7118TIP3    H142769   6.050   1.786   4.353 -0.4606 -0.0504 -1.1310
 7118TIP3    H242770   6.031   1.711   4.483  1.8867  1.4456  0.1533
 7119TIP3   OH242771   0.875   4.617  15.130  0.0518  0.6215  0.3080
 7119TIP3    H142772   0.787   4.582  15.133  0.5205 -0.5688  1.0195
 7119TIP3    H242773   0.931   4.540  15.117  1.0369  1.2441  0.7573
 7120TIP3   OH242774   1.267   4.623  12.498  0.2437  0.4411  0.0885
 7120TIP3    H142775   1.204   4.694  12.484  0.7405  0.7812 -0.4935
 7120TIP3    H242776   1.319   4.651  12.573  1.4984  1.4861 -1.1205
 7121TIP3   OH242777   6.746   4.623  16.212  0.1825 -0.3426 -0.4898
 7121TIP3    H142778   6.744   4.530  16.189 -0.0467 -0.6534  0.7091
 7121TIP3    H242779   6.655   4.645  16.229  0.4570 -0.4741  1.3321
 7122TIP3   OH242780   5.156   0.737  13.449  0.3684 -0.1349 -0.3737
 7122TIP3    H142781   5.074   0.717  13.494  0.4840  2.1842  1.0553
 7122TIP3    H242782   5.195   0.652  13.431 -0.0973 -1.2902  3.2908
 7123TIP3   OH242783   2.146   0.242  16.871  0.5785 -0.2971  0.5261
 7123TIP3    H142784   2.087   0.236  16.796 -0.5028  0.1441  1.3197
 7123TIP3    H242785   2.234   0.239  16.833  0.0828  1.8372 -0.9512
 7124TIP3   OH242786   1.280   4.482  15.372  0.5134 -0.7675 -0.2136
 7124TIP3    H142787   1.305   4.407  15.317  1.0745 -0.5513 -0.2562
 7124TIP3    H242788   1.197   4.455  15.412  2.2711 -2.8062  2.3455
 7125TIP3   OH242789   4.688   1.330   5.880  0.0450  0.2043  0.3244
 7125TIP3    H142790   4.672   1.403   5.940 -0.2794  0.5252 -0.1413
 7125TIP3    H242791   4.736   1.266   5.932 -2.9557 -0.9470  1.9325
 7126TIP3   OH242792   4.514   1.217   0.759  0.0004 -0.4034 -0.4817
 7126TIP3    H142793   4.570   1.224   0.836  0.1921 -1.7259 -0.4733
 7126TIP3    H242794   4.432   1.180   0.793 -0.4197  0.3258 -0.6947
 7127TIP3   OH242795   2.142   0.896   0.713 -0.4523  0.6546 -0.1534
 7127TIP3    H142796   2.151   0.835   0.786  0.0268  0.8003 -0.0862
 7127TIP3    H242797   2.121   0.841   0.638 -1.3249  0.5387  0.1604
 7128TIP3   OH242798   6.566   4.013  15.932 -0.0164  0.5808  0.2376
 7128TIP3    H142799   6.501   4.073  15.895  0.8585  1.6586  0.3588
 7128TIP3    H242800   6.648   4.040  15.890  0.4259 -0.4336  0.4332
 7129TIP3   OH242801   0.196   4.691   0.763 -0.5319  0.1416 -0.2788
 7129TIP3    H142802   0.136   4.705   0.690  0.4668 -0.6519 -1.2782
 7129TIP3    H242803   0.255   4.766   0.760  0.1338 -0.3996 -0.9273
 7130TIP3   OH242804   5.901   2.928  17.172 -0.1516  0.2970 -0.0631
 7130TIP3    H142805   5.957   2.974  17.110 -1.4977  0.5465 -1.1668
 7130TIP3    H242806   5.901   2.837  17.141 -0.5981  0.3654 -0.2785
 7131TIP3   OH242807   3.653   2.272  11.579 -0.1788  0.2286 -0.9170
 7131TIP3    H142808   3.591   2.264  11.507 -3.9913 -0.2030  2.0524
 7131TIP3    H242809   3.625   2.350  11.626  0.1163 -1.0999  1.6861
 7132TIP3   OH242810   3.199   1.960  15.792  0.0765 -0.3256  0.2739
 7132TIP3    H142811   3.269   1.922  15.737 -1.3318 -1.8534 -0.5443
 7132TIP3    H242812   3.119   1.921  15.758 -1.5939  3.6380 -0.8223
 7133TIP3   OH242813   0.795   2.417   4.992  0.2417 -0.1087 -0.0728
 7133TIP3    H142814   0.836   2.342   4.949 -0.2994 -0.8125  0.6102
 7133TIP3    H242815   0.701   2.399   4.987  0.1605 -0.0957  1.1770
 7134TIP3   OH242816   4.322   5.045   4.323 -0.3069  0.3492  0.3519
 7134TIP3    H142817   4.320   5.054   4.418 -1.4576 -1.6432  0.5656
 7134TIP3    H242818   4.246   5.094   4.293  0.0867  1.0256  0.4268
 7135TIP3   OH242819   1.805   4.373  11.797  0.1602 -0.2095 -0.0856
 7135TIP3    H142820   1.735   4.439  11.792 -2.6010 -2.9198 -0.3229
 7135TIP3    H242821   1.851   4.382  11.713 -1.7222 -0.1053 -1.1797
 7136TIP3   OH242822   4.894   0.652  15.968  0.2454 -0.2960 -0.2621
 7136TIP3    H142823   4.945   0.572  15.958 -0.6577 -1.2010  1.7392
 7136TIP3    H242824   4.941   0.702  16.035  0.0917  0.2337 -0.5446
 7137TIP3   OH242825   3.210   5.839   0.138 -0.0115  0.3744 -0.0639
 7137TIP3    H142826   3.292   5.789   0.133 -0.3306 -0.0767 -0.9633
 7137TIP3    H242827   3.238   5.930   0.143  0.5641  0.1653  0.9688
 7138TIP3   OH242828   6.020   4.587   1.673  0.5144  0.0610  0.0093
 7138TIP3    H142829   6.076   4.535   1.730 -0.3190 -1.5478 -0.5748
 7138TIP3    H242830   5.931   4.573   1.707  0.0966 -0.2745 -1.1752
 7139TIP3   OH242831   4.890   5.176  13.513 -0.1658 -0.9909 -0.2160
 7139TIP3    H142832   4.823   5.243  13.498  0.3892 -0.0682  1.2300
 7139TIP3    H242833   4.884   5.156  13.607  2.1077 -0.2766  0.1307
 7140TIP3   OH242834   1.383   5.399  12.344  0.6847  0.2365  0.0927
 7140TIP3    H142835   1.445   5.346  12.292  1.0343  0.8464 -0.1231
 7140TIP3    H242836   1.394   5.488  12.311  1.9512  0.9194  2.1415
 7141TIP3   OH242837   0.930   2.007  15.408  0.2078 -0.2076 -0.5366
 7141TIP3    H142838   0.978   2.072  15.461 -1.1765  0.4859 -0.0856
 7141TIP3    H242839   0.918   2.050  15.324 -1.9461  0.7895  0.1937
 7142TIP3   OH242840   3.381   5.839   4.628  0.2711  0.1729 -0.6456
 7142TIP3    H142841   3.431   5.919   4.643 -0.2535  1.1969 -3.6787
 7142TIP3    H242842   3.403   5.813   4.539  0.3978 -3.1238  0.2245
 7143TIP3   OH242843   2.127   1.394  14.690  0.5557 -0.7620 -0.5631
 7143TIP3    H142844   2.199   1.437  14.644  0.4511 -1.6547 -1.5842
 7143TIP3    H242845   2.079   1.347  14.622 -0.4045 -1.0058  0.2584
 7144TIP3   OH242846   2.915   2.902   3.891 -0.2576 -0.2781  0.1986
 7144TIP3    H142847   2.980   2.967   3.864  0.1611 -1.4207 -1.7610
 7144TIP3    H242848   2.954   2.860   3.968 -0.7463  2.0101  1.7889
 7145TIP3   OH242849   3.173   1.784  16.880 -0.0678  0.3028 -0.4069
 7145TIP3    H142850   3.266   1.775  16.860  0.2848  2.2282  0.2136
 7145TIP3    H242851   3.148   1.697  16.913  1.5618 -0.1777 -0.3312
 7146TIP3   OH242852   3.003   4.373   0.614  0.0358  0.1053 -0.3911
 7146TIP3    H142853   2.961   4.299   0.572  0.4853  0.8335 -2.2237
 7146TIP3    H242854   2.931   4.428   0.645 -0.3274 -0.2058 -0.6795
 7147TIP3   OH242855   3.859   5.133  11.987  0.3924  0.3927  0.5775
 7147TIP3    H142856   3.919   5.199  11.952 -0.9662  0.6295 -1.4954
 7147TIP3    H242857   3.781   5.182  12.011 -0.4553 -0.3871 -0.5290
 7148TIP3   OH242858   6.497   5.854   0.517 -0.5155  0.2427 -0.1405
 7148TIP3    H142859   6.558   5.882   0.448  1.7955  0.5998  1.9118
 7148TIP3    H242860   6.428   5.807   0.470  1.5267 -0.5326 -2.5981
 7149TIP3   OH242861   1.276   1.749   5.943 -0.3390 -0.0585  0.4708
 7149TIP3    H142862   1.271   1.844   5.959 -0.1970  0.0164  0.0707
 7149TIP3    H242863   1.256   1.710   6.028  0.7671  0.3515  0.9393
 7150TIP3   OH242864   3.070   2.724  12.082  0.1129  0.2684  0.3890
 7150TIP3    H142865   2.976   2.737  12.094  0.1315 -1.3296  3.1702
 7150TIP3    H242866   3.081   2.629  12.082  1.6135  0.4058 -1.2921
 7151TIP3   OH242867   0.611   5.280   5.146 -0.2059  0.1699  0.5899
 7151TIP3    H142868   0.521   5.288   5.177 -0.9080  0.4274 -1.4286
 7151TIP3    H242869   0.623   5.353   5.086  0.8457 -0.7431 -0.3474
 7152TIP3   OH242870   6.419   3.941  15.579 -0.4508 -1.0046  0.1714
 7152TIP3    H142871   6.395   4.029  15.550  1.4734 -0.2132  0.8151
 7152TIP3    H242872   6.336   3.898  15.597 -1.5024  0.1106 -1.7295
 7153TIP3   OH242873   4.716   0.395  16.878 -0.5255  0.1889  0.1442
 7153TIP3    H142874   4.749   0.459  16.815  0.8023 -0.3880  0.2165
 7153TIP3    H242875   4.643   0.352  16.833  1.5083 -1.4834 -1.8022
 7154TIP3   OH242876   5.787   3.045   2.739  0.2033 -0.6818 -0.4076
 7154TIP3    H142877   5.867   2.994   2.750  0.6396 -0.1931 -1.2129
 7154TIP3    H242878   5.818   3.134   2.719 -0.5371 -0.2859  0.1484
 7155TIP3   OH242879   0.172   6.281  15.405 -0.5174 -0.5257 -0.1625
 7155TIP3    H142880   0.174   6.367  15.363 -1.5113  0.2857  1.3577
 7155TIP3    H242881   0.149   6.220  15.335  1.2185  0.2695 -1.4904
 7156TIP3   OH242882   4.346   0.370  11.792  0.1219 -0.7053  0.4021
 7156TIP3    H142883   4.401   0.448  11.794  0.1247 -0.6880 -0.1176
 7156TIP3    H242884   4.408   0.297  11.784  0.0926 -0.7182  0.2907
 7157TIP3   OH242885   1.507   2.371  16.694 -0.5020 -0.2765  0.1136
 7157TIP3    H142886   1.597   2.360  16.725 -0.6831  0.0727  0.7747
 7157TIP3    H242887   1.453   2.370  16.773 -1.1977 -1.5318 -0.3556
 7158TIP3   OH242888   5.454   1.159  14.924  0.1128 -0.0668 -0.4632
 7158TIP3    H142889   5.447   1.213  15.003  0.5242 -1.5907  0.6665
 7158TIP3    H242890   5.537   1.185  14.884  1.8684 -1.9260  1.7451
 7159TIP3   OH242891   5.233   4.502   1.147  0.2570  0.0347 -0.2381
 7159TIP3    H142892   5.308   4.445   1.130 -0.3675 -1.4026  1.5464
 7159TIP3    H242893   5.159   4.459   1.104 -0.0339  0.0326  0.2559
 7160TIP3   OH242894   5.280   2.834   0.696  0.2111  0.0507 -0.3567
 7160TIP3    H142895   5.314   2.840   0.785 -0.0654  1.2866 -0.3175
 7160TIP3    H242896   5.185   2.842   0.705  0.1495 -0.2489 -0.7229
 7161TIP3   OH242897   5.060   1.241   2.781  0.0915 -0.2049 -0.0133
 7161TIP3    H142898   5.008   1.188   2.720 -0.6299  1.7673 -1.2473
 7161TIP3    H242899   5.133   1.273   2.728  0.2616  0.3581  0.5475
 7162TIP3   OH242900   6.136   4.239  16.938 -0.3610  0.8081  0.2901
 7162TIP3    H142901   6.180   4.160  16.908 -1.0400 -0.0014  1.3685
 7162TIP3    H242902   6.174   4.309  16.885  1.2717 -0.0352  0.2941
 7163TIP3   OH242903   6.290   5.099  17.007 -0.3623  0.2091  0.5978
 7163TIP3    H142904   6.347   5.025  16.988  0.2611  0.6101  0.8597
 7163TIP3    H242905   6.329   5.173  16.961 -1.3337  0.2657 -0.1876
 7164TIP3   OH242906   2.066   5.548  14.565 -0.0304 -0.1555  0.0050
 7164TIP3    H142907   2.034   5.637  14.583 -0.7414 -0.5416  0.7080
 7164TIP3    H242908   2.032   5.528  14.477  0.4904  0.4116 -0.3385
 7165TIP3   OH242909   3.340   4.776   6.224 -0.2479 -0.4020  0.3361
 7165TIP3    H142910   3.293   4.852   6.189  0.4223  0.4744  1.2845
 7165TIP3    H242911   3.430   4.805   6.233 -0.0378 -1.2208  1.0101
 7166TIP3   OH242912   2.148   6.672  12.509 -0.5556 -0.2514 -0.0037
 7166TIP3    H142913   2.088   6.600  12.490  0.1521 -0.8861  0.1387
 7166TIP3    H242914   2.234   6.631  12.514 -0.2210  0.5147  0.6690
 7167TIP3   OH242915   0.380   0.268  15.988  0.2842  0.5296 -1.0825
 7167TIP3    H142916   0.450   0.241  16.047 -0.2889 -1.9564 -1.4354
 7167TIP3    H242917   0.312   0.304  16.045 -0.2999 -1.9062 -0.1077
 7168TIP3   OH242918   5.896   3.516  11.146 -0.1520 -0.5737 -0.2911
 7168TIP3    H142919   5.811   3.545  11.113 -0.7027  0.9419  2.2148
 7168TIP3    H242920   5.959   3.545  11.080 -1.2733  1.4450 -0.5519
 7169TIP3   OH242921   5.262   5.172   6.389 -0.0763  0.0971 -0.2709
 7169TIP3    H142922   5.245   5.261   6.359 -1.5962  0.5013  1.5540
 7169TIP3    H242923   5.216   5.116   6.326 -0.7249  0.7265 -0.3734
 7170TIP3   OH242924   2.286   5.739   0.643 -0.1249 -0.2831  0.3063
 7170TIP3    H142925   2.338   5.771   0.569  1.4453 -3.1272  0.0446
 7170TIP3    H242926   2.224   5.810   0.661 -0.0982  0.8427 -3.2606
 7171TIP3   OH242927   1.302   3.736  14.236 -0.7794  0.1741  0.4437
 7171TIP3    H142928   1.248   3.739  14.157 -1.3986  3.1481  0.8755
 7171TIP3    H242929   1.366   3.667  14.219 -0.8674  0.7325 -2.6778
 7172TIP3   OH242930   1.773   3.631   2.374 -0.2887  0.1104  0.1222
 7172TIP3    H142931   1.861   3.655   2.346  0.4833 -0.7814  1.6154
 7172TIP3    H242932   1.766   3.665   2.463 -0.5245 -1.8696  0.9121
 7173TIP3   OH242933   3.529   2.846   3.660  0.0499  0.2074 -0.0759
 7173TIP3    H142934   3.569   2.899   3.728  0.0524  0.3086 -0.1558
 7173TIP3    H242935   3.440   2.830   3.691  0.4095 -0.7584  0.5231
 7174TIP3   OH242936   0.351   0.647   2.852 -0.3599  0.3843  0.0660
 7174TIP3    H142937   0.332   0.734   2.887 -0.6154  0.9902 -1.5075
 7174TIP3    H242938   0.414   0.663   2.782 -3.4752 -0.0920 -3.0983
 7175TIP3   OH242939   4.790   1.434   3.612  0.2954 -0.0071 -0.4307
 7175TIP3    H142940   4.716   1.406   3.667  0.6434 -0.0013  0.0477
 7175TIP3    H242941   4.848   1.481   3.673  0.5156  0.3079 -0.8800
 7176TIP3   OH242942   3.636   4.513  17.028  0.4110 -0.2623  0.1980
 7176TIP3    H142943   3.651   4.422  17.001 -1.4425 -0.2472 -1.0957
 7176TIP3    H242944   3.568   4.507  17.095 -1.9831  0.2677 -2.0279
 7177TIP3   OH242945   6.216   2.941  15.617 -0.2120 -0.3512  0.2230
 7177TIP3    H142946   6.295   2.891  15.634 -0.5120 -0.4860  1.3043
 7177TIP3    H242947   6.246   3.019  15.569  0.3160 -1.2904 -1.0051
 7178TIP3   OH242948   4.794   4.755   6.451 -0.0272  0.0394  0.1969
 7178TIP3    H142949   4.765   4.846   6.450 -0.1560  0.0064 -1.1178
 7178TIP3    H242950   4.725   4.707   6.405  0.3381 -0.6296  0.3238
 7179TIP3   OH242951   3.960   6.660   0.537  0.8857  0.8596 -0.6798
 7179TIP3    H142952   3.910   6.661   0.619  0.7107  0.0603 -0.7664
 7179TIP3    H242953   4.051   6.648   0.565  0.6831 -0.7246 -0.6476
 7180TIP3   OH242954   0.353   5.175   1.078  0.3853  0.3156 -0.2461
 7180TIP3    H142955   0.272   5.165   1.126  0.6109 -2.3014 -0.2534
 7180TIP3    H242956   0.327   5.172   0.986  0.3318  1.3935 -0.2759
 7181TIP3   OH242957   6.296   5.178   5.263 -0.1711  0.0091  0.0007
 7181TIP3    H142958   6.221   5.152   5.209 -0.7052 -0.1418  0.7963
 7181TIP3    H242959   6.344   5.241   5.209 -0.7057 -0.1156 -0.6355
 7182TIP3   OH242960   6.078   3.992  14.493 -0.1597 -0.8260  0.1810
 7182TIP3    H142961   6.165   3.989  14.534 -1.0947 -0.3224  2.3454
 7182TIP3    H242962   6.027   4.051  14.549 -1.6170 -0.2849 -1.6332
 7183TIP3   OH242963   3.512   0.064   1.161  0.1156 -0.4799  0.4951
 7183TIP3    H142964   3.511   0.093   1.252  0.5956  0.3932  0.2247
 7183TIP3    H242965   3.497   0.143   1.110  1.3804 -0.6998 -0.2517
 7184TIP3   OH242966   5.004   2.171   1.043  0.6793  0.3659  0.1809
 7184TIP3    H142967   4.968   2.088   1.073 -0.3499  0.5784 -0.4040
 7184TIP3    H242968   5.075   2.190   1.104  0.7501 -0.8005  0.4837
 7185TIP3   OH242969   3.731   4.083  11.494 -0.3883 -0.0612 -0.3509
 7185TIP3    H142970   3.810   4.054  11.449 -0.3718 -0.6117  0.0145
 7185TIP3    H242971   3.691   4.147  11.435  0.7993  0.8975 -0.1293
 7186TIP3   OH242972   2.333   2.656  17.119 -0.0735  0.4314  0.0197
 7186TIP3    H142973   2.359   2.567  17.098  2.1810  1.2707 -1.0630
 7186TIP3    H242974   2.255   2.672  17.067 -1.6329 -1.4610  1.6450
 7187TIP3   OH242975   1.082   2.630  12.381 -0.1165 -0.1998  0.2323
 7187TIP3    H142976   1.052   2.545  12.414  0.2766 -0.7202 -0.6911
 7187TIP3    H242977   1.135   2.608  12.304 -0.0241  0.8883 -0.0318
 7188TIP3   OH242978   5.011   0.094   3.248  0.4324  0.3969 -0.4815
 7188TIP3    H142979   4.916   0.108   3.251  0.1041 -1.3991 -1.2986
 7188TIP3    H242980   5.048   0.181   3.231 -1.1206  0.9601 -1.1194
 7189TIP3   OH242981   6.372   3.081   4.388 -0.2747 -0.2261 -0.0425
 7189TIP3    H142982   6.292   3.030   4.401 -0.9732  1.2288  1.8949
 7189TIP3    H242983   6.429   3.054   4.459  0.1999  0.1457 -0.2766
 7190TIP3   OH242984   1.519   4.409  12.902 -0.0678 -0.3140  0.1489
 7190TIP3    H142985   1.592   4.366  12.947 -0.0145 -0.4366 -0.0551
 7190TIP3    H242986   1.466   4.337  12.868 -0.6223 -0.2341  0.8304
 7191TIP3   OH242987   3.486   0.068   4.998  0.1647 -0.1189 -0.1750
 7191TIP3    H142988   3.413   0.078   4.937  0.5884 -0.7792 -0.8036
 7191TIP3    H242989   3.472   0.137   5.064 -2.9123 -2.2750  1.6753
 7192TIP3   OH242990   3.704   5.435   4.458  0.3648 -0.2797 -0.5302
 7192TIP3    H142991   3.759   5.368   4.418 -0.0279 -2.1698  1.8746
 7192TIP3    H242992   3.660   5.391   4.530 -0.2132  2.4669  0.9668
 7193TIP3   OH242993   5.454   0.348  16.603  0.6118  0.4288 -0.1600
 7193TIP3    H142994   5.405   0.338  16.685  0.1905  1.8104 -0.2286
 7193TIP3    H242995   5.544   0.364  16.631  0.0763  3.3319  0.1656
 7194TIP3   OH242996   2.359   2.595  14.307 -0.0348  0.4870  0.0254
 7194TIP3    H142997   2.288   2.531  14.301  0.3079  0.2214 -1.4324
 7194TIP3    H242998   2.419   2.558  14.371 -0.7133  0.2268  0.5266
 7195TIP3   OH242999   2.377   1.988  12.419  0.1571 -0.5429  0.4975
 7195TIP3    H143000   2.325   2.006  12.341 -1.2058 -0.4430  1.3997
 7195TIP3    H243001   2.450   1.934  12.387 -1.2982 -1.9424 -0.5685
 7196TIP3   OH243002   4.680   5.534   4.711  0.1521 -0.6877 -0.1895
 7196TIP3    H143003   4.674   5.575   4.624 -0.5041 -0.5042 -0.0627
 7196TIP3    H243004   4.589   5.529   4.741  0.4475  0.0622  0.8673
 7197TIP3   OH243005   2.910   4.466  11.347  0.0717 -0.0924 -0.6312
 7197TIP3    H143006   2.938   4.504  11.264 -0.4324  1.3076 -0.1904
 7197TIP3    H243007   2.816   4.483  11.351  0.2064  0.4862  0.5293
 7198TIP3   OH243008   1.037   2.076   4.482 -0.1994  0.0946 -0.0240
 7198TIP3    H143009   1.063   2.165   4.505 -0.4833  0.3169 -0.5418
 7198TIP3    H243010   0.944   2.083   4.461  0.3702  0.2552 -2.8686
 7199TIP3   OH243011   1.642   6.305   3.345  0.5320  0.3632  0.1255
 7199TIP3    H143012   1.582   6.378   3.330 -0.2387 -0.3549 -0.3592
 7199TIP3    H243013   1.728   6.338   3.318  0.1347  0.9787 -0.4080
 7200TIP3   OH243014   0.853   4.518   5.402 -0.3818 -0.2723 -0.2944
 7200TIP3    H143015   0.858   4.467   5.321  1.7330  0.1321 -0.4653
 7200TIP3    H243016   0.893   4.463   5.469  2.9193  1.3985 -0.6906
 7201TIP3   OH243017   3.600   0.155  11.716  0.1356  0.3901 -0.2470
 7201TIP3    H143018   3.557   0.237  11.692  0.4310  1.1371  1.6389
 7201TIP3    H243019   3.534   0.088  11.702 -0.7156  1.1737 -0.0563
 7202TIP3   OH243020   6.458   0.476   4.234  0.2679  0.1257  0.7976
 7202TIP3    H143021   6.512   0.491   4.311  2.0438 -0.1558 -0.3349
 7202TIP3    H243022   6.375   0.443   4.268  0.8762  0.3665  2.5824
 7203TIP3   OH243023   0.054   0.571   2.710 -0.2462  0.4414  0.1194
 7203TIP3    H143024   0.104   0.650   2.732 -1.7050  0.9902  1.5772
 7203TIP3    H243025   0.112   0.522   2.651  1.7116  1.3954  1.1695
 7204TIP3   OH243026   5.115   5.958   4.759  0.3837 -0.0953 -0.4410
 7204TIP3    H143027   5.022   5.972   4.739 -0.2223 -0.2272  2.0402
 7204TIP3    H243028   5.161   6.017   4.699 -1.3947  1.2566 -0.5473
 7205TIP3   OH243029   5.485   0.893   4.931  0.2167 -0.1800  0.2773
 7205TIP3    H143030   5.562   0.944   4.904  0.1046 -1.0921 -1.9895
 7205TIP3    H243031   5.471   0.831   4.859 -1.2473 -1.6289  1.7161
 7206TIP3   OH243032   0.349   4.354   1.296 -0.0292  0.2730  0.0153
 7206TIP3    H143033   0.381   4.414   1.229 -0.5702 -1.0434 -1.5010
 7206TIP3    H243034   0.422   4.294   1.311  0.1426  0.6582  0.7285
 7207TIP3   OH243035   4.770   3.428   0.585 -0.1040 -0.5522  0.1085
 7207TIP3    H143036   4.798   3.404   0.674  1.2040 -0.3322 -0.2237
 7207TIP3    H243037   4.705   3.497   0.598  1.8405  1.2275  0.8730
 7208TIP3   OH243038   3.732   3.006  14.613 -0.3909 -0.3192 -0.4491
 7208TIP3    H143039   3.777   3.078  14.569 -0.8033  0.5075  0.4415
 7208TIP3    H243040   3.670   2.973  14.548  0.8748 -0.9279 -1.4007
 7209TIP3   OH243041   1.842   5.534  16.337 -0.2997 -0.1246 -0.2528
 7209TIP3    H143042   1.771   5.499  16.392 -0.7728  0.4093 -0.5157
 7209TIP3    H243043   1.919   5.532  16.394 -1.0792  1.8588  0.9921
 7210TIP3   OH243044   3.658   2.549   3.803 -0.1075 -0.3747 -0.5619
 7210TIP3    H143045   3.639   2.607   3.876  2.7407 -2.6708  2.2393
 7210TIP3    H243046   3.728   2.592   3.755 -0.3136  0.0203 -0.5097
 7211TIP3   OH243047   4.127   3.127   3.463  0.8600 -0.2159  0.2102
 7211TIP3    H143048   4.176   3.187   3.407 -0.0857  1.2186  0.8248
 7211TIP3    H243049   4.069   3.185   3.514  0.4337 -1.6104  1.3778
 7212TIP3   OH243050   0.009   1.031   4.634  0.5766  0.0943  0.1990
 7212TIP3    H143051  -0.084   1.048   4.618  0.7264  0.9833  0.2185
 7212TIP3    H243052   0.040   0.992   4.552  0.3112  0.3302 -0.0169
 7213TIP3   OH243053   4.293   0.584  14.878  0.3052  0.0063 -0.0568
 7213TIP3    H143054   4.225   0.523  14.851 -1.1165 -0.0791  3.2373
 7213TIP3    H243055   4.369   0.529  14.894 -0.7726 -0.9458  2.2659
 7214TIP3   OH243056   5.550   5.392   6.555  0.3087  0.1196 -0.6939
 7214TIP3    H143057   5.475   5.378   6.613 -0.0649 -0.5824 -1.3240
 7214TIP3    H243058   5.569   5.305   6.518  0.4011  0.5801 -1.7749
 7215TIP3   OH243059   1.155   4.193   5.760  0.1520 -0.8048 -0.5089
 7215TIP3    H143060   1.071   4.235   5.743 -0.5225 -1.7252  0.3617
 7215TIP3    H243061   1.198   4.251   5.823 -0.4381 -1.0027  0.0972
 7216TIP3   OH243062   0.834   5.867   1.923  0.4338  0.1919 -0.5764
 7216TIP3    H143063   0.775   5.811   1.873 -0.4723  0.6331 -0.0134
 7216TIP3    H243064   0.867   5.931   1.859  0.6174 -0.2990 -0.9758
 7217TIP3   OH243065   4.980   1.525   4.093 -0.1868  0.3007 -0.0779
 7217TIP3    H143066   5.006   1.499   4.182 -1.2775 -0.4108  0.0437
 7217TIP3    H243067   4.997   1.620   4.091 -0.1216  0.3236  0.8773
 7218TIP3   OH243068   5.414   4.772  12.454 -0.2386 -0.0405 -0.3535
 7218TIP3    H143069   5.454   4.685  12.462 -0.1990  0.1425  1.9352
 7218TIP3    H243070   5.337   4.757  12.400 -0.2084 -1.5000 -0.0587
 7219TIP3   OH243071   1.595   5.981  16.870 -0.4901 -0.2842  0.4333
 7219TIP3    H143072   1.651   6.000  16.945 -0.9596  0.8447  0.5237
 7219TIP3    H243073   1.656   5.957  16.800  0.1095  0.7314  0.5848
 7220TIP3   OH243074   2.751   1.452  11.441 -0.4998  0.0007 -0.3074
 7220TIP3    H143075   2.800   1.457  11.524 -1.5336  2.0729  0.2365
 7220TIP3    H243076   2.687   1.382  11.456 -0.2902 -0.0492  0.4290
 7221TIP3   OH243077   5.151   3.503  13.893  0.3452 -0.0479  0.6591
 7221TIP3    H143078   5.209   3.577  13.915  1.1986 -0.3502 -0.4886
 7221TIP3    H243079   5.201   3.426  13.918 -0.1832 -0.2769  1.0248
 7222TIP3   OH243080   4.072   5.227   1.929  0.2837  0.1676  0.5764
 7222TIP3    H143081   4.132   5.170   1.882  0.9932  2.6097 -1.7336
 7222TIP3    H243082   4.127   5.275   1.991  0.4635  1.1618 -0.3227
 7223TIP3   OH243083   2.889   4.456   4.330  0.3992 -0.3423 -0.0584
 7223TIP3    H143084   2.948   4.384   4.355  0.8122  0.3607  1.0649
 7223TIP3    H243085   2.845   4.424   4.251  2.0073 -1.0374 -0.7132
 7224TIP3   OH243086   4.314   5.516   1.873  0.0908  0.8853  0.1904
 7224TIP3    H143087   4.276   5.452   1.812  1.4003  1.6575 -1.5193
 7224TIP3    H243088   4.278   5.492   1.958 -1.1115 -0.8057 -0.7314
 7225TIP3   OH243089   6.009   1.352  16.809  0.2879 -0.1699  0.2218
 7225TIP3    H143090   5.962   1.366  16.727 -0.5507 -0.3269  0.6713
 7225TIP3    H243091   6.003   1.258  16.825  0.7098 -0.1851  0.3192
 7226TIP3   OH243092   3.669   5.195   2.720 -0.0815  0.1230  0.0015
 7226TIP3    H143093   3.581   5.233   2.716 -0.2242 -0.2896 -1.0139
 7226TIP3    H243094   3.707   5.213   2.635 -0.6049 -3.0274 -1.0248
 7227TIP3   OH243095   2.480   2.158  11.763 -0.0898 -0.4774 -0.1238
 7227TIP3    H143096   2.427   2.085  11.731  0.9463 -1.5338  0.4960
 7227TIP3    H243097   2.569   2.136  11.735  0.2526  0.5324  0.1335
 7228TIP3   OH243098   0.301   6.636   2.946  0.0003 -0.2191 -0.3264
 7228TIP3    H143099   0.244   6.672   3.014  2.7361 -0.1931  2.1681
 7228TIP3    H243100   0.348   6.713   2.912  0.5312 -0.5424 -0.3292
 7229TIP3   OH243101   4.528   2.443  16.183 -0.1824  0.5228 -0.3628
 7229TIP3    H143102   4.620   2.417  16.183  0.3665  2.2028  1.7635
 7229TIP3    H243103   4.525   2.519  16.125  0.1325  1.4303  0.7680
 7230TIP3   OH243104   1.746   3.370  14.285  0.7045 -0.0281  0.5950
 7230TIP3    H143105   1.772   3.447  14.235  0.0922  0.9536  1.7155
 7230TIP3    H243106   1.741   3.299  14.221  0.6329  1.0167 -0.5843
 7231TIP3   OH243107   6.584   4.302  14.931 -0.2581 -0.2880 -0.4003
 7231TIP3    H143108   6.531   4.225  14.953  0.8322 -0.8959  0.1864
 7231TIP3    H243109   6.590   4.351  15.013 -1.1935  0.6042 -0.8397
 7232TIP3   OH243110   3.264   5.225  16.684  0.1604  0.1720  0.8030
 7232TIP3    H143111   3.243   5.236  16.591  0.6719 -1.6387  0.4388
 7232TIP3    H243112   3.222   5.300  16.726 -1.8375 -0.0380 -0.6389
 7233TIP3   OH243113   2.235   4.174  10.685  0.3591  0.5170 -0.0045
 7233TIP3    H143114   2.188   4.173  10.769  2.1584  0.7476  1.0480
 7233TIP3    H243115   2.191   4.242  10.634 -1.0906  0.0205  0.5397
 7234TIP3   OH243116   3.014   0.080  10.689 -0.1812  0.4459  0.1848
 7234TIP3    H143117   3.003   0.161  10.639  0.0412  2.1572  2.7266
 7234TIP3    H243118   3.109   0.066  10.690 -0.0813  1.0769  1.0315
 7235TIP3   OH243119   1.661   4.984  10.660  0.4211 -0.1255  0.0031
 7235TIP3    H143120   1.569   5.010  10.665 -0.0870 -1.1020 -2.7131
 7235TIP3    H243121   1.710   5.064  10.681 -1.0222  0.5484  0.9295
 7236TIP3   OH243122   4.222   1.647  12.896  0.1560 -0.0876 -0.3572
 7236TIP3    H143123   4.183   1.675  12.813 -0.8861 -0.7690 -0.1142
 7236TIP3    H243124   4.300   1.703  12.906  0.4633 -0.2008 -1.9225
 7237TIP3   OH243125   6.103   2.220   0.732 -0.0326  0.1320  0.1516
 7237TIP3    H143126   6.117   2.252   0.821 -0.1067  2.8820 -0.7085
 7237TIP3    H243127   6.154   2.280   0.677 -1.0958 -0.6104 -1.7386
 7238TIP3   OH243128   4.819   5.697  13.221 -0.0201 -0.0906  0.0277
 7238TIP3    H143129   4.914   5.697  13.214  0.0690 -0.0943  1.0628
 7238TIP3    H243130   4.794   5.788  13.204  0.1202 -0.1801 -0.6908
 7239TIP3   OH243131   6.578   1.067   4.871 -0.2220  0.1239 -0.0365
 7239TIP3    H143132   6.527   0.989   4.889  0.2011 -0.7164 -2.1583
 7239TIP3    H243133   6.669   1.040   4.884  0.1424 -0.6468 -3.2987
 7240TIP3   OH243134   4.267   1.713  13.476 -0.2944 -0.5747  0.0014
 7240TIP3    H143135   4.202   1.682  13.540 -0.5898  1.1178  0.5842
 7240TIP3    H243136   4.309   1.788  13.520  0.0683  0.1168 -1.4712
 7241TIP3   OH243137   3.721   0.110  14.251 -0.0615  0.4204 -0.2704
 7241TIP3    H143138   3.748   0.059  14.175  2.7120 -0.2233  1.0195
 7241TIP3    H243139   3.759   0.065  14.325  0.2571  2.9130  1.2085
 7242TIP3   OH243140   5.594   5.683   6.742  0.0776 -0.5736  0.5873
 7242TIP3    H143141   5.545   5.695   6.661  0.8705 -2.0447 -0.1600
 7242TIP3    H243142   5.527   5.672   6.809 -0.7391 -3.4209 -0.5469
 7243TIP3   OH243143   4.648   2.771  15.270 -0.0671 -0.5794  0.3904
 7243TIP3    H143144   4.611   2.686  15.293 -1.8176 -0.0207 -0.1761
 7243TIP3    H243145   4.573   2.822  15.238  0.8086  1.3829  1.2698
 7244TIP3   OH243146   3.076   0.257   5.593 -0.2215 -0.0644  0.1846
 7244TIP3    H143147   2.991   0.264   5.637 -0.4924  0.2653 -0.3747
 7244TIP3    H243148   3.059   0.289   5.504  0.8319  1.4431  0.4996
 7245TIP3   OH243149   1.874   6.632   5.879 -0.6821 -0.2226  0.5411
 7245TIP3    H143150   1.962   6.644   5.914 -1.1032 -1.8333  2.3283
 7245TIP3    H243151   1.887   6.622   5.784  0.8497  1.1724  0.5688
 7246TIP3   OH243152   1.496   5.429   0.752  0.0185 -0.3323 -0.1094
 7246TIP3    H143153   1.583   5.397   0.729 -0.2839 -1.5451  0.3847
 7246TIP3    H243154   1.505   5.525   0.753  0.8062 -0.3540 -2.1258
 7247TIP3   OH243155   5.281   3.997  15.459 -0.1974 -0.3600  0.0230
 7247TIP3    H143156   5.271   4.026  15.368 -0.4272 -0.5591 -0.0162
 7247TIP3    H243157   5.375   3.984  15.470 -0.2423 -1.1545 -0.4409
 7248TIP3   OH243158   3.239   3.901   5.114  0.2911 -0.2471  0.0034
 7248TIP3    H143159   3.276   3.853   5.188  0.2891  1.0208  0.8774
 7248TIP3    H243160   3.191   3.974   5.155 -1.6941 -0.8154 -1.1559
 7249TIP3   OH243161   3.659   6.412  13.678 -0.0176  0.1075  0.2245
 7249TIP3    H143162   3.620   6.356  13.611 -0.0533 -0.4303  0.6824
 7249TIP3    H243163   3.584   6.456  13.718 -0.2691 -1.3634  1.4987
 7250TIP3   OH243164   0.077   6.160  16.421  0.3784  0.5326  0.0157
 7250TIP3    H143165   0.093   6.146  16.327  0.5137  0.9680 -0.0277
 7250TIP3    H243166   0.010   6.228  16.424 -0.9708 -0.7542  0.2195
 7251TIP3   OH243167   0.107   1.048  14.686 -0.3011  0.6924 -0.2155
 7251TIP3    H143168   0.165   1.034  14.612  0.0692  1.6600 -0.1207
 7251TIP3    H243169   0.136   1.131  14.725 -0.2820  0.0644  1.1925
 7252TIP3   OH243170   5.598   2.407   0.924 -0.3721 -0.5826 -0.2738
 7252TIP3    H143171   5.582   2.500   0.905 -0.9772 -1.1095 -2.5899
 7252TIP3    H243172   5.573   2.361   0.844  0.6364 -2.6983  0.5513
 7253TIP3   OH243173   3.513   0.571   0.793  0.3919  0.2051 -0.3876
 7253TIP3    H143174   3.451   0.498   0.800  1.0683 -0.2873  0.7993
 7253TIP3    H243175   3.502   0.603   0.703  0.9216 -2.1262 -1.3568
 7254TIP3   OH243176   3.324   0.952  12.522 -0.4589 -0.0027  0.5839
 7254TIP3    H143177   3.233   0.981  12.535 -0.3652 -0.2375  1.9129
 7254TIP3    H243178   3.370   1.031  12.491 -0.7849  0.5419  1.4563
 7255TIP3   OH243179   0.660   2.207  10.907  0.5814 -0.8206  0.5343
 7255TIP3    H143180   0.610   2.155  10.844 -0.4735  0.3975  0.3419
 7255TIP3    H243181   0.736   2.238  10.857  0.4456 -0.9526  0.2426
 7256TIP3   OH243182   2.920   0.403   0.401 -0.2970 -0.1722 -0.1995
 7256TIP3    H143183   2.841   0.447   0.370 -0.5769 -1.5097 -1.5011
 7256TIP3    H243184   2.889   0.321   0.438  0.3769 -0.1061  0.5323
 7257TIP3   OH243185   6.362   6.558   6.473  0.4726  0.0148  0.4435
 7257TIP3    H143186   6.301   6.581   6.543 -1.7513  0.1286 -1.4023
 7257TIP3    H243187   6.362   6.462   6.471 -3.3196 -0.1726 -2.2814
 7258TIP3   OH243188   5.489   2.455   4.714  0.3819 -0.0185 -0.1613
 7258TIP3    H143189   5.474   2.361   4.701 -1.6368  0.2178  0.0840
 7258TIP3    H243190   5.450   2.496   4.637 -3.7538  0.8491  2.0812
 7259TIP3   OH243191   5.521   6.157  11.865  0.2304 -0.5542  0.3077
 7259TIP3    H143192   5.426   6.160  11.861  0.2195  1.0807  1.1500
 7259TIP3    H243193   5.550   6.237  11.820  1.0724  0.5739  2.6827
 7260TIP3   OH243194   0.034   0.163   3.425  0.5765  0.2792  0.1745
 7260TIP3    H143195   0.108   0.190   3.480 -0.5147  1.3265  1.1796
 7260TIP3    H243196   0.067   0.170   3.336  1.5747  1.1251  0.5862
 7261TIP3   OH243197   2.768   3.111   3.295  0.8187 -0.3406  0.1444
 7261TIP3    H143198   2.819   3.031   3.311  0.3882 -0.5625  0.4255
 7261TIP3    H243199   2.832   3.182   3.299  1.1275 -0.6300  0.3832
 7262TIP3   OH243200   5.229   3.329   6.597 -0.3119 -0.6313  0.9245
 7262TIP3    H143201   5.155   3.276   6.570 -0.2128  0.5322 -1.9762
 7262TIP3    H243202   5.270   3.357   6.515  1.9059  0.7530  2.3925
 7263TIP3   OH243203   6.010   1.388  13.641 -0.1713 -0.4226 -0.1751
 7263TIP3    H143204   5.990   1.357  13.729 -1.3446 -0.6787 -0.5113
 7263TIP3    H243205   5.926   1.382  13.594  0.1164  0.9947 -0.9221
 7264TIP3   OH243206   5.557   6.578  17.021  0.0362  0.1245 -0.4497
 7264TIP3    H143207   5.611   6.647  17.058  1.0268 -1.0007  0.3131
 7264TIP3    H243208   5.619   6.508  17.000 -0.7142  0.0881 -2.8074
 7265TIP3   OH243209   2.123   0.210   1.220 -0.0468 -0.0361 -0.5805
 7265TIP3    H143210   2.125   0.302   1.246 -2.5416 -0.0357 -0.1127
 7265TIP3    H243211   2.039   0.199   1.176  0.0673 -2.1525 -0.3929
 7266TIP3   OH243212   6.124   5.723  15.781 -0.0541 -0.0974 -0.4648
 7266TIP3    H143213   6.217   5.747  15.781 -0.3087  1.0411 -1.7652
 7266TIP3    H243214   6.123   5.632  15.753  0.6287  0.2383 -1.6771
 7267TIP3   OH243215   6.286   6.325   1.879 -0.3216 -0.3018 -0.1727
 7267TIP3    H143216   6.362   6.290   1.832 -0.4189  0.5448 -0.9905
 7267TIP3    H243217   6.258   6.253   1.935  1.0677 -0.6408  0.1370
 7268TIP3   OH243218   2.668   0.249  10.936  0.2731 -0.3767  0.1641
 7268TIP3    H143219   2.741   0.310  10.927  0.3698 -0.6873 -1.4140
 7268TIP3    H243220   2.658   0.209  10.850 -2.6209  0.6344 -0.0847
 7269TIP3   OH243221   1.376   1.101   5.815  0.2199  0.2378  0.0713
 7269TIP3    H143222   1.298   1.112   5.870  0.1842 -0.9457  0.2957
 7269TIP3    H243223   1.346   1.048   5.742  0.9031 -0.6144  0.3948
 7270TIP3   OH243224   4.662   2.509   2.098 -0.0893 -0.0238  0.3641
 7270TIP3    H143225   4.597   2.482   2.164 -0.1747  0.3430  0.4341
 7270TIP3    H243226   4.716   2.432   2.084 -0.5944 -0.3621  0.2464
 7271TIP3   OH243227   1.145   6.045   2.874  0.2218 -0.3562  0.0128
 7271TIP3    H143228   1.057   6.052   2.837 -0.0137 -0.6924  0.4948
 7271TIP3    H243229   1.156   5.952   2.893 -0.8930  0.1164  3.6466
 7272TIP3   OH243230   6.419   2.532  11.298  0.0224 -0.3342  0.1099
 7272TIP3    H143231   6.495   2.564  11.251  0.7626 -0.0250  1.4876
 7272TIP3    H243232   6.407   2.442  11.266  0.0792  0.0920 -1.1527
 7273TIP3   OH243233   4.600   5.619   6.062  0.0213 -0.8179 -0.0424
 7273TIP3    H143234   4.655   5.607   6.140  0.6400  0.5590 -0.2479
 7273TIP3    H243235   4.660   5.607   5.988  0.4319  2.0245 -0.2701
 7274TIP3   OH243236   5.842   4.841   2.568  0.2592  0.2294  0.2336
 7274TIP3    H143237   5.884   4.870   2.650 -0.0446  0.7735  0.1967
 7274TIP3    H243238   5.794   4.917   2.537  1.0553  0.2941 -0.9043
 7275TIP3   OH243239   5.269   1.996   1.916  0.2534  0.3202 -0.5065
 7275TIP3    H143240   5.355   1.974   1.881  1.6118 -0.3215  2.8472
 7275TIP3    H243241   5.234   1.913   1.950 -0.2777  1.0887  0.9181
 7276TIP3   OH243242   0.422   3.384   3.604  0.2346 -0.0165 -0.3583
 7276TIP3    H143243   0.336   3.407   3.639 -0.3824 -2.0955 -0.3846
 7276TIP3    H243244   0.443   3.455   3.544 -0.5515  1.5189  1.0965
 7277TIP3   OH243245   1.275   3.152  15.209  0.0915 -0.0389  0.0357
 7277TIP3    H143246   1.335   3.198  15.151  1.5428 -0.7569  0.9041
 7277TIP3    H243247   1.227   3.221  15.254  0.2492  0.5535 -0.6837
 7278TIP3   OH243248   6.649   6.047  15.933 -0.6652 -0.6822  0.0743
 7278TIP3    H143249   6.643   5.953  15.948 -0.7213 -0.7504 -0.3594
 7278TIP3    H243250   6.657   6.056  15.838 -2.9914 -0.1485 -0.1271
 7279TIP3   OH243251   1.095   1.900   2.198  0.1065  0.5077 -0.1852
 7279TIP3    H143252   1.023   1.883   2.137  1.0090 -4.7177 -0.2885
 7279TIP3    H243253   1.065   1.863   2.281  1.9080 -0.1375  0.2310
 7280TIP3   OH243254   1.170   3.623   4.830 -0.1367 -0.4489 -0.0265
 7280TIP3    H143255   1.243   3.566   4.855 -0.3343 -0.4147  0.6464
 7280TIP3    H243256   1.129   3.648   4.913  0.3369  1.1832 -0.2378
 7281TIP3   OH243257   3.172   5.417   5.359 -0.0520 -0.1453  0.2839
 7281TIP3    H143258   3.168   5.467   5.441  0.7845 -1.2668  1.0419
 7281TIP3    H243259   3.265   5.400   5.346 -0.2595 -0.7707 -0.4186
 7282TIP3   OH243260   3.241   3.903  15.673  0.2295 -0.4637 -0.0044
 7282TIP3    H143261   3.212   3.885  15.763 -1.8914 -1.9031 -0.8859
 7282TIP3    H243262   3.167   3.877  15.619  1.0937  1.2549 -2.1515
 7283TIP3   OH243263   0.216   5.699   5.232 -0.0342  0.0056  0.3842
 7283TIP3    H143264   0.256   5.633   5.288  0.3176  1.4693  1.9129
 7283TIP3    H243265   0.268   5.778   5.246  1.7066 -0.0986 -3.9400
 7284TIP3   OH243266   1.756   5.627  12.003 -0.1532  0.0440 -0.8368
 7284TIP3    H143267   1.666   5.596  12.012 -0.7227  1.7045 -0.3137
 7284TIP3    H243268   1.751   5.695  11.936  0.0001  2.4403  1.4066
 7285TIP3   OH243269   3.266   6.740  10.684  0.1915  0.1863 -0.2926
 7285TIP3    H143270   3.325   6.815  10.685  1.0263 -0.4708  0.1301
 7285TIP3    H243271   3.323   6.664  10.684 -0.6556 -0.4652  0.2411
 7286TIP3   OH243272   4.867   6.590   2.367  0.0215 -0.2207  0.0321
 7286TIP3    H143273   4.850   6.525   2.299  1.7016 -1.5191  0.7709
 7286TIP3    H243274   4.899   6.666   2.319 -0.8779 -0.3318 -0.7717
 7287TIP3   OH243275   0.617   2.010  11.099  0.3485 -0.2604  0.0584
 7287TIP3    H143276   0.658   2.082  11.050  2.6656 -0.5752  1.4036
 7287TIP3    H243277   0.543   1.983  11.044  1.2370  1.1285 -1.9500
 7288TIP3   OH243278   6.621   5.314  16.554 -0.0166 -0.3004 -0.9695
 7288TIP3    H143279   6.551   5.359  16.601  0.4981 -0.5202  0.0296
 7288TIP3    H243280   6.701   5.360  16.581  0.3860 -1.0413 -0.8874
 7289TIP3   OH243281   5.847   6.121   4.818  0.8270 -0.4450 -0.0738
 7289TIP3    H143282   5.802   6.205   4.804  0.3382 -0.7709 -0.5300
 7289TIP3    H243283   5.926   6.144   4.867  1.1492  0.3989 -0.9491
 7290TIP3   OH243284   1.046   3.701  17.007  0.1980 -0.2755  0.7821
 7290TIP3    H143285   1.119   3.723  17.064  0.0575  1.3133  0.4017
 7290TIP3    H243286   0.968   3.728  17.057  0.1129  1.9359 -0.4310
 7291TIP3   OH243287   0.078   2.259   4.488  0.1168 -0.5393 -0.7444
 7291TIP3    H143288   0.107   2.345   4.458 -1.9205  0.6349  0.4024
 7291TIP3    H243289  -0.017   2.259   4.472 -0.4507 -1.3045  2.0311
 7292TIP3   OH243290   1.262   4.588  11.815 -0.1416 -0.5781  0.1578
 7292TIP3    H143291   1.285   4.562  11.726  0.3558  0.4939 -0.0400
 7292TIP3    H243292   1.168   4.602  11.812 -0.0081  0.2365 -0.4090
 7293TIP3   OH243293   0.709   1.448   6.210  0.0418  0.0815 -0.1986
 7293TIP3    H143294   0.721   1.541   6.226  2.0562  0.4916 -3.2542
 7293TIP3    H243295   0.622   1.428   6.245 -0.3476  3.0190  0.7269
 7294TIP3   OH243296   2.268   1.167   2.752  0.2615  0.3898  0.1028
 7294TIP3    H143297   2.239   1.076   2.762  1.3065 -0.1448 -1.3728
 7294TIP3    H243298   2.213   1.216   2.812 -1.5437 -0.9881 -0.3277
 7295TIP3   OH243299   6.458   2.405   5.062 -0.8376  0.0955 -0.1488
 7295TIP3    H143300   6.494   2.448   5.139 -2.6422  0.6541  0.4266
 7295TIP3    H243301   6.374   2.368   5.091 -1.8391  0.7931 -1.9583
 7296TIP3   OH243302   0.769   6.142  11.995  0.7542  0.0305  0.3308
 7296TIP3    H143303   0.839   6.206  12.003  1.8237 -1.0381 -0.0745
 7296TIP3    H243304   0.770   6.117  11.903 -1.1581  1.0455 -0.0019
 7297TIP3   OH243305   6.439   1.780   4.903 -0.1196  0.3899 -0.5136
 7297TIP3    H143306   6.515   1.834   4.884  1.1401 -1.2904 -0.4723
 7297TIP3    H243307   6.365   1.842   4.905  1.1515  1.9886 -1.0132
 7298TIP3   OH243308   5.454   3.086  14.100  0.0311 -0.2649 -0.2312
 7298TIP3    H143309   5.491   3.007  14.139 -1.6761 -1.5237 -1.0267
 7298TIP3    H243310   5.433   3.142  14.175  2.1162 -0.1064  0.3019
 7299TIP3   OH243311   2.924   2.059   1.821  0.3481 -0.2627  0.9373
 7299TIP3    H143312   2.862   2.083   1.890 -1.0001  0.2064 -0.3977
 7299TIP3    H243313   3.004   2.106   1.843 -0.8043  1.8262  0.9016
 7300TIP3   OH243314   0.565   4.323   1.931 -0.5344  0.4872  0.1280
 7300TIP3    H143315   0.500   4.363   1.988 -0.3473  2.1689 -0.7823
 7300TIP3    H243316   0.522   4.318   1.845 -0.1769 -0.3065 -0.0158
 7301TIP3   OH243317   1.710   4.507  13.784  0.0539  0.1960 -0.0753
 7301TIP3    H143318   1.674   4.541  13.867  0.1466  1.0262 -0.3668
 7301TIP3    H243319   1.746   4.584  13.740  1.7369 -0.5285 -0.0319
 7302TIP3   OH243320   1.930   2.076   5.398  0.1682  0.2368  0.7140
 7302TIP3    H143321   1.926   2.158   5.348 -1.0305  0.4165  1.0895
 7302TIP3    H243322   1.848   2.031   5.379 -0.1776  0.1557  2.2430
 7303TIP3   OH243323   5.078   3.078  10.934  0.6590 -0.0268  0.6434
 7303TIP3    H143324   4.998   3.121  10.963  2.0005  2.8005  0.5101
 7303TIP3    H243325   5.098   3.016  11.004 -0.8361  0.3105  1.4186
 7304TIP3   OH243326   3.736   0.571  12.925 -0.4719  0.0308 -0.2944
 7304TIP3    H143327   3.732   0.617  13.009  0.4098 -1.6962  0.7533
 7304TIP3    H243328   3.824   0.590  12.891 -0.3307 -0.3547 -0.1543
 7305TIP3   OH243329   2.119   1.586   0.307  0.3283 -0.0649 -0.1826
 7305TIP3    H143330   2.101   1.493   0.294  1.6804 -0.2351 -0.9609
 7305TIP3    H243331   2.088   1.628   0.227 -1.3312  0.3522  0.6164
 7306TIP3   OH243332   4.163   0.642  13.135  0.5987 -0.3159  0.6180
 7306TIP3    H143333   4.152   0.737  13.142  2.7163  0.0720 -0.5703
 7306TIP3    H243334   4.205   0.616  13.217  2.5749  0.2736 -0.1433
 7307TIP3   OH243335   2.309   4.167  15.555  0.5360  0.0757  0.0803
 7307TIP3    H143336   2.222   4.180  15.595  0.1391 -0.6489 -0.5145
 7307TIP3    H243337   2.355   4.112  15.618  0.1514 -0.4938 -0.1225
 7308TIP3   OH243338   6.053   6.176   4.631 -0.3328 -0.6354 -0.8850
 7308TIP3    H143339   6.111   6.177   4.554  0.5737 -0.1197 -0.2148
 7308TIP3    H243340   6.020   6.086   4.634 -0.1769 -0.7345 -1.7202
 7309TIP3   OH243341   1.928   3.195  13.302  0.3589 -0.5446 -0.0618
 7309TIP3    H143342   1.959   3.280  13.271 -2.9927 -0.3547 -3.6612
 7309TIP3    H243343   1.940   3.136  13.228  1.3179 -2.9743  1.8864
 7310TIP3   OH243344   1.829   5.944   6.288 -0.5631 -0.5055  0.2145
 7310TIP3    H143345   1.734   5.957   6.298 -0.5092  0.8442 -0.7368
 7310TIP3    H243346   1.839   5.904   6.202 -0.1893  1.0237 -0.4912
 7311TIP3   OH243347   2.082   6.121   2.345 -0.1998 -0.0422  0.6105
 7311TIP3    H143348   2.077   6.172   2.426  1.2354  0.2306  0.5552
 7311TIP3    H243349   2.114   6.183   2.280  1.0479 -0.8502  0.4145
 7312TIP3   OH243350   6.304   3.735   3.509  0.2530 -0.0074  0.9006
 7312TIP3    H143351   6.327   3.782   3.590  1.0489 -0.3939  0.9106
 7312TIP3    H243352   6.319   3.799   3.440  0.8855 -0.0866  0.9547
 7313TIP3   OH243353   3.881   6.140   6.169 -0.0520 -1.2824 -0.0227
 7313TIP3    H143354   3.804   6.185   6.203 -0.5027 -1.2034 -1.1234
 7313TIP3    H243355   3.953   6.174   6.222 -0.3361  0.9545 -0.9431
 7314TIP3   OH243356   1.386   6.753   3.112 -0.6064  0.4594 -0.3884
 7314TIP3    H143357   1.319   6.819   3.128 -0.8169  0.3052 -0.6446
 7314TIP3    H243358   1.338   6.672   3.096 -0.3208 -0.0453  1.1960
 7315TIP3   OH243359   4.792   5.977   3.358  0.5378  0.1943  0.2874
 7315TIP3    H143360   4.700   5.989   3.332 -0.2729 -0.8875  2.3659
 7315TIP3    H243361   4.825   6.065   3.373 -0.5618  0.5641  0.6558
 7316TIP3   OH243362   6.185   4.858  12.794  0.4330  0.1809  0.6812
 7316TIP3    H143363   6.154   4.780  12.749 -1.4455  1.1083  0.2834
 7316TIP3    H243364   6.155   4.847  12.884  0.1229  0.4696  0.6124
 7317TIP3   OH243365   3.711   5.543  13.302 -0.1870 -0.9380  0.1862
 7317TIP3    H143366   3.789   5.575  13.256 -1.2677 -0.0276 -1.0780
 7317TIP3    H243367   3.695   5.608  13.370 -0.2516 -0.7453 -0.0117
 7318TIP3   OH243368   3.772   1.796   1.599  0.1369 -0.4421  0.0700
 7318TIP3    H143369   3.729   1.871   1.641  0.7577 -0.6398  1.1021
 7318TIP3    H243370   3.833   1.836   1.537 -0.5199 -0.1299 -0.3806
 7319TIP3   OH243371   0.156   5.832   5.797  0.1067 -0.4361  0.0949
 7319TIP3    H143372   0.064   5.818   5.818 -0.4682  2.9284  0.2871
 7319TIP3    H243373   0.201   5.827   5.882 -0.0409 -0.9873  0.1458
 7320TIP3   OH243374   1.910   4.363  13.655  0.5677  0.6399 -0.4090
 7320TIP3    H143375   1.918   4.295  13.722 -0.2075 -0.0256 -0.9682
 7320TIP3    H243376   1.856   4.431  13.696  0.1323  0.2578 -0.3400
 7321TIP3   OH243377   5.668   4.784  15.482  0.8796  0.7234 -0.5577
 7321TIP3    H143378   5.603   4.814  15.418  0.7782 -2.3833 -2.1322
 7321TIP3    H243379   5.671   4.689  15.470  2.6346  0.2563  2.4729
 7322TIP3   OH243380   3.422   0.450   5.521 -0.3385  0.2869  0.0913
 7322TIP3    H143381   3.501   0.504   5.524  1.2866 -1.9447  3.7168
 7322TIP3    H243382   3.353   0.506   5.556 -0.1972  1.8113 -1.8447
 7323TIP3   OH243383   2.085   2.290  12.446 -0.4811 -0.0619  0.0934
 7323TIP3    H143384   2.114   2.286  12.355 -1.6497  2.2534 -0.4598
 7323TIP3    H243385   2.006   2.235  12.449 -0.6157  0.1020 -0.3845
 7324TIP3   OH243386   5.691   5.678   0.702  0.4173 -0.3944  0.2483
 7324TIP3    H143387   5.725   5.595   0.668  0.1227 -0.7539  0.8142
 7324TIP3    H243388   5.609   5.654   0.745 -0.0874  0.3197 -0.2888
 7325TIP3   OH243389   5.386   4.015  13.695  0.0131  0.0145  0.5446
 7325TIP3    H143390   5.385   4.100  13.740 -1.4212 -0.6494  1.8804
 7325TIP3    H243391   5.437   3.958  13.752  0.4446 -0.1905 -0.0364
 7326TIP3   OH243392   3.329   3.043  11.577  0.4182 -0.3173 -0.3920
 7326TIP3    H143393   3.424   3.052  11.570  0.5786 -0.9703  0.8357
 7326TIP3    H243394   3.301   3.026  11.487  1.4246  0.1050 -0.8106
 7327TIP3   OH243395   1.675   2.839  12.029  0.2961 -0.2139  0.3229
 7327TIP3    H143396   1.736   2.885  11.971  0.5760  0.9309  1.4804
 7327TIP3    H243397   1.589   2.871  12.003  0.1654 -1.6316 -1.1360
 7328TIP3   OH243398   5.460   6.260   0.359 -0.1019 -0.1391 -0.4587
 7328TIP3    H143399   5.385   6.316   0.341 -0.6997 -0.5333  0.7504
 7328TIP3    H243400   5.510   6.307   0.426 -0.4459 -0.8971  0.3407
 7329TIP3   OH243401   5.386   4.353  12.269  0.3706 -0.2910  0.0057
 7329TIP3    H143402   5.426   4.411  12.205  2.0809 -0.3079  0.9818
 7329TIP3    H243403   5.454   4.288  12.288 -0.7025 -1.2909  0.5847
 7330TIP3   OH243404   1.444   3.851   5.593  0.7106  0.7251 -0.3457
 7330TIP3    H143405   1.463   3.822   5.682 -2.0236 -0.5469 -0.0873
 7330TIP3    H243406   1.491   3.788   5.537 -1.5255 -1.6653  0.2533
 7331TIP3   OH243407   5.823   2.097  11.516  0.0084  0.3578  0.1603
 7331TIP3    H143408   5.776   2.176  11.489  1.3316  0.9531 -0.5384
 7331TIP3    H243409   5.761   2.026  11.504 -1.1646  1.2711  0.6610
 7332TIP3   OH243410   2.369   1.896   3.974 -0.8458 -0.6869  0.3981
 7332TIP3    H143411   2.386   1.814   4.020 -1.5899 -1.1285 -0.0965
 7332TIP3    H243412   2.382   1.964   4.040 -0.6064 -1.2243  0.9125
 7333TIP3   OH243413   5.347   3.207   0.854  0.1770 -0.1281  0.4356
 7333TIP3    H143414   5.359   3.134   0.793 -0.4082  0.2056 -0.0885
 7333TIP3    H243415   5.382   3.175   0.937  1.5938 -0.3608 -0.2213
 7334TIP3   OH243416   1.563   2.370   1.772  0.1498  0.0534 -0.4204
 7334TIP3    H143417   1.517   2.437   1.722  2.5046  1.9331 -0.2433
 7334TIP3    H243418   1.580   2.410   1.857 -0.5427 -1.7247  0.5981
 7335TIP3   OH243419   4.491   5.378  11.652 -0.1841 -0.5809 -0.4235
 7335TIP3    H143420   4.485   5.327  11.732 -2.4781  0.7551  0.3457
 7335TIP3    H243421   4.585   5.389  11.637  0.3017 -1.9923  1.3098
 7336TIP3   OH243422   3.885   3.536   1.884  0.3391 -0.3575 -0.3675
 7336TIP3    H143423   3.812   3.516   1.825 -0.5774  1.1286  0.2197
 7336TIP3    H243424   3.870   3.626   1.911  0.4059 -1.1409  2.5895
 7337TIP3   OH243425   2.615   0.646   5.007  0.6579  0.2280  0.2821
 7337TIP3    H143426   2.612   0.690   5.092 -0.4045  0.6008  0.0711
 7337TIP3    H243427   2.590   0.714   4.944  0.4108 -0.3057 -0.2053
 7338TIP3   OH243428   6.693   6.233  14.672  0.4479  0.8882  0.4185
 7338TIP3    H143429   6.749   6.280  14.734  0.3069 -1.0935  2.1558
 7338TIP3    H243430   6.607   6.230  14.714  0.3862 -0.6171  0.2591
 7339TIP3   OH243431   2.547   1.675   0.601  0.3974  0.2330  0.6866
 7339TIP3    H143432   2.548   1.593   0.552  0.0545  1.0188 -0.6757
 7339TIP3    H243433   2.454   1.689   0.622  0.4597  0.2571  0.9490
 7340TIP3   OH243434   6.583   2.171   5.345  0.2094 -0.2256  0.0031
 7340TIP3    H143435   6.530   2.250   5.334  0.9413  0.0048 -2.2275
 7340TIP3    H243436   6.670   2.204   5.369  0.1052 -0.4743  0.7768
 7341TIP3   OH243437   1.510   5.511  17.090 -0.4378 -1.3687 -0.3856
 7341TIP3    H143438   1.524   5.486  17.181 -1.1748  3.0929  1.2097
 7341TIP3    H243439   1.596   5.540  17.059 -0.8483  0.8721  0.3737
 7342TIP3   OH243440   2.537   5.974   5.327 -0.2337 -0.5163  0.3934
 7342TIP3    H143441   2.476   5.921   5.379  0.4938  1.2888  3.3386
 7342TIP3    H243442   2.621   5.964   5.370  0.5986  0.5433 -0.8975
 7343TIP3   OH243443   0.626   1.804  12.137  0.3199  0.2459  0.0645
 7343TIP3    H143444   0.602   1.712  12.135  0.3528  0.2340 -1.4541
 7343TIP3    H243445   0.579   1.841  12.212 -1.0432 -0.6479 -0.3207
 7344TIP3   OH243446   2.784   5.207   3.310 -0.6865  0.4697  0.2802
 7344TIP3    H143447   2.842   5.132   3.302  0.8458  1.7186 -0.8607
 7344TIP3    H243448   2.721   5.181   3.377  2.0314 -0.4196  2.6764
 7345TIP3   OH243449   4.577   2.596   5.682 -0.1337  0.2153  0.0033
 7345TIP3    H143450   4.650   2.578   5.742 -0.7093  1.3562  1.1034
 7345TIP3    H243451   4.560   2.513   5.639 -0.5029 -1.0340  2.3733
 7346TIP3   OH243452   1.932   3.125  12.110  0.3951  0.2876 -0.5603
 7346TIP3    H143453   1.933   3.045  12.164 -1.6118 -0.2282 -1.2033
 7346TIP3    H243454   1.916   3.195  12.173  3.2098  0.3872  0.1599
 7347TIP3   OH243455   1.531   4.494   3.847 -0.2537  0.3643  0.4608
 7347TIP3    H143456   1.511   4.562   3.911  2.5394  1.7384  0.0072
 7347TIP3    H243457   1.475   4.514   3.772  0.3934  2.1208  0.3991
 7348TIP3   OH243458   5.535   5.543  11.015 -0.2737  0.2459  0.2270
 7348TIP3    H143459   5.625   5.518  10.998 -0.2851  0.0272  0.4743
 7348TIP3    H243460   5.491   5.461  11.037 -0.1569  0.5560  1.7317
 7349TIP3   OH243461   0.330   5.497   5.388 -0.1885  0.5622 -0.5766
 7349TIP3    H143462   0.335   5.495   5.484  1.1969  1.0122 -0.6139
 7349TIP3    H243463   0.314   5.406   5.363 -0.4224  0.4182  0.0773
 7350TIP3   OH243464   3.373   6.115  15.107  0.4385  0.2539  0.7769
 7350TIP3    H143465   3.435   6.062  15.056 -1.1222  0.0304 -1.0009
 7350TIP3    H243466   3.335   6.053  15.169 -3.1479 -1.6388 -2.8464
 7351TIP3   OH243467   0.119   2.695   6.552 -0.2761  0.5500 -0.1051
 7351TIP3    H143468   0.167   2.771   6.587  0.5375  0.2671 -0.5761
 7351TIP3    H243469   0.037   2.731   6.520  0.3785  1.3534 -0.9382
 7352TIP3   OH243470   3.866   4.396  12.578 -0.5178  0.4135 -0.2424
 7352TIP3    H143471   3.813   4.329  12.621 -0.8406  0.3660 -0.7025
 7352TIP3    H243472   3.956   4.361  12.582 -0.7493 -0.2916 -0.9170
 7353TIP3   OH243473   3.326   6.663   4.525  0.3725 -0.4899 -0.0022
 7353TIP3    H143474   3.391   6.608   4.482 -1.0766 -1.5767 -0.8511
 7353TIP3    H243475   3.377   6.738   4.558  1.7061 -0.0554 -2.7699
 7354TIP3   OH243476   1.667   1.751   1.981  0.2337  0.1782 -0.2087
 7354TIP3    H143477   1.762   1.754   1.973  0.4218 -0.4949  1.5106
 7354TIP3    H243478   1.646   1.658   1.989 -0.4051  0.4146  1.0517
 7355TIP3   OH243479   3.090   4.696  13.145  0.1780  0.5256 -0.1383
 7355TIP3    H143480   3.019   4.724  13.202 -0.0826  0.6115 -0.4976
 7355TIP3    H243481   3.155   4.766  13.152 -0.0472  0.7533 -0.2844
 7356TIP3   OH243482   3.796   4.875  16.457 -0.0267  0.2410  0.0884
 7356TIP3    H143483   3.819   4.798  16.405  1.2991 -0.0894  1.1223
 7356TIP3    H243484   3.753   4.934  16.394  0.5588 -0.5849 -1.1314
 7357TIP3   OH243485   2.830   5.148  14.459  0.4486  0.4322  0.0219
 7357TIP3    H143486   2.896   5.082  14.437  0.2703 -0.5911  2.2625
 7357TIP3    H243487   2.790   5.170  14.375  1.4554 -1.3234 -0.9852
 7358TIP3   OH243488   4.802   1.959   2.661  0.4791  0.1907 -0.1170
 7358TIP3    H143489   4.870   1.955   2.594  1.5397 -3.2499  0.9525
 7358TIP3    H243490   4.783   1.868   2.681 -2.3198  1.0644  1.8320
 7359TIP3   OH243491   0.912   5.928  14.625  0.2957 -0.1371  0.4040
 7359TIP3    H143492   0.958   6.011  14.639  1.4313 -0.6896  0.0122
 7359TIP3    H243493   0.896   5.924  14.531  2.6305 -1.5529 -0.0060
 7360TIP3   OH243494   4.972   5.021   3.555 -0.2851  0.3923  0.6152
 7360TIP3    H143495   4.968   5.108   3.514 -1.7158  0.0739 -0.0127
 7360TIP3    H243496   4.990   5.038   3.647  0.3747  1.2929  0.3304
 7361TIP3   OH243497   3.693   6.396   5.141 -0.6489  0.0246 -0.7696
 7361TIP3    H143498   3.726   6.382   5.230 -1.8210  2.2495  0.0875
 7361TIP3    H243499   3.764   6.364   5.085  0.3789 -0.8834  0.9361
 7362TIP3   OH243500   3.453   4.485   1.520  0.5866  0.6086  0.6374
 7362TIP3    H143501   3.366   4.491   1.561  1.4167  1.2919  2.4016
 7362TIP3    H243502   3.508   4.444   1.587  1.9457  1.4997  0.0990
 7363TIP3   OH243503   3.066   5.094   3.999  0.2607 -0.0178 -0.0091
 7363TIP3    H143504   3.089   5.132   4.083 -1.6944  0.9885  0.1410
 7363TIP3    H243505   3.120   5.142   3.935 -1.1977  2.2424  0.3089
 7364TIP3   OH243506   0.593   5.272   0.890  0.1646  0.0676 -0.6520
 7364TIP3    H143507   0.561   5.186   0.865  0.2150 -0.4354  0.8772
 7364TIP3    H243508   0.514   5.325   0.901  0.0921  0.0060 -0.8809
 7365TIP3   OH243509   3.204   2.291  13.247 -0.1108  0.7827  0.8320
 7365TIP3    H143510   3.157   2.212  13.219 -0.7108  1.4035  0.0837
 7365TIP3    H243511   3.181   2.300  13.340 -0.4553  0.3778  0.7920
 7366TIP3   OH243512   6.081   3.780   3.176  0.8971 -0.4055  0.4715
 7366TIP3    H143513   6.083   3.751   3.267  3.9672 -1.3943  0.2034
 7366TIP3    H243514   6.089   3.699   3.125 -1.8103  0.0166 -0.8263
 7367TIP3   OH243515   6.245   2.613   5.211  0.1119  0.0595  0.0468
 7367TIP3    H143516   6.267   2.531   5.167  1.0205  0.5678 -0.4735
 7367TIP3    H243517   6.224   2.587   5.301  0.7486 -0.7022 -0.0136
 7368TIP3   OH243518   4.295   0.748   5.153  0.6827  0.3548  0.0115
 7368TIP3    H143519   4.310   0.836   5.188 -1.7514  1.1815 -0.7561
 7368TIP3    H243520   4.325   0.752   5.062  0.4342  0.4551 -0.0675
 7369TIP3   OH243521   5.079   2.995   0.872 -0.4616  0.3106 -0.6848
 7369TIP3    H143522   5.081   2.905   0.906  2.2336 -0.2648 -2.0625
 7369TIP3    H243523   5.080   3.050   0.951  2.5436 -0.9596  0.3436
 7370TIP3   OH243524   6.693   3.292  11.695  0.8114  0.4647  0.2128
 7370TIP3    H143525   6.788   3.295  11.708  1.0783  0.2107 -1.4369
 7370TIP3    H243526   6.671   3.200  11.701  0.5907  0.5659  1.0237
 7371TIP3   OH243527   3.649   6.570  13.136 -0.9558 -0.2409  0.2739
 7371TIP3    H143528   3.719   6.635  13.135 -0.1604 -1.0819 -0.2696
 7371TIP3    H243529   3.680   6.501  13.194 -1.5595 -0.3836  0.4353
 7372TIP3   OH243530   5.142   0.224  13.707 -0.3900 -0.5724 -0.3939
 7372TIP3    H143531   5.221   0.275  13.722 -0.8305  0.0755 -0.2003
 7372TIP3    H243532   5.094   0.273  13.640 -0.2736 -1.3663 -1.0728
 7373TIP3   OH243533   2.169   0.625  14.740 -0.6555  0.9409  0.1710
 7373TIP3    H143534   2.141   0.534  14.745 -1.2786  0.9850 -1.7130
 7373TIP3    H243535   2.091   0.675  14.766  0.0972  0.9757  2.6142
 7374TIP3   OH243536   4.849   3.674  16.161 -0.7387  0.1870 -0.4394
 7374TIP3    H143537   4.762   3.686  16.199 -0.6647  1.8680 -0.7233
 7374TIP3    H243538   4.852   3.735  16.087  1.3834  1.7682  0.8209
 7375TIP3   OH243539   2.567   5.402   4.592  0.0954 -0.1719  0.4964
 7375TIP3    H143540   2.607   5.459   4.658  3.0485  0.7529 -1.8694
 7375TIP3    H243541   2.537   5.462   4.524 -0.4378 -1.2351 -0.2335
 7376TIP3   OH243542   0.212   3.448  13.950  0.4427  0.4502  0.3983
 7376TIP3    H143543   0.188   3.537  13.924 -1.1072  0.1103  0.5661
 7376TIP3    H243544   0.234   3.404  13.868 -2.9141 -0.1734 -0.3075
 7377TIP3   OH243545   5.362   2.749   1.515  0.0973  0.9138  0.2723
 7377TIP3    H143546   5.353   2.757   1.610  0.2884  0.7759  0.3043
 7377TIP3    H243547   5.447   2.789   1.496  0.8134 -0.4630  0.3673
 7378TIP3   OH243548   3.515   1.011  14.328  0.6850 -0.3616  0.8641
 7378TIP3    H143549   3.498   1.078  14.393  2.3124 -0.0711  1.0288
 7378TIP3    H243550   3.545   1.059  14.251  1.3919 -0.8494  0.8216
 7379TIP3   OH243551   1.009   1.390  14.432  0.7037 -0.4107 -0.0621
 7379TIP3    H143552   1.105   1.391  14.429  0.9653  2.5465  3.0792
 7379TIP3    H243553   0.983   1.472  14.390 -0.5531 -1.4436 -1.3797
 7380TIP3   OH243554   0.189   5.743  15.162 -0.1442  0.5521  0.0529
 7380TIP3    H143555   0.216   5.813  15.221 -0.0269 -0.4648  1.2427
 7380TIP3    H243556   0.110   5.775  15.121  0.7056  1.9776 -0.5367
 7381TIP3   OH243557   5.530   4.645  14.048  0.1813  0.2175  0.1561
 7381TIP3    H143558   5.486   4.579  14.102  0.3015  2.4943  3.3038
 7381TIP3    H243559   5.604   4.674  14.101 -0.8938  4.1171 -0.1265
 7382TIP3   OH243560   2.846   1.030  15.182  0.4462  0.1186  0.2363
 7382TIP3    H143561   2.751   1.034  15.194  0.3081 -0.9770 -0.3018
 7382TIP3    H243562   2.866   0.936  15.187  1.4767  0.3247  0.1805
 7383TIP3   OH243563   4.396   5.870   0.549  0.3514  0.4245  0.4018
 7383TIP3    H143564   4.325   5.884   0.486  0.5014 -0.2746  0.0577
 7383TIP3    H243565   4.471   5.845   0.494  0.4717 -0.2431  0.8559
 7384TIP3   OH243566   0.110   4.385   0.406 -0.1145 -0.6283 -0.3027
 7384TIP3    H143567   0.157   4.407   0.487  0.7867 -1.4984 -0.5704
 7384TIP3    H243568   0.103   4.468   0.359  2.2049 -0.6333 -0.7748
 7385TIP3   OH243569   6.193   5.426   6.417  0.1767  0.2769  0.5200
 7385TIP3    H143570   6.224   5.492   6.356  0.8204 -1.2882 -0.9327
 7385TIP3    H243571   6.272   5.378   6.443 -0.5666 -2.0032 -1.0757
 7386TIP3   OH243572   4.708   1.367  16.982  0.2694 -0.5724  0.1484
 7386TIP3    H143573   4.785   1.354  17.037 -0.4290  1.2060  1.6463
 7386TIP3    H243574   4.743   1.404  16.901  1.0564 -0.3974  0.5532
 7387TIP3   OH243575   5.817   3.928   1.344 -0.1772  0.7930 -0.0277
 7387TIP3    H143576   5.783   3.937   1.433  1.9370  1.0080  0.8312
 7387TIP3    H243577   5.827   4.018   1.313 -1.6506  0.7064 -0.8220
 7388TIP3   OH243578   2.433   3.380   4.421  0.2978  0.1123  0.7496
 7388TIP3    H143579   2.345   3.378   4.384 -0.3537 -1.8758  2.2609
 7388TIP3    H243580   2.482   3.315   4.370  0.2199 -0.5003  1.4550
 7389TIP3   OH243581   3.583   1.394   4.342 -0.0771 -0.1351 -0.5847
 7389TIP3    H143582   3.577   1.490   4.336 -1.5308 -0.1320  0.3705
 7389TIP3    H243583   3.520   1.362   4.278  0.3859 -0.4623 -0.8801
 7390TIP3   OH243584   4.437   3.022   0.130  0.1485  0.5228 -0.8244
 7390TIP3    H143585   4.426   3.088   0.062 -0.8414 -0.4842 -1.6675
 7390TIP3    H243586   4.358   2.969   0.125  0.2581  0.1576  0.8336
 7391TIP3   OH243587   0.702   6.154   1.216  0.6641  0.4253 -0.0822
 7391TIP3    H143588   0.608   6.150   1.202  0.1330  0.1213  2.9686
 7391TIP3    H243589   0.724   6.247   1.205  0.4877  0.2443 -2.7960
 7392TIP3   OH243590   1.589   1.708  14.374 -0.0818  0.1075 -0.0590
 7392TIP3    H143591   1.669   1.756  14.356 -1.4805  3.3814  1.6812
 7392TIP3    H243592   1.532   1.728  14.300 -0.0642 -0.4065 -0.2147
 7393TIP3   OH243593   2.680   3.239   1.971 -0.6786 -0.0042 -0.3908
 7393TIP3    H143594   2.586   3.241   1.949 -1.2863 -0.4069  1.9442
 7393TIP3    H243595   2.703   3.331   1.984 -0.9587  0.0330 -0.1527
 7394TIP3   OH243596   2.100   6.613   2.761 -0.4021 -0.1834  0.1477
 7394TIP3    H143597   2.031   6.642   2.701 -2.0753  1.0166  2.4378
 7394TIP3    H243598   2.108   6.685   2.824  3.2494 -0.1542 -0.1513
 7395TIP3   OH243599   2.298   3.288  14.739  0.7298 -0.3311 -0.5829
 7395TIP3    H143600   2.260   3.309  14.824  0.8989  0.3018 -0.6581
 7395TIP3    H243601   2.234   3.320  14.675  0.9843 -0.0404 -0.6979
 7396TIP3   OH243602   3.782   5.999  12.209 -0.2925  0.0653  0.6348
 7396TIP3    H143603   3.768   5.960  12.295  0.1555  1.2916  1.2847
 7396TIP3    H243604   3.699   5.984  12.163 -0.7522 -0.0752  1.4868
 7397TIP3   OH243605   3.603   4.142   1.990 -0.0358 -1.1187  0.3792
 7397TIP3    H143606   3.609   4.059   2.037 -1.1702 -0.6147  1.4742
 7397TIP3    H243607   3.531   4.189   2.033  1.2964  0.9100  0.5417
 7398TIP3   OH243608   6.501   0.310  16.210  0.4263  0.7536 -0.1195
 7398TIP3    H143609   6.517   0.294  16.303  0.8349  1.2664 -0.0920
 7398TIP3    H243610   6.588   0.328  16.173  0.2892  0.3774 -0.6395
 7399TIP3   OH243611   2.653   5.908  12.037  0.0817  0.0351  0.2332
 7399TIP3    H143612   2.640   6.002  12.025 -0.6020 -0.1757 -0.7771
 7399TIP3    H243613   2.582   5.867  11.986  0.8590 -1.0401 -0.0191
 7400TIP3   OH243614   5.964   0.820  11.283  0.2837  0.1792 -0.5598
 7400TIP3    H143615   5.891   0.760  11.302  1.1981 -0.5309  0.8832
 7400TIP3    H243616   5.941   0.859  11.199 -0.0713 -2.6679 -1.9036
 7401TIP3   OH243617   1.301   3.007   3.233 -0.2110 -0.8782  0.0470
 7401TIP3    H143618   1.337   2.964   3.155 -0.5538 -1.0526 -0.0160
 7401TIP3    H243619   1.277   2.935   3.291 -3.5307 -0.9902 -1.2234
 7402TIP3   OH243620   0.813   3.671  11.180  0.3482 -0.4845  0.2524
 7402TIP3    H143621   0.861   3.727  11.119 -2.8429  1.1986 -0.9682
 7402TIP3    H243622   0.778   3.601  11.126 -1.5143  0.3507  0.3050
 7403TIP3   OH243623   5.582   4.405  13.746 -0.3583 -0.1191 -0.5146
 7403TIP3    H143624   5.517   4.415  13.817 -1.8247 -0.9188 -1.6811
 7403TIP3    H243625   5.631   4.487  13.747 -0.8100  0.1610  0.9786
 7404TIP3   OH243626   2.591   3.563  17.036 -0.4016 -0.2497 -0.7543
 7404TIP3    H143627   2.561   3.491  17.091  0.4109  0.2059  0.3351
 7404TIP3    H243628   2.685   3.547  17.024  0.4901  2.1149  2.0085
 7405TIP3   OH243629   5.540   2.925   2.787  0.0877  0.2271 -0.2856
 7405TIP3    H143630   5.531   2.897   2.878  0.3760 -1.3329 -0.6969
 7405TIP3    H243631   5.627   2.963   2.782  0.0639  0.3355  0.0993
 7406TIP3   OH243632   4.533   3.431  12.137  0.5815  0.9381  0.0187
 7406TIP3    H143633   4.480   3.398  12.209 -0.4105  2.2976 -0.0513
 7406TIP3    H243634   4.540   3.357  12.076 -0.4806  0.4699  0.4490
 7407TIP3   OH243635   0.116   0.319   5.790 -0.4135  0.2731 -0.4984
 7407TIP3    H143636   0.200   0.291   5.827 -0.2051  1.4829 -0.0398
 7407TIP3    H243637   0.051   0.295   5.856 -0.2493  0.7597 -0.1583
 7408TIP3   OH243638   4.511   2.688   4.080 -0.1380 -0.6774  0.4773
 7408TIP3    H143639   4.604   2.666   4.079  0.0683  0.1452 -0.5945
 7408TIP3    H243640   4.491   2.706   4.171  1.3453  1.4036  0.4658
 7409TIP3   OH243641   4.956   3.098  14.318  0.4218 -0.0306 -0.7349
 7409TIP3    H143642   4.911   3.019  14.290  0.6338 -1.2946  2.1123
 7409TIP3    H243643   4.885   3.158  14.343  0.1947 -1.0370  1.2406
 7410TIP3   OH243644   4.836   3.668   6.106 -0.2677 -0.0477 -0.1921
 7410TIP3    H143645   4.776   3.638   6.175 -1.7138  1.1054 -0.9092
 7410TIP3    H243646   4.834   3.599   6.041  0.3284 -0.6737  0.4250
 7411TIP3   OH243647   0.182   5.778   1.043 -0.2565 -0.1668  0.0192
 7411TIP3    H143648   0.093   5.785   1.076  0.0579 -0.2101  0.8876
 7411TIP3    H243649   0.186   5.692   1.003 -0.7891  0.0851 -0.6040
 7412TIP3   OH243650   6.553   1.069  16.396  0.0187 -0.1023 -0.3299
 7412TIP3    H143651   6.573   1.082  16.489 -0.2708  0.1757 -0.3075
 7412TIP3    H243652   6.583   1.149  16.354 -1.4566  0.5156 -0.2393
 7413TIP3   OH243653   3.816   0.226  11.525  0.1092  0.4418 -0.3847
 7413TIP3    H143654   3.760   0.222  11.602 -0.8992  3.4100 -0.8557
 7413TIP3    H243655   3.792   0.148  11.474 -0.5414 -0.5564  1.3808
 7414TIP3   OH243656   1.041   6.726   4.561 -0.2547  0.6897 -0.4355
 7414TIP3    H143657   0.970   6.694   4.504  0.1239  2.1643 -1.7912
 7414TIP3    H243658   1.062   6.813   4.527  1.6742  0.6103  0.4547
 7415TIP3   OH243659   1.223   1.767   0.521  0.3373 -0.2374  0.2131
 7415TIP3    H143660   1.172   1.696   0.481 -1.7643  1.2962  0.0453
 7415TIP3    H243661   1.160   1.837   0.537  1.9646  0.9033  2.1751
 7416TIP3   OH243662   4.439   2.132  12.686  0.2247 -0.3054 -0.1862
 7416TIP3    H143663   4.486   2.052  12.707 -2.4479 -1.8998  0.1380
 7416TIP3    H243664   4.364   2.133  12.745  0.2217  2.5661 -0.0723
 7417TIP3   OH243665   0.310   5.283   0.624  0.2408  0.0191  0.2312
 7417TIP3    H143666   0.328   5.286   0.718 -0.4355  1.1712  0.3512
 7417TIP3    H243667   0.218   5.257   0.618  0.1873  0.2689 -0.0884
 7418TIP3   OH243668   1.666   2.820  11.222 -0.1011  0.3514 -0.2307
 7418TIP3    H143669   1.695   2.743  11.173 -0.7512 -1.0280  1.4500
 7418TIP3    H243670   1.596   2.857  11.169 -0.9810 -1.2610 -0.2553
 7419TIP3   OH243671   4.399   5.237  12.856 -0.0183 -0.0494 -0.1518
 7419TIP3    H143672   4.495   5.239  12.862  0.2212 -0.9739 -2.4269
 7419TIP3    H243673   4.376   5.145  12.872 -0.3196 -0.1772 -1.2031
 7420TIP3   OH243674   5.952   1.579   3.781 -0.7582  0.1944  0.0184
 7420TIP3    H143675   5.945   1.489   3.813 -2.0348  0.2846  0.0469
 7420TIP3    H243676   5.862   1.603   3.756 -0.1558  0.8388 -1.6779
 7421TIP3   OH243677   0.770   3.890   4.215 -0.2038 -0.0822 -0.1433
 7421TIP3    H143678   0.758   3.956   4.147 -1.0802 -0.5126 -0.4167
 7421TIP3    H243679   0.690   3.894   4.267  0.3083 -0.0040  0.6543
 7422TIP3   OH243680   5.864   3.504   1.276  0.2522  0.3671  0.2214
 7422TIP3    H143681   5.785   3.506   1.331 -0.2231  2.0552 -0.4787
 7422TIP3    H243682   5.932   3.472   1.335 -0.6315  0.3519  1.2790
 7423TIP3   OH243683   0.060   3.991  15.903  0.3059  0.5821  0.5362
 7423TIP3    H143684   0.085   4.065  15.848 -1.1784 -1.8344 -3.9486
 7423TIP3    H243685   0.126   3.924  15.885  0.9658  0.2587  3.5658
 7424TIP3   OH243686   2.660   2.849   1.234 -0.2840  0.7704  0.1316
 7424TIP3    H143687   2.574   2.854   1.275 -0.5984  0.9974 -0.5468
 7424TIP3    H243688   2.700   2.770   1.272 -1.0956  0.2203 -0.1345
 7425TIP3   OH243689   3.535   2.260   4.405 -0.7896  0.5238  0.1813
 7425TIP3    H143690   3.449   2.274   4.446 -0.3636 -1.4480  1.8990
 7425TIP3    H243691   3.595   2.316   4.455 -0.7007  0.0743  0.5888
 7426TIP3   OH243692   3.722   3.899  14.296 -0.0668 -0.6721  0.4067
 7426TIP3    H143693   3.665   3.836  14.251 -0.8175 -0.5113  1.1107
 7426TIP3    H243694   3.750   3.960  14.227 -0.4160 -0.9912 -0.0245
 7427TIP3   OH243695   3.126   5.756   3.756 -0.2358  1.0988  0.3253
 7427TIP3    H143696   3.031   5.757   3.767 -0.2797  2.8138 -0.0205
 7427TIP3    H243697   3.139   5.721   3.668 -0.3483 -2.1511  1.4627
 7428TIP3   OH243698   3.308   5.177  14.874 -0.1882 -0.1421  0.3739
 7428TIP3    H143699   3.291   5.155  14.783  1.0743 -0.7163  0.2549
 7428TIP3    H243700   3.228   5.153  14.921 -0.7725 -0.0111 -0.5490
 7429TIP3   OH243701   4.726   2.826   1.513 -0.2906 -0.0381 -0.9284
 7429TIP3    H143702   4.753   2.911   1.548  1.2304 -0.3550 -1.2870
 7429TIP3    H243703   4.662   2.848   1.445 -1.2497  0.7054  0.1573
 7430TIP3   OH243704   3.239   5.223   1.108  0.0211 -0.6100 -0.5497
 7430TIP3    H143705   3.264   5.137   1.075 -0.8252 -0.2221 -2.3112
 7430TIP3    H243706   3.249   5.281   1.033 -2.0706  0.2913 -0.1970
 7431TIP3   OH243707   3.094   3.013   2.799 -0.1111 -0.6334  0.1205
 7431TIP3    H143708   3.007   2.987   2.767 -0.4781 -1.0509  1.3867
 7431TIP3    H243709   3.125   2.937   2.847  0.5364 -0.1340  0.5028
 7432TIP3   OH243710   4.132   1.187  13.626  0.4372  0.1984  0.4269
 7432TIP3    H143711   4.211   1.197  13.573 -0.0744  1.7992 -0.0902
 7432TIP3    H243712   4.062   1.172  13.563  0.1582 -0.1639  0.8134
 7433TIP3   OH243713   0.909   4.858   5.256  0.0326  0.2849 -0.1959
 7433TIP3    H143714   0.983   4.841   5.198  0.4215  0.6482  0.1805
 7433TIP3    H243715   0.833   4.826   5.209  0.6703 -2.3202  0.3883
 7434TIP3   OH243716   4.609   6.122   1.350  0.5700 -0.0365 -0.0637
 7434TIP3    H143717   4.615   6.093   1.441 -1.4887  0.4743  0.2775
 7434TIP3    H243718   4.646   6.211   1.351 -1.4594  0.8529  0.7792
 7435TIP3   OH243719   3.018   1.837   2.757  0.5045  0.4431  0.3137
 7435TIP3    H143720   3.075   1.804   2.827  1.1474  1.8372  0.4834
 7435TIP3    H243721   2.947   1.772   2.751  2.0113 -1.2665  0.1907
 7436TIP3   OH243722   3.367   4.978  15.065 -0.1563 -0.3065 -0.8158
 7436TIP3    H143723   3.388   4.996  14.974  1.1305 -0.4816 -0.5722
 7436TIP3    H243724   3.394   4.887  15.078 -0.2297 -0.2507 -0.2349
 7437TIP3   OH243725   0.358   3.978  17.011 -0.1783 -0.3667  0.0165
 7437TIP3    H143726   0.408   3.918  17.066  1.4993 -0.6929 -1.7174
 7437TIP3    H243727   0.270   3.941  17.008  0.6808 -2.5371 -0.6017
 7438TIP3   OH243728   1.839   4.290   2.652 -0.0044  0.0416  0.2933
 7438TIP3    H143729   1.840   4.313   2.745  0.4229  1.2666  0.0109
 7438TIP3    H243730   1.920   4.328   2.618  0.0695 -0.7949 -0.4984
 7439TIP3   OH243731   3.639   5.815   0.649  0.7106 -0.3847  0.1006
 7439TIP3    H143732   3.702   5.880   0.678 -0.6434  1.8562 -1.5856
 7439TIP3    H243733   3.557   5.865   0.638 -0.8073 -2.7108  0.1814
 7440TIP3   OH243734   0.694   1.046  17.042 -0.5250  0.5906 -0.0176
 7440TIP3    H143735   0.658   1.056  17.130  0.4294  1.9690  0.2432
 7440TIP3    H243736   0.765   1.110  17.037 -0.4465  0.4249 -1.7313
 7441TIP3   OH243737   1.087   5.239   5.591 -0.0014 -0.3295  0.2199
 7441TIP3    H143738   1.122   5.244   5.502  1.2231 -1.0464  0.6442
 7441TIP3    H243739   1.048   5.152   5.597 -0.2866 -0.1967  0.3211
 7442TIP3   OH243740   4.730   0.365  15.978  0.1846  0.6430  0.2689
 7442TIP3    H143741   4.748   0.428  15.909  1.5520  1.0697  0.9717
 7442TIP3    H243742   4.736   0.415  16.059  3.2339 -0.6608  0.9816
 7443TIP3   OH243743   0.659   3.346   1.178  0.5489 -0.2216 -0.1232
 7443TIP3    H143744   0.630   3.259   1.205 -1.6575  0.1373 -1.1163
 7443TIP3    H243745   0.579   3.390   1.148  1.5055  2.3407  0.8062
 7444TIP3   OH243746   0.239   5.229   4.834  0.5722 -0.4301  0.4655
 7444TIP3    H143747   0.238   5.191   4.922  1.2756  0.1191  0.7201
 7444TIP3    H243748   0.147   5.244   4.813  0.4366  0.4872  1.5891
 7445TIP3   OH243749   2.389   4.718  14.975 -0.1190  0.3042 -0.2442
 7445TIP3    H143750   2.315   4.737  14.917  0.1856  2.5768  0.0127
 7445TIP3    H243751   2.349   4.710  15.062 -0.3972 -1.6405 -0.5126
 7446TIP3   OH243752   4.500   2.296   5.686 -0.5482  0.2456  0.2203
 7446TIP3    H143753   4.539   2.236   5.623 -1.3721  0.4579 -0.5065
 7446TIP3    H243754   4.407   2.276   5.684 -0.6345  0.5035  1.1139
 7447TIP3   OH243755   6.023   5.224  13.612  0.5760 -0.0947 -0.1003
 7447TIP3    H143756   6.089   5.164  13.647 -0.6096 -0.3557  1.8849
 7447TIP3    H243757   6.069   5.276  13.547  3.4524  1.4446  2.9176
 7448TIP3   OH243758   0.430   0.313  17.000 -0.2322 -0.2322 -0.1675
 7448TIP3    H143759   0.450   0.403  16.972 -1.0957  0.1763  0.4628
 7448TIP3    H243760   0.485   0.300  17.077 -0.0898 -0.2539 -0.2727
 7449TIP3   OH243761   4.993   2.150  14.778 -0.1632  0.4928  0.0201
 7449TIP3    H143762   5.066   2.156  14.717  1.2957  0.3143  1.6720
 7449TIP3    H243763   4.974   2.240  14.803  0.3379  0.4627  0.5268
 7450TIP3   OH243764   4.224   3.306  17.092  0.1005  0.1033 -0.4291
 7450TIP3    H143765   4.213   3.395  17.058  2.0379 -0.0089 -1.5348
 7450TIP3    H243766   4.314   3.283  17.067  0.2054 -1.5552  1.2801
 7451TIP3   OH243767   1.226   2.803  11.506  0.0645  0.9348 -0.3397
 7451TIP3    H143768   1.135   2.813  11.533 -0.4796 -0.9256 -1.2971
 7451TIP3    H243769   1.271   2.774  11.585 -0.8206 -1.0622 -0.4947
 7452TIP3   OH243770   1.810   4.629   0.142 -0.5039  0.1648  0.0342
 7452TIP3    H143771   1.822   4.553   0.200 -0.2932 -0.3798 -0.7122
 7452TIP3    H243772   1.895   4.673   0.142  0.1533 -1.0183 -1.4961
 7453TIP3   OH243773   0.588   4.916  16.764  0.8572 -0.2759  0.1025
 7453TIP3    H143774   0.563   4.902  16.672 -0.3417  1.5651  0.1044
 7453TIP3    H243775   0.668   4.864  16.774  0.8984 -0.7190 -1.9112
 7454TIP3   OH243776   3.631   1.912   3.692 -0.5510  0.1453  0.4257
 7454TIP3    H143777   3.612   1.827   3.653  0.7699 -0.0771  0.2088
 7454TIP3    H243778   3.641   1.893   3.785  1.2090 -0.2579  0.2068
 7455TIP3   OH243779   2.296   6.088   5.930  0.1724 -0.3224 -0.1250
 7455TIP3    H143780   2.339   6.011   5.894  0.6859 -0.5257  0.8929
 7455TIP3    H243781   2.225   6.054   5.984  0.1249 -0.0621 -0.0192
 7456TIP3   OH243782   5.988   5.321  14.199  0.3632 -0.0489 -0.6910
 7456TIP3    H143783   6.072   5.366  14.198 -0.1232  0.8722 -1.5271
 7456TIP3    H243784   5.994   5.257  14.128 -0.4052  1.5096 -2.2126
 7457TIP3   OH243785   6.780   6.384  12.882  0.5760 -0.1849  0.0342
 7457TIP3    H143786   6.866   6.344  12.866  1.6511  1.7270  0.6053
 7457TIP3    H243787   6.744   6.335  12.956 -0.3339 -3.0984 -2.1694
 7458TIP3   OH243788   3.995   5.239   2.670  0.2932  0.9405  0.3196
 7458TIP3    H143789   4.057   5.170   2.648  1.0044  1.6480  0.0282
 7458TIP3    H243790   3.927   5.233   2.603  1.6977  2.1550 -1.3071
 7459TIP3   OH243791   1.999   1.180   4.803 -0.7026  0.1434 -0.2377
 7459TIP3    H143792   1.936   1.109   4.794  0.4920 -1.0772  0.7061
 7459TIP3    H243793   2.029   1.197   4.714 -2.1338  0.5861 -0.6732
 7460TIP3   OH243794   0.705   2.870  11.888 -0.3787 -0.2109 -0.3038
 7460TIP3    H143795   0.689   2.844  11.979 -2.1767  0.2374 -0.4528
 7460TIP3    H243796   0.800   2.859  11.876 -0.1058 -0.2827  1.6119
 7461TIP3   OH243797   0.295   5.548  12.788  0.2057  0.1141  0.1788
 7461TIP3    H143798   0.272   5.469  12.838 -0.2695 -0.3408 -0.7315
 7461TIP3    H243799   0.226   5.611  12.808 -0.8189 -0.5790 -1.0273
 7462TIP3   OH243800   5.474   4.468  14.816  0.1547 -1.1337  0.0487
 7462TIP3    H143801   5.567   4.470  14.795 -0.2696  0.5757 -2.0617
 7462TIP3    H243802   5.444   4.383  14.782  0.0164  0.4707 -4.5738
 7463TIP3   OH243803   0.224   0.535  15.363  0.2427 -0.2047  0.4472
 7463TIP3    H143804   0.253   0.563  15.450  0.2536  0.1453  0.3312
 7463TIP3    H243805   0.301   0.546  15.307  0.3254 -0.7212  0.4549
 7464TIP3   OH243806   2.180   1.771  11.952 -0.7605 -0.2575 -0.0249
 7464TIP3    H143807   2.138   1.748  11.869 -1.4399  2.6901 -0.6021
 7464TIP3    H243808   2.269   1.797  11.927 -0.0471 -1.9783  0.5895
 7465TIP3   OH243809   2.451   1.633   1.152 -0.0723 -0.6438  0.2839
 7465TIP3    H143810   2.505   1.672   1.221  0.3419  0.1521 -0.4705
 7465TIP3    H243811   2.411   1.708   1.108 -0.3196 -1.1411 -0.3577
 7466TIP3   OH243812   1.832   3.673   4.087 -0.2341  0.1863  0.2086
 7466TIP3    H143813   1.850   3.669   4.181 -0.2171 -0.7676  0.1736
 7466TIP3    H243814   1.741   3.645   4.078 -0.2008  0.1632 -0.0656
 7467TIP3   OH243815   3.005   2.897  12.545 -0.4424  0.0781 -0.5828
 7467TIP3    H143816   3.082   2.940  12.508 -0.7656  1.9535  0.7684
 7467TIP3    H243817   2.998   2.814  12.497  3.8185 -1.3848  0.8966
 7468TIP3   OH243818   2.444   3.886  16.264 -0.1108 -0.0586 -0.3609
 7468TIP3    H143819   2.512   3.928  16.318 -0.1379 -0.5367  0.0486
 7468TIP3    H243820   2.461   3.792  16.272 -0.7427 -0.1780 -0.3595
 7469TIP3   OH243821   6.100   6.277  13.888  0.0469 -0.9983 -0.1844
 7469TIP3    H143822   6.076   6.188  13.914  1.8120 -0.9476  1.8129
 7469TIP3    H243823   6.195   6.279  13.894  0.3614  0.1061 -3.4815
 7470TIP3   OH243824   0.554   2.670   0.924 -0.0355 -0.4864 -0.1162
 7470TIP3    H143825   0.476   2.616   0.909 -1.1117  1.1331 -0.6104
 7470TIP3    H243826   0.592   2.683   0.837  0.7156 -1.1369  0.1044
 7471TIP3   OH243827   0.461   5.232  16.550  0.5042  0.3398  0.3187
 7471TIP3    H143828   0.491   5.191  16.468 -1.5816  1.8563 -1.3065
 7471TIP3    H243829   0.459   5.325  16.531  0.2737  0.7684  2.2466
 7472TIP3   OH243830   1.304   0.778   1.580  0.7153 -0.3204  0.2402
 7472TIP3    H143831   1.236   0.728   1.625  0.9375 -0.8803 -0.0359
 7472TIP3    H243832   1.299   0.748   1.489  0.9840  0.0156  0.1146
 7473TIP3   OH243833   2.801   0.523  16.661  0.5487 -0.4674  0.1511
 7473TIP3    H143834   2.842   0.452  16.612  1.2169  0.2147 -0.2966
 7473TIP3    H243835   2.843   0.602  16.629 -0.7648  0.2239  0.0465
 7474TIP3   OH243836   0.121   1.096  11.785  0.1291 -0.3322  0.3617
 7474TIP3    H143837   0.092   1.020  11.734 -0.3378  0.5214 -0.6920
 7474TIP3    H243838   0.096   1.171  11.731  1.1695  0.5517  1.0871
 7475TIP3   OH243839   3.649   5.425   3.144 -0.1570  0.2927 -0.1671
 7475TIP3    H143840   3.606   5.413   3.228 -1.0010  1.3958 -0.4101
 7475TIP3    H243841   3.607   5.363   3.085 -0.1524  0.1098  0.0243
 7476TIP3   OH243842   4.625   3.215   0.281  0.7351 -0.5573 -0.1570
 7476TIP3    H143843   4.556   3.149   0.275  0.0841 -0.0884  1.5809
 7476TIP3    H243844   4.692   3.175   0.337 -0.4579  0.8379  2.3935
 7477TIP3   OH243845   1.721   3.729  17.038 -0.5026  0.0858 -0.2264
 7477TIP3    H143846   1.763   3.751  16.955 -0.1582  2.3794  0.4901
 7477TIP3    H243847   1.654   3.664  17.014 -0.2632  0.5090 -2.2546
 7478TIP3   OH243848   2.304   0.128   0.258 -0.0284 -0.7783 -0.3545
 7478TIP3    H143849   2.321   0.157   0.168  4.3166 -0.2203  0.4520
 7478TIP3    H243850   2.248   0.197   0.295 -0.1680  0.0550 -2.0388
 7479TIP3   OH243851   0.686   1.782  11.850 -0.1832  0.1762 -0.1822
 7479TIP3    H143852   0.748   1.709  11.848 -0.7446 -0.3006 -1.2261
 7479TIP3    H243853   0.662   1.790  11.942 -1.0206 -1.7518 -0.1808
 7480TIP3   OH243854   6.169   4.039  13.621  0.4097 -0.0974  0.0643
 7480TIP3    H143855   6.250   3.988  13.611  0.5343  0.0294  0.4438
 7480TIP3    H243856   6.108   3.978  13.663  0.4040 -0.0918  0.0638
 7481TIP3   OH243857   2.931   2.369  12.713 -0.6452 -0.0808 -0.6460
 7481TIP3    H143858   2.861   2.306  12.695 -1.3856  0.9965 -1.6604
 7481TIP3    H243859   2.886   2.452  12.727  0.3722  0.4059 -0.1664
 7482TIP3   OH243860   4.065   6.733   2.597  0.9676  0.0071  0.0421
 7482TIP3    H143861   4.125   6.759   2.527 -0.8945 -1.2384 -2.1865
 7482TIP3    H243862   3.983   6.779   2.576  0.1595 -0.9485  0.9927
 7483TIP3   OH243863   5.678   1.897   4.556 -0.0889  0.4298 -0.2833
 7483TIP3    H143864   5.686   1.993   4.551 -1.1421  0.5212 -0.4705
 7483TIP3    H243865   5.621   1.882   4.632  0.4738 -0.0780  0.0416
 7484TIP3   OH243866   6.658   1.798  11.150  0.3277 -0.6348 -0.2129
 7484TIP3    H143867   6.578   1.746  11.155  2.5533 -4.4838 -0.5752
 7484TIP3    H243868   6.673   1.827  11.240 -0.3667 -1.7237  0.2811
 7485TIP3   OH243869   5.963   5.303  14.557 -0.2580 -0.6968  0.4568
 7485TIP3    H143870   5.986   5.395  14.565  2.0625 -1.2696  0.9788
 7485TIP3    H243871   5.886   5.302  14.500  0.0795  1.4957 -0.1031
 7486TIP3   OH243872   3.429   6.399   3.944 -0.3067  0.1105 -0.2250
 7486TIP3    H143873   3.520   6.374   3.928 -0.3580 -1.6792  1.8271
 7486TIP3    H243874   3.428   6.494   3.936  0.9946 -0.0048 -3.5401
 7487TIP3   OH243875   0.108   3.276  14.794 -0.2860  0.4212  0.3548
 7487TIP3    H143876   0.030   3.330  14.781 -0.5118 -0.4235 -2.3754
 7487TIP3    H243877   0.100   3.206  14.730  1.7467 -0.8592  1.3920
 7488TIP3   OH243878   0.225   3.506   0.845  0.0185 -0.2201 -0.1801
 7488TIP3    H143879   0.190   3.588   0.810  0.0363 -0.4858 -0.8516
 7488TIP3    H243880   0.147   3.453   0.862 -0.1259  0.6680  2.2328
 7489TIP3   OH243881   1.843   0.308  12.305 -0.6043 -0.4943 -0.6814
 7489TIP3    H143882   1.791   0.320  12.384  0.1358 -0.0455 -0.2482
 7489TIP3    H243883   1.835   0.215  12.285 -2.7753 -0.1865 -1.4997
 7490TIP3   OH243884   1.222   5.230   1.595 -0.4662  0.3829 -0.1839
 7490TIP3    H143885   1.214   5.157   1.656 -0.3837 -1.2090 -1.9784
 7490TIP3    H243886   1.310   5.223   1.559  0.0647  2.2556  0.6075
 7491TIP3   OH243887   1.655   1.147   5.708 -0.0077 -0.1290 -0.0273
 7491TIP3    H143888   1.690   1.213   5.768 -0.7668 -0.3534  0.6895
 7491TIP3    H243889   1.566   1.131   5.740 -0.2108 -0.7013 -0.8573
 7492TIP3   OH243890   0.270   6.083   4.466  0.1983 -0.4715 -0.1816
 7492TIP3    H143891   0.206   6.015   4.489  0.0217 -0.4854 -0.6934
 7492TIP3    H243892   0.286   6.070   4.372 -0.3840  0.6336 -0.4641
 7493TIP3   OH243893   0.769   6.705  10.843  0.4400  0.6646 -0.2682
 7493TIP3    H143894   0.861   6.714  10.817  1.6183 -0.8924  2.8895
 7493TIP3    H243895   0.750   6.612  10.830 -0.6908  0.9501 -0.7734
 7494TIP3   OH243896   1.740   2.993  14.377  0.2886  0.2597  0.4762
 7494TIP3    H143897   1.706   3.027  14.460 -0.3775  2.3057 -0.5917
 7494TIP3    H243898   1.797   3.062  14.344 -0.5365  0.0673 -1.4462
 7495TIP3   OH243899   1.984   1.360  14.462  0.1332 -0.0291 -0.2140
 7495TIP3    H143900   1.902   1.396  14.429  0.7710  1.5725 -0.1687
 7495TIP3    H243901   2.052   1.397  14.405  0.8645 -1.0036 -0.0098
 7496TIP3   OH243902   5.146   3.382   4.229 -0.1047 -0.1557  0.0948
 7496TIP3    H143903   5.079   3.413   4.168  0.7726  2.2010  0.2224
 7496TIP3    H243904   5.226   3.379   4.178  0.1783 -0.4895  0.5546
 7497TIP3   OH243905   0.852   4.178   5.414 -0.4401 -0.3817  0.3687
 7497TIP3    H143906   0.933   4.149   5.456  0.7758  1.2509 -0.6885
 7497TIP3    H243907   0.830   4.260   5.458  0.2036  0.7411 -1.3091
 7498TIP3   OH243908   6.184   2.478  12.786  0.8163 -0.7043  0.1914
 7498TIP3    H143909   6.128   2.509  12.857 -0.9697  0.1368 -1.4953
 7498TIP3    H243910   6.259   2.438  12.831 -1.0110 -1.7389  2.5457
 7499TIP3   OH243911   5.037   4.924  15.566 -0.1675 -0.3703 -0.3742
 7499TIP3    H143912   4.956   4.974  15.556 -0.6900 -1.2131 -0.5136
 7499TIP3    H243913   5.035   4.894  15.657 -1.2032 -2.3426 -1.0012
 7500TIP3   OH243914   4.201   3.803   0.000 -0.2555 -0.3459 -0.3170
 7500TIP3    H143915   4.123   3.850   0.031  1.4441  2.0097  0.6941
 7500TIP3    H243916   4.244   3.773   0.080  0.2257 -1.0557 -0.8342
 7501TIP3   OH243917   3.275   3.999   6.052 -1.0891 -0.3516 -0.1452
 7501TIP3    H143918   3.268   3.968   5.961 -0.1723 -2.6484  0.5088
 7501TIP3    H243919   3.357   4.048   6.054 -0.5539 -1.2252 -0.3200
 7502TIP3   OH243920   0.288   4.811  16.782  0.6050 -0.6883  0.4244
 7502TIP3    H143921   0.365   4.841  16.830  0.7856 -3.6535  2.2161
 7502TIP3    H243922   0.282   4.871  16.708  4.2156  0.0901  0.5547
 7503TIP3   OH243923   4.690   5.664   3.271  0.4863 -0.2444  0.8715
 7503TIP3    H143924   4.724   5.745   3.308  0.9754 -0.3750  0.7165
 7503TIP3    H243925   4.602   5.687   3.242  1.1565  0.6786 -0.5872
 7504TIP3   OH243926   5.246   1.958  10.510  0.3161 -0.1519 -0.0965
 7504TIP3    H143927   5.254   1.868  10.541  1.5344 -0.6244 -1.6217
 7504TIP3    H243928   5.158   1.963  10.471  0.7260 -1.1130 -1.2005
 7505TIP3   OH243929   6.256   6.238   1.571 -0.6039  0.5050  0.3188
 7505TIP3    H143930   6.348   6.212   1.563 -0.3498  1.5282 -0.3935
 7505TIP3    H243931   6.257   6.333   1.554 -1.6941  0.6632  1.0515
 7506TIP3   OH243932   5.350   0.024  13.190 -0.3522  0.0964 -0.4320
 7506TIP3    H143933   5.444   0.033  13.210  0.3998 -1.2255 -2.9684
 7506TIP3    H243934   5.321   0.114  13.175  0.5616  0.5081  0.1244
 7507TIP3   OH243935   0.686   5.869   1.598  0.2304  0.2906  0.2398
 7507TIP3    H143936   0.720   5.955   1.624 -2.4458  1.4190  0.2509
 7507TIP3    H243937   0.670   5.876   1.504 -1.3125  0.3325  0.4802
 7508TIP3   OH243938   5.978   2.803  13.881  0.1408 -0.0665 -0.4410
 7508TIP3    H143939   6.035   2.772  13.811 -1.0941 -1.0810 -1.0402
 7508TIP3    H243940   5.889   2.791  13.846 -0.4896 -0.3553  1.1997
 7509TIP3   OH243941   6.094   1.594   3.553  0.0386  0.3998  0.0358
 7509TIP3    H143942   6.135   1.513   3.523  1.1675  0.7578  0.5735
 7509TIP3    H243943   6.049   1.569   3.634  1.6316  0.5948  1.0174
 7510TIP3   OH243944   5.329   6.301  14.410 -0.2362  0.7484 -0.4639
 7510TIP3    H143945   5.358   6.384  14.446 -1.0833  0.6484  0.5179
 7510TIP3    H243946   5.280   6.324  14.332 -0.8216  1.2208  0.0307
 7511TIP3   OH243947   5.677   5.120  16.176  0.4963  0.5111 -0.4876
 7511TIP3    H143948   5.611   5.121  16.107  1.4041  1.6048 -1.3895
 7511TIP3    H243949   5.627   5.117  16.257 -0.8500  4.0582 -0.9973
 7512TIP3   OH243950   4.239   0.094  13.482  0.2991 -0.3779 -0.4156
 7512TIP3    H143951   4.290   0.141  13.417 -0.5419 -1.3017 -1.7992
 7512TIP3    H243952   4.177   0.041  13.431 -0.1914 -1.3685  1.1189
 7513TIP3   OH243953   3.697   5.767   2.724 -0.6326 -0.3453  0.2139
 7513TIP3    H143954   3.634   5.799   2.789 -1.9360 -0.2474 -1.0427
 7513TIP3    H243955   3.732   5.687   2.762 -3.1856 -1.6314  0.0479
 7514TIP3   OH243956   0.408   2.315   3.672 -0.1256 -0.6350  0.9561
 7514TIP3    H143957   0.420   2.387   3.733 -1.1132  2.8977 -2.6098
 7514TIP3    H243958   0.467   2.334   3.599  1.6858 -5.1007  0.9447
 7515TIP3   OH243959   1.707   5.132   2.452  0.1071 -0.3204 -0.1862
 7515TIP3    H143960   1.757   5.178   2.384 -1.5530  1.3563 -0.3925
 7515TIP3    H243961   1.710   5.040   2.427  2.5436 -0.2162 -0.4777
 7516TIP3   OH243962   2.930   6.124  16.893 -0.1035  0.1008  0.3379
 7516TIP3    H143963   2.880   6.077  16.960  0.0278  0.8937  0.9986
 7516TIP3    H243964   2.873   6.121  16.816  0.0729 -1.4844  0.2329
 7517TIP3   OH243965   5.785   5.431   0.141  0.3833 -0.4919  0.0529
 7517TIP3    H143966   5.779   5.432   0.046 -0.8178 -0.0312  0.1207
 7517TIP3    H243967   5.740   5.510   0.170  1.6212 -0.0893  0.9759
 7518TIP3   OH243968   5.497   1.802   2.962  0.4273 -0.0725 -0.3738
 7518TIP3    H143969   5.578   1.828   2.918  1.3116  0.5293  1.5084
 7518TIP3    H243970   5.436   1.873   2.942  1.3607  1.0948  0.7699
 7519TIP3   OH243971   3.605   6.565   2.804  0.4696  0.2086  0.5421
 7519TIP3    H143972   3.657   6.518   2.739 -0.4689  0.8634 -0.7304
 7519TIP3    H243973   3.655   6.644   2.823  0.4294  0.3439  0.0931
 7520TIP3   OH243974   3.433   2.426  16.643  0.4084 -0.2343  0.0960
 7520TIP3    H143975   3.357   2.414  16.586 -1.4064 -1.3461  2.5641
 7520TIP3    H243976   3.421   2.513  16.681 -0.7848 -1.1377  1.9363
 7521TIP3   OH243977   2.091   0.386  15.435 -0.1746  0.0746 -0.0776
 7521TIP3    H143978   2.047   0.301  15.438 -2.1382  1.0468 -0.4097
 7521TIP3    H243979   2.085   0.414  15.344  1.9504 -0.1357 -0.3389
 7522TIP3   OH243980   0.541   5.674  11.338 -0.9367 -0.2902  0.4299
 7522TIP3    H143981   0.503   5.608  11.280  1.0130  0.4766 -1.8796
 7522TIP3    H243982   0.615   5.629  11.380 -1.3959 -0.4002  1.1241
 7523TIP3   OH243983   0.317   5.493  16.235 -0.4963 -0.3696  0.6113
 7523TIP3    H143984   0.266   5.476  16.314 -0.3185  0.7405  0.9710
 7523TIP3    H243985   0.356   5.579  16.249 -0.3049 -0.2435 -0.6043
 7524TIP3   OH243986   6.083   4.500  12.230  0.2673  0.1894 -0.5827
 7524TIP3    H143987   6.024   4.458  12.293 -0.5354  1.4339 -0.4645
 7524TIP3    H243988   6.056   4.592  12.230  0.1503  0.1934 -2.8805
 7525TIP3   OH243989   5.337   3.914  16.123  0.3426 -0.0402  0.4637
 7525TIP3    H143990   5.393   3.978  16.167  1.4641 -0.1025 -0.7892
 7525TIP3    H243991   5.305   3.959  16.045 -1.3795 -0.0224  1.1407
 7526TIP3   OH243992   2.171   5.533   5.071 -0.2860 -0.2838  0.0675
 7526TIP3    H143993   2.113   5.599   5.109  1.8540  1.6033  0.2116
 7526TIP3    H243994   2.144   5.528   4.979 -2.2220 -1.2562  0.6222
 7527TIP3   OH243995   1.013   5.814  11.842  0.2280 -0.8212 -0.2017
 7527TIP3    H143996   1.022   5.816  11.937 -1.1279 -1.3350 -0.0368
 7527TIP3    H243997   0.976   5.899  11.819  1.0587 -0.4922 -0.3386
 7528TIP3   OH243998   3.484   2.751   2.100 -0.2168  0.2234  0.1130
 7528TIP3    H143999   3.474   2.808   2.023  1.9346  0.3142 -0.1646
 7528TIP3    H244000   3.491   2.812   2.174 -1.5473  0.1611  0.3064
 7529TIP3   OH244001   1.262   1.503  17.270 -0.9551  0.3201 -0.3032
 7529TIP3    H144002   1.171   1.496  17.298 -0.4948  0.4618  1.3043
 7529TIP3    H244003   1.312   1.503  17.351  0.4010  1.5475 -1.1067
 7530TIP3   OH244004   3.369   4.715   5.187  0.5382  0.2950  0.1007
 7530TIP3    H144005   3.320   4.796   5.199  0.2084 -0.0202  0.9862
 7530TIP3    H244006   3.348   4.662   5.264 -0.5829 -1.3179 -1.2461
 7531TIP3   OH244007   3.397   3.965  12.047  0.0430  0.0438  0.6110
 7531TIP3    H144008   3.348   3.886  12.024 -0.2190  0.9184 -2.1438
 7531TIP3    H244009   3.480   3.932  12.082 -0.7170 -1.4388  1.0798
 7532TIP3   OH244010   5.135   0.567  17.033  0.0661 -0.1655  0.1775
 7532TIP3    H144011   5.084   0.617  17.097 -0.8423 -0.5697 -0.2082
 7532TIP3    H244012   5.184   0.634  16.985  1.4401  0.0907  1.8244
 7533TIP3   OH244013   5.604   0.491  14.991 -0.6153 -0.1136  0.5977
 7533TIP3    H144014   5.630   0.401  15.012 -1.0037 -0.4318 -0.2560
 7533TIP3    H244015   5.510   0.494  15.011 -0.6180  0.0730  0.5555
 7534TIP3   OH244016   2.686   3.330  16.138 -0.4982 -0.1690  0.3733
 7534TIP3    H144017   2.637   3.261  16.093 -0.9009  1.0221 -1.1024
 7534TIP3    H244018   2.772   3.293  16.155 -0.5337 -0.8460 -0.8928
 7535TIP3   OH244019   6.672   4.385  16.056  0.2015  0.6907 -0.1214
 7535TIP3    H144020   6.699   4.301  16.093  0.4729 -0.5659 -2.9042
 7535TIP3    H244021   6.585   4.400  16.093 -0.3462 -1.4373 -0.3812
 7536TIP3   OH244022   2.582   4.826  15.618  0.2403 -0.5269  0.1324
 7536TIP3    H144023   2.521   4.755  15.602 -0.3300  0.3191 -1.7514
 7536TIP3    H244024   2.534   4.888  15.673 -0.1168 -0.4885 -0.2234
 7537TIP3   OH244025   4.434   0.451  16.841 -0.0627  0.1684 -0.1558
 7537TIP3    H144026   4.463   0.538  16.812 -0.2820  0.0473 -0.7391
 7537TIP3    H244027   4.361   0.469  16.900  0.2059  0.4005  0.1113
 7538TIP3   OH244028   4.581   6.482   4.832 -0.5975  0.3241 -0.3207
 7538TIP3    H144029   4.604   6.569   4.863  0.4601 -0.6341  1.8492
 7538TIP3    H244030   4.503   6.459   4.882 -1.0416  0.1376 -1.0962
 7539TIP3   OH244031   5.835   5.332  16.093  0.5926  0.2588 -0.3842
 7539TIP3    H144032   5.753   5.370  16.062 -0.0401 -0.2685  0.5932
 7539TIP3    H244033   5.813   5.241  16.111  1.8096 -0.3164 -1.6332
 7540TIP3   OH244034   5.253   6.179   0.724  0.2131  0.2370  0.1675
 7540TIP3    H144035   5.159   6.168   0.741  0.0009 -1.3801 -1.6856
 7540TIP3    H244036   5.271   6.120   0.651  2.6533  0.6781  0.3342
 7541TIP3   OH244037   3.934   0.540  11.025 -0.5288 -0.2414  0.1665
 7541TIP3    H144038   3.897   0.589  10.951 -1.0077  2.0811  1.8547
 7541TIP3    H244039   4.002   0.485  10.985 -1.0591  0.6112 -2.0576
 7542TIP3   OH244040   2.445   5.730   4.826 -0.3671 -0.1108 -0.0133
 7542TIP3    H144041   2.400   5.743   4.910 -0.4624  1.2743 -0.2507
 7542TIP3    H244042   2.376   5.739   4.760 -0.1061 -0.1029 -0.2863
 7543TIP3   OH244043   1.181   4.331   3.408  0.5859 -0.7949 -0.2689
 7543TIP3    H144044   1.215   4.275   3.478 -0.7122 -2.4265 -0.8937
 7543TIP3    H244045   1.149   4.409   3.453  3.2000 -0.0726  0.5401
 7544TIP3   OH244046   0.281   5.883   6.053 -0.3863  0.1705  0.2248
 7544TIP3    H144047   0.243   5.862   6.139  1.7725 -1.5047  0.8791
 7544TIP3    H244048   0.358   5.936   6.073  0.1725 -0.2844 -0.6577
 7545TIP3   OH244049   2.725   3.740  11.433 -0.4626  0.3828  0.0034
 7545TIP3    H144050   2.757   3.831  11.438  0.3088  0.1659 -0.6443
 7545TIP3    H244051   2.657   3.735  11.500 -1.9440  2.0066 -1.2709
 7546TIP3   OH244052   0.930   0.516  16.960 -0.0288  0.0627  0.0569
 7546TIP3    H144053   0.966   0.563  16.885 -0.9465  0.4815 -0.1420
 7546TIP3    H244054   0.912   0.584  17.024  0.4907 -0.2614  0.5449
 7547TIP3   OH244055   3.731   5.902   4.386 -0.3630  0.0035  0.1519
 7547TIP3    H144056   3.636   5.891   4.375 -0.2842 -1.2520  0.5731
 7547TIP3    H244057   3.746   5.892   4.480  0.2726 -0.5992 -0.0034
 7548TIP3   OH244058   0.529   5.723  14.530 -0.1472 -0.2933  0.5750
 7548TIP3    H144059   0.465   5.653  14.546 -0.6344 -0.4306 -1.6542
 7548TIP3    H244060   0.587   5.688  14.462  0.8615  0.7232  0.8811
 7549TIP3   OH244061   5.341   6.267  13.410 -0.5078  0.2253  0.2918
 7549TIP3    H144062   5.275   6.335  13.400 -1.3639 -0.4386  1.2808
 7549TIP3    H244063   5.403   6.302  13.474 -0.4635  0.4273  0.1395
 7550TIP3   OH244064   0.196   3.611  13.167 -0.3629 -0.1713 -0.2091
 7550TIP3    H144065   0.239   3.582  13.086  0.3360  1.7025 -0.5697
 7550TIP3    H244066   0.124   3.549  13.180  0.5432 -1.5155 -1.3245
 7551TIP3   OH244067   0.906   2.284   2.009  0.0706  0.5362  0.0149
 7551TIP3    H144068   0.915   2.267   2.103 -0.5612 -1.0752 -0.1838
 7551TIP3    H244069   0.976   2.233   1.968 -1.5927 -1.4016 -0.5740
 7552TIP3   OH244070   2.891   4.776   2.291 -0.1145 -0.0685 -0.5719
 7552TIP3    H144071   2.984   4.777   2.267  0.2220  0.6804  0.6858
 7552TIP3    H244072   2.881   4.696   2.343  0.3425  0.9231  1.1115
 7553TIP3   OH244073   6.389   4.771  17.233  0.1242  0.1514 -0.2146
 7553TIP3    H144074   6.335   4.695  17.255 -0.1598  0.7042  1.1036
 7553TIP3    H244075   6.373   4.834  17.304  2.6018  0.2644  0.3669
 7554TIP3   OH244076   4.609   0.084   1.920  0.0677  0.7378 -0.2075
 7554TIP3    H144077   4.689   0.129   1.947 -1.2719  2.0365  1.9608
 7554TIP3    H244078   4.539   0.146   1.939 -1.5050 -0.4034 -1.8999
 7555TIP3   OH244079   1.829   0.584  12.306  0.1721 -0.5497 -0.1022
 7555TIP3    H144080   1.850   0.493  12.329 -0.4782 -0.8526 -0.6762
 7555TIP3    H244081   1.734   0.588  12.309  0.2201  0.4904  1.2675
 7556TIP3   OH244082   4.447   5.876   2.349 -0.0186 -0.6158 -0.4914
 7556TIP3    H144083   4.469   5.960   2.309  0.2938 -0.9997 -1.1458
 7556TIP3    H244084   4.504   5.813   2.305 -1.8635 -1.5332 -1.7021
 7557TIP3   OH244085   1.516   6.221  14.165 -0.1268  0.2817  0.1131
 7557TIP3    H144086   1.441   6.261  14.207 -0.0426 -0.2948  0.8420
 7557TIP3    H244087   1.588   6.283  14.179  0.5086 -0.9536  3.0490
 7558TIP3   OH244088   4.475   4.559  15.923 -0.0135  0.0245 -0.1515
 7558TIP3    H144089   4.509   4.642  15.889 -2.3047  1.7087  1.2552
 7558TIP3    H244090   4.439   4.583  16.009 -0.9611 -2.4054  0.1977
 7559TIP3   OH244091   0.764   3.846   6.503 -0.0301  0.2613  0.3234
 7559TIP3    H144092   0.723   3.926   6.470  0.5754  0.4664  0.0632
 7559TIP3    H244093   0.699   3.777   6.487  0.5671  0.1725 -2.1921
 7560TIP3   OH244094   4.990   2.189   2.923 -0.0845  0.1439  0.0121
 7560TIP3    H144095   4.995   2.277   2.884  0.3340  0.4825  0.8067
 7560TIP3    H244096   5.019   2.202   3.013  0.0254 -0.8278  0.1167
 7561TIP3   OH244097   0.577   6.468   1.741  0.4228  0.2521  0.2625
 7561TIP3    H144098   0.482   6.458   1.739  0.5014 -0.5313  0.3540
 7561TIP3    H244099   0.605   6.446   1.653  0.4228  1.6627 -0.1225
 7562TIP3   OH244100   1.383   1.712   1.886  0.5230  0.4336 -0.1320
 7562TIP3    H144101   1.374   1.714   1.981  1.2190 -1.0470 -0.0058
 7562TIP3    H244102   1.328   1.784   1.855 -3.1178 -1.5590  1.1379
 7563TIP3   OH244103   1.156   0.681  15.238 -0.0153  0.0825 -0.2079
 7563TIP3    H144104   1.103   0.710  15.312  1.7695 -0.4497  1.3557
 7563TIP3    H244105   1.224   0.625  15.277  2.1302  1.2868 -1.9686
 7564TIP3   OH244106   5.762   3.966  14.097  0.3798  0.3046 -0.1749
 7564TIP3    H144107   5.694   3.898  14.097 -0.3049  0.9719 -0.1590
 7564TIP3    H244108   5.783   3.978  14.004  1.4916 -0.8648 -0.1098
 7565TIP3   OH244109   3.247   5.584  15.688 -0.2111  0.3828 -0.2715
 7565TIP3    H144110   3.288   5.530  15.755 -1.0217  2.3774  1.9891
 7565TIP3    H244111   3.284   5.671  15.701 -2.7019  1.5409 -0.2364
 7566TIP3   OH244112   4.977   0.729  14.141  0.0325  0.6129  0.3295
 7566TIP3    H144113   5.012   0.780  14.214  0.9810  1.3918 -0.6317
 7566TIP3    H244114   4.892   0.698  14.172 -0.3786  2.4041  1.1335
 7567TIP3   OH244115   0.069   5.002   4.409  0.2399 -0.1285 -0.2011
 7567TIP3    H144116   0.049   4.969   4.322  0.3332  0.2556 -0.3669
 7567TIP3    H244117   0.046   5.095   4.406 -1.2360 -0.4424  0.6445
 7568TIP3   OH244118   4.188   1.115   0.860  0.1896 -0.7205 -0.3424
 7568TIP3    H144119   4.142   1.098   0.942 -0.2446  1.3266 -0.1054
 7568TIP3    H244120   4.145   1.058   0.796 -0.8081 -0.8805  0.4556
 7569TIP3   OH244121   0.468   5.731   6.602 -0.6175  0.2037 -0.2291
 7569TIP3    H144122   0.454   5.657   6.661  0.9034 -0.5862 -0.8005
 7569TIP3    H244123   0.503   5.800   6.658 -0.3976 -0.0985  0.0062
 7570TIP3   OH244124   0.910   0.675   4.579  0.5545  0.5160 -0.0890
 7570TIP3    H144125   0.831   0.691   4.527  0.4041 -0.7454 -0.2989
 7570TIP3    H244126   0.916   0.749   4.638 -2.0518 -0.3665  1.4548
 7571TIP3   OH244127   6.431   2.025  12.388 -0.3120  0.2678  0.4197
 7571TIP3    H144128   6.451   1.988  12.474  0.3715  0.1244  0.2022
 7571TIP3    H244129   6.349   1.983  12.362 -0.2707 -0.0448  0.7904
 7572TIP3   OH244130   3.774   4.670  12.592 -0.3828  0.4836 -0.0260
 7572TIP3    H144131   3.781   4.575  12.582 -1.2927  0.3967  0.0611
 7572TIP3    H244132   3.779   4.705  12.503 -1.6063  0.2225 -0.2210
 7573TIP3   OH244133   2.867   5.775  11.456 -0.5357 -0.1110 -0.2103
 7573TIP3    H144134   2.798   5.712  11.435  0.4062 -1.4963  0.6544
 7573TIP3    H244135   2.943   5.744  11.406  0.5188 -0.9351  1.7857
 7574TIP3   OH244136   0.791   1.541   0.008  0.2008 -0.1781 -0.1090
 7574TIP3    H144137   0.811   1.561  -0.083 -0.9083 -0.4734 -0.4342
 7574TIP3    H244138   0.804   1.447   0.016  2.2488  0.1278  0.5773
 7575TIP3   OH244139   5.626   0.750   2.757 -0.0411  0.2982 -0.4836
 7575TIP3    H144140   5.654   0.676   2.703 -1.8024 -0.9462  0.2147
 7575TIP3    H244141   5.531   0.752   2.748 -0.4536 -0.0487  2.5876
 7576TIP3   OH244142   0.616   0.946  15.809  0.5125 -0.1316 -0.3044
 7576TIP3    H144143   0.663   0.912  15.732  1.9709 -1.4446  1.0872
 7576TIP3    H244144   0.579   1.030  15.780  1.3248 -0.4191 -2.3118
 7577TIP3   OH244145   3.260   0.614  13.282 -0.2112  0.1048  0.6685
 7577TIP3    H144146   3.236   0.551  13.214 -1.7552  1.0153  0.3104
 7577TIP3    H244147   3.275   0.696  13.235  1.4818  0.1073  1.1588
 7578TIP3   OH244148   1.299   1.239   2.816  0.0181 -0.1143  0.4134
 7578TIP3    H144149   1.266   1.289   2.741  0.8593  0.2641  0.2769
 7578TIP3    H244150   1.353   1.302   2.864  2.2813 -1.2169 -0.5238
 7579TIP3   OH244151   2.760   4.547  13.874 -0.5747 -0.5850 -0.3198
 7579TIP3    H144152   2.854   4.561  13.865 -1.0849  2.0050 -3.9080
 7579TIP3    H244153   2.741   4.470  13.820 -0.4096 -2.3783  2.0184
 7580TIP3   OH244154   1.946   3.983  16.360  0.2959  0.3089 -0.1041
 7580TIP3    H144155   2.032   3.949  16.335 -0.4989 -0.8568 -1.4151
 7580TIP3    H244156   1.886   3.911  16.344 -1.0274  1.3156  0.1258
 7581TIP3   OH244157   2.913   5.352  12.936 -0.1944 -0.1260  0.3118
 7581TIP3    H144158   2.984   5.395  12.983  0.2461  0.6588 -1.0390
 7581TIP3    H244159   2.955   5.284  12.884 -0.2404  1.1169 -1.4137
 7582TIP3   OH244160   3.134   4.478  16.132  0.0657  0.0124 -0.8633
 7582TIP3    H144161   3.128   4.503  16.039 -0.0972  1.2212 -0.5480
 7582TIP3    H244162   3.227   4.481  16.151  0.2359 -1.5464 -1.3044
 7583TIP3   OH244163   6.621   6.343   1.970 -0.1785  0.7347 -0.8196
 7583TIP3    H144164   6.595   6.257   1.936  0.4011  1.0622 -2.1934
 7583TIP3    H244165   6.540   6.380   2.005 -0.0169 -1.2273  1.8929
 7584TIP3   OH244166   2.177   5.427   3.550  0.3988  0.6217 -0.7406
 7584TIP3    H144167   2.131   5.408   3.469 -0.9782  0.1069  0.1241
 7584TIP3    H244168   2.268   5.444   3.523  1.0852 -3.7369 -2.0041
 7585TIP3   OH244169   1.087   1.813  12.553  0.5066  0.0107 -0.2541
 7585TIP3    H144170   1.160   1.754  12.573  1.1941  1.2496  1.0712
 7585TIP3    H244171   1.030   1.809  12.629 -0.2204 -0.0576 -0.7890
 7586TIP3   OH244172   1.478   5.178   1.436 -0.0194  0.4027  0.3389
 7586TIP3    H144173   1.516   5.104   1.389  0.2379 -0.6381  2.1154
 7586TIP3    H244174   1.445   5.236   1.366  0.0541 -1.2035 -1.0972
 7587TIP3   OH244175   5.141   4.891  11.194 -0.0198 -0.1348 -0.0852
 7587TIP3    H144176   5.192   4.968  11.168 -0.2468  0.2440  0.5790
 7587TIP3    H244177   5.202   4.818  11.187  0.6463  0.3263  0.8057
 7588TIP3   OH244178   2.726   6.109   0.909  0.1273  0.6634 -0.9267
 7588TIP3    H144179   2.706   6.032   0.962  0.8017  0.6092 -0.7402
 7588TIP3    H244180   2.809   6.141   0.944  0.8354  0.3614 -2.2429
 7589TIP3   OH244181   0.269   1.136   3.950 -0.5441 -0.1606  0.1305
 7589TIP3    H144182   0.230   1.220   3.976  0.0997  0.0011  0.6002
 7589TIP3    H244183   0.236   1.121   3.861 -0.2480  0.8564 -0.1653
 7590TIP3   OH244184   6.132   4.660  14.423  0.0936  0.2104  0.3775
 7590TIP3    H144185   6.107   4.752  14.433 -0.1290  0.0209  1.7345
 7590TIP3    H244186   6.153   4.631  14.512  0.5336 -0.9498 -0.0900
 7591TIP3   OH244187   1.602   5.117  16.904 -0.0857  0.8147  0.2357
 7591TIP3    H144188   1.605   5.192  16.844  1.3710 -0.6987 -1.7500
 7591TIP3    H244189   1.639   5.149  16.986  0.1540  2.3737 -0.4539
 7592TIP3   OH244190   0.559   0.066   0.926  0.1721 -0.8059  0.1931
 7592TIP3    H144191   0.574   0.013   0.848  1.7284 -0.5118  0.2759
 7592TIP3    H244192   0.554   0.156   0.893  0.6026 -0.7042  0.3996
 7593TIP3   OH244193   2.013   5.164  13.480  0.2882  0.5672  0.6485
 7593TIP3    H144194   2.027   5.074  13.510  1.9164  0.2176 -0.9503
 7593TIP3    H244195   2.042   5.163  13.389  0.3493  2.7223  0.6055
 7594TIP3   OH244196   3.765   0.328  13.526  0.0036  0.2055 -0.8318
 7594TIP3    H144197   3.784   0.240  13.557  1.5893  0.0461 -2.0937
 7594TIP3    H244198   3.842   0.379  13.551  0.5732  0.4511 -2.8716
 7595TIP3   OH244199   2.644   3.997  14.284  0.2347  0.1298  0.2265
 7595TIP3    H144200   2.666   4.010  14.377  1.1154  0.2288  0.0147
 7595TIP3    H244201   2.647   3.902  14.272  2.2032  0.2099 -0.1691
 7596TIP3   OH244202   4.138   3.385  11.538 -0.4965  0.0510  0.3263
 7596TIP3    H144203   4.200   3.324  11.497 -3.0012 -2.9368  0.6376
 7596TIP3    H244204   4.065   3.389  11.477 -1.5556  0.5743  1.5846
 7597TIP3   OH244205   4.808   4.643  13.384  0.5902 -0.1543  0.2036
 7597TIP3    H144206   4.875   4.575  13.379  0.0176 -0.7759  0.7910
 7597TIP3    H244207   4.847   4.711  13.439  1.7970  0.7722 -1.6892
 7598TIP3   OH244208   1.052   3.775  14.865 -0.8660  0.2845  0.4632
 7598TIP3    H144209   1.016   3.715  14.800 -0.6429  1.0858 -0.4234
 7598TIP3    H244210   0.975   3.817  14.905 -0.9884  0.2652  0.2476
 7599TIP3   OH244211   0.838   0.140  10.593 -0.3068  0.2907 -0.2359
 7599TIP3    H144212   0.875   0.073  10.650 -0.5739 -0.2710 -0.7157
 7599TIP3    H244213   0.806   0.208  10.653  3.1313  1.7277  0.1919
 7600TIP3   OH244214   0.065   2.198  12.867 -0.2363  0.5448 -0.4347
 7600TIP3    H144215   0.086   2.106  12.852 -0.6197  0.6934 -2.0161
 7600TIP3    H244216   0.139   2.232  12.918 -0.4447 -0.7907  0.8492
 7601TIP3   OH244217   0.745   4.248  12.249  0.5967 -0.2360 -0.0508
 7601TIP3    H144218   0.678   4.222  12.312 -0.0470 -0.0206 -0.6295
 7601TIP3    H244219   0.801   4.171  12.240  0.1062 -0.6072  0.0397
 7602TIP3   OH244220   4.481   4.071  16.582  0.4959  0.0542 -0.3291
 7602TIP3    H144221   4.506   4.059  16.491  1.1635 -0.6121 -0.0639
 7602TIP3    H244222   4.559   4.108  16.624  0.2826  0.1057  0.0256
 7603TIP3   OH244223   6.336   3.766  16.188 -0.1181 -0.0817 -0.1136
 7603TIP3    H144224   6.379   3.849  16.210  1.2671 -0.5176 -1.0105
 7603TIP3    H244225   6.349   3.758  16.093  2.1678 -2.5571  0.2800
 7604TIP3   OH244226   1.886   0.615   2.450  0.1044  0.3625 -0.2845
 7604TIP3    H144227   1.830   0.692   2.458 -0.2246 -0.0312  5.0099
 7604TIP3    H244228   1.825   0.542   2.436 -0.0555  0.5748 -0.6974
 7605TIP3   OH244229   0.967   1.739   5.939  0.4448  0.0452  0.1235
 7605TIP3    H144230   1.021   1.766   5.864  0.3928 -0.7469 -0.2118
 7605TIP3    H244231   0.887   1.791   5.932  0.0696 -0.6413 -0.8814
 7606TIP3   OH244232   6.203   5.904  13.713 -0.0391 -0.0187  0.0556
 7606TIP3    H144233   6.233   5.933  13.799 -1.3759 -0.2387  0.6233
 7606TIP3    H244234   6.115   5.940  13.704 -0.1352 -0.4529 -0.9860
 7607TIP3   OH244235   3.325   6.154   4.067 -0.1085  0.4035  0.2067
 7607TIP3    H144236   3.284   6.181   4.149 -0.0181 -0.4433  0.5377
 7607TIP3    H244237   3.334   6.235   4.017 -3.2091  0.5241 -0.3719
 7608TIP3   OH244238   0.212   2.611  14.508 -0.3983 -0.2888 -0.0345
 7608TIP3    H144239   0.269   2.547  14.550 -2.4995 -1.5569  1.0306
 7608TIP3    H244240   0.255   2.695  14.524  0.3398 -1.0318  2.1811
 7609TIP3   OH244241   5.015   1.970   2.465 -0.8296 -0.3421  0.2577
 7609TIP3    H144242   5.090   2.018   2.501 -0.9059  0.7239 -0.9698
 7609TIP3    H244243   4.955   2.038   2.435 -1.6881 -1.2038 -0.0131
 7610TIP3   OH244244   4.304   3.063  12.709  0.1606 -0.2901 -0.4967
 7610TIP3    H144245   4.278   3.062  12.802  1.8789 -2.4069  0.0371
 7610TIP3    H244246   4.247   2.998  12.668 -0.6975  0.7505 -1.0032
 7611TIP3   OH244247   3.162   6.263   2.606 -0.1279  0.3086 -0.1846
 7611TIP3    H144248   3.221   6.260   2.681 -1.1117  0.8334  0.6374
 7611TIP3    H244249   3.097   6.194   2.624 -1.0400  1.2075  0.0331
 7612TIP3   OH244250   5.258   2.540   2.933 -0.2391  0.0736  0.0019
 7612TIP3    H144251   5.300   2.581   3.009 -0.9519  0.7921  0.0231
 7612TIP3    H244252   5.252   2.610   2.868 -1.1562 -0.0749 -0.0884
 7613TIP3   OH244253   6.047   0.404  16.938  0.0482 -0.0530 -0.0383
 7613TIP3    H144254   6.121   0.463  16.925  0.4220 -0.5664 -0.2671
 7613TIP3    H244255   6.085   0.326  16.980 -0.2988 -0.4665 -0.4766
 7614TIP3   OH244256   4.891   6.020   4.279 -0.3152  0.7904 -0.1340
 7614TIP3    H144257   4.892   5.924   4.279 -1.7878  0.7520 -0.3557
 7614TIP3    H244258   4.983   6.045   4.274  0.1356 -0.6082  0.6454
 7615TIP3   OH244259   4.273   3.058   2.780  0.0211 -0.8089 -0.7530
 7615TIP3    H144260   4.322   2.987   2.740  0.1319 -1.2229  0.0804
 7615TIP3    H244261   4.186   3.021   2.796  0.0646 -0.7470 -0.3594
 7616TIP3   OH244262   2.264   3.452   5.172 -0.0808  0.0000 -0.1460
 7616TIP3    H144263   2.239   3.430   5.082 -1.5703  0.1130  0.2069
 7616TIP3    H244264   2.238   3.544   5.181 -1.4544 -0.4480  0.8636
 7617TIP3   OH244265   4.016   6.654   6.992  0.4042 -0.1999 -0.1606
 7617TIP3    H144266   4.064   6.736   6.978 -0.6071  0.4387  0.0013
 7617TIP3    H244267   4.032   6.603   6.912  0.0683  0.6690 -0.7986
 7618TIP3   OH244268   6.280   3.403  14.900 -0.3709  0.0262  0.4073
 7618TIP3    H144269   6.369   3.370  14.882 -0.1378  1.0822 -0.4598
 7618TIP3    H244270   6.291   3.466  14.971 -0.4302  0.1573  0.3003
 7619TIP3   OH244271   5.901   2.703  15.190 -0.4207  0.1785  0.4623
 7619TIP3    H144272   5.971   2.720  15.127  2.1237 -1.8140  2.4657
 7619TIP3    H244273   5.882   2.610  15.180 -2.6487  0.6189  0.1880
 7620TIP3   OH244274   1.509   1.216  15.548 -0.1392 -0.3521 -0.4298
 7620TIP3    H144275   1.574   1.202  15.616 -1.7204  1.3658  1.5753
 7620TIP3    H244276   1.490   1.128  15.514  0.7751 -1.2463  1.2547
 7621TIP3   OH244277   0.845   3.244   5.123  0.0979 -0.6682  0.6119
 7621TIP3    H144278   0.837   3.153   5.096  1.4843 -0.6069 -0.1194
 7621TIP3    H244279   0.760   3.283   5.101 -0.4554 -1.7371  0.7928
 7622TIP3   OH244280   3.074   3.339  15.052  0.1629  0.2350  0.4635
 7622TIP3    H144281   3.044   3.257  15.014  0.4429 -0.1929  1.1459
 7622TIP3    H244282   3.169   3.336  15.047  0.1596  0.7903 -0.0562
 7623TIP3   OH244283   5.151   1.688  15.443  0.7620  0.5958  0.2328
 7623TIP3    H144284   5.143   1.778  15.474  0.8953  0.0980  1.7881
 7623TIP3    H244285   5.095   1.684  15.365 -0.1694  1.7066  0.8199
 7624TIP3   OH244286   1.727   4.107   5.649 -0.2218  0.4456  0.4335
 7624TIP3    H144287   1.788   4.036   5.632  0.1383  1.0257 -0.8128
 7624TIP3    H244288   1.665   4.072   5.713  0.4996 -0.6644  0.5306
 7625TIP3   OH244289   6.418   3.073   2.550 -0.8167 -0.2113  0.2514
 7625TIP3    H144290   6.454   3.043   2.634 -2.1030  0.2325  0.9886
 7625TIP3    H244291   6.338   3.120   2.574  0.1226  2.2068 -1.0189
 7626TIP3   OH244292   1.535   4.807   5.369 -0.6072  0.0023  0.1977
 7626TIP3    H144293   1.554   4.900   5.357 -1.2351  0.0384 -0.6150
 7626TIP3    H244294   1.575   4.764   5.293  1.1262 -0.6191  1.3993
 7627TIP3   OH244295   6.528   5.931  14.329  0.5320  0.1302 -0.3710
 7627TIP3    H144296   6.456   5.994  14.327  0.8799  0.6477  1.5658
 7627TIP3    H244297   6.561   5.929  14.239  1.4396  3.8058 -0.2723
 7628TIP3   OH244298   2.393   1.668   4.112 -0.0897 -0.2944  0.1787
 7628TIP3    H144299   2.371   1.688   4.203  0.4813  0.3339  0.1820
 7628TIP3    H244300   2.455   1.595   4.119  0.4109  0.1435  0.3204
 7629TIP3   OH244301   4.528   0.308  15.609 -1.1226 -0.7065  0.2226
 7629TIP3    H144302   4.531   0.397  15.643  2.0098 -0.8566  0.6301
 7629TIP3    H244303   4.569   0.314  15.523  1.8055 -2.0570  1.3799
 7630TIP3   OH244304   3.121   5.776   4.680  0.2674 -0.0998  0.3055
 7630TIP3    H144305   3.122   5.748   4.589  1.3437  1.1563 -0.0914
 7630TIP3    H244306   3.206   5.816   4.694 -0.6663  1.6962  1.2196
 7631TIP3   OH244307   4.965   5.458   1.263 -0.0031  0.0657 -0.2066
 7631TIP3    H144308   4.984   5.374   1.305  2.6445  0.7935  0.2353
 7631TIP3    H244309   5.024   5.461   1.188 -0.4728  1.3127 -0.5475
 7632TIP3   OH244310   6.188   1.717  10.349 -0.2434  0.4141 -0.0306
 7632TIP3    H144311   6.119   1.669  10.395  0.0472 -0.0974 -0.1261
 7632TIP3    H244312   6.178   1.807  10.379 -1.8943  0.6535 -1.1230
 7633TIP3   OH244313   4.163   0.984   4.048 -0.3813  0.2297 -0.7479
 7633TIP3    H144314   4.127   1.048   4.108  0.0922 -0.0610 -0.1476
 7633TIP3    H244315   4.099   0.980   3.976 -0.3088  1.5209 -0.9104
 7634TIP3   OH244316   0.254   1.201   1.295 -0.6241  0.0077 -0.5076
 7634TIP3    H144317   0.323   1.261   1.323 -2.1821  2.5136 -1.6969
 7634TIP3    H244318   0.261   1.199   1.199 -1.2026 -1.0050 -0.5475
 7635TIP3   OH244319   1.028   4.910  11.842 -0.0635  0.6617  0.1644
 7635TIP3    H144320   1.120   4.925  11.817 -0.1347  0.4564 -0.2213
 7635TIP3    H244321   0.999   4.994  11.876  0.6897  0.3733  1.6451
 7636TIP3   OH244322   5.022   5.764   1.268  0.5724 -0.2854 -0.4067
 7636TIP3    H144323   5.043   5.672   1.277  2.1994  0.0115 -0.9323
 7636TIP3    H244324   5.094   5.801   1.217  0.2936  1.3992  0.3333
 7637TIP3   OH244325   6.051   0.084  11.140 -0.2840 -0.4521 -0.1706
 7637TIP3    H144326   6.090   0.012  11.090 -0.6726  1.3382 -3.3028
 7637TIP3    H244327   6.118   0.152  11.141  0.0571 -0.7193  2.7044
 7638TIP3   OH244328   5.879   6.206  14.343  0.0537 -0.0289 -0.3940
 7638TIP3    H144329   5.946   6.272  14.362  0.1902 -0.3519  0.2681
 7638TIP3    H244330   5.884   6.145  14.416 -0.5312 -0.4098 -0.6645
 7639TIP3   OH244331   3.853   6.104  15.662 -0.2752 -0.0644  0.5597
 7639TIP3    H144332   3.838   6.168  15.593 -1.1640 -2.6893 -1.8973
 7639TIP3    H244333   3.770   6.056  15.668  0.6660 -1.6586  1.4620
 7640TIP3   OH244334   2.338   1.410  12.088 -0.0070 -0.1755  0.2915
 7640TIP3    H144335   2.264   1.419  12.028 -0.4988  2.0362  1.1307
 7640TIP3    H244336   2.406   1.366  12.037 -1.4654 -1.1593 -0.8668
 7641TIP3   OH244337   4.101   0.989  13.204 -0.1791  0.1536 -0.1185
 7641TIP3    H144338   4.195   0.976  13.193 -0.1196  1.1980 -1.0432
 7641TIP3    H244339   4.068   1.000  13.115 -1.4796 -1.8868  0.0437
 7642TIP3   OH244340   1.722   2.290   4.101  0.4803  0.1602 -0.5571
 7642TIP3    H144341   1.760   2.313   4.016 -1.3160 -2.7167 -2.3005
 7642TIP3    H244342   1.628   2.307   4.091  0.3797  1.0594  1.3950
 7643TIP3   OH244343   3.789   3.212  11.904 -0.5408  0.2208 -0.3713
 7643TIP3    H144344   3.848   3.256  11.965  0.6280  0.3548 -1.5533
 7643TIP3    H244345   3.775   3.126  11.943  2.2230 -0.6520 -1.0562
 7644TIP3   OH244346   4.647   3.113   0.607 -0.1232 -0.9120  0.1851
 7644TIP3    H144347   4.699   3.103   0.687 -2.7257 -0.1636  2.1022
 7644TIP3    H244348   4.696   3.175   0.554  1.7269 -1.4975  1.1049
 7645TIP3   OH244349   4.670   5.834  12.000  0.1744  0.0645 -0.3433
 7645TIP3    H144350   4.668   5.780  11.921  1.3326 -1.0503  0.3405
 7645TIP3    H244351   4.676   5.770  12.072 -0.5751  1.0568  0.6370
 7646TIP3   OH244352   2.548   4.117  13.361  0.5770 -0.4633  0.6839
 7646TIP3    H144353   2.478   4.183  13.359  1.8500  0.9998  2.0265
 7646TIP3    H244354   2.629   4.167  13.361  1.6054 -2.0226  1.6144
 7647TIP3   OH244355   5.611   0.332  14.689  0.0297 -0.2210  0.7444
 7647TIP3    H144356   5.699   0.361  14.712  0.0641  0.3519 -0.0469
 7647TIP3    H244357   5.553   0.397  14.730  0.1028  0.9980 -0.9377
 7648TIP3   OH244358   4.842   5.124   4.729 -0.0058  0.0314 -0.0179
 7648TIP3    H144359   4.896   5.184   4.677  0.1148 -1.0232 -1.1507
 7648TIP3    H244360   4.885   5.122   4.814  1.3009 -0.1885 -0.6650
 7649TIP3   OH244361   3.857   6.006  13.172 -0.4934 -0.3732  0.1432
 7649TIP3    H144362   3.882   5.927  13.123  3.6829  0.6771  0.1321
 7649TIP3    H244363   3.894   5.992  13.259 -1.0899  0.9287  0.6137
 7650TIP3   OH244364   2.088   3.475   4.658  0.3182  0.0219  0.0834
 7650TIP3    H144365   2.139   3.429   4.591 -0.1713  0.4220 -0.5692
 7650TIP3    H244366   2.152   3.532   4.701  1.0657 -1.6142  1.2773
 7651TIP3   OH244367   3.051   3.560  13.255 -0.4357  0.5469 -0.8253
 7651TIP3    H144368   3.030   3.468  13.267  0.5065  0.4860  0.5720
 7651TIP3    H244369   3.017   3.603  13.333  2.1074  0.8425  0.2107
 7652TIP3   OH244370   4.755   1.127  12.806 -0.8657 -0.2420 -0.6062
 7652TIP3    H144371   4.724   1.115  12.896 -0.6238  1.0709 -0.3355
 7652TIP3    H244372   4.846   1.155  12.815  0.5069 -3.9008 -1.3947
 7653TIP3   OH244373   5.905   6.202  11.942  0.0237  0.1799 -0.3047
 7653TIP3    H144374   5.949   6.256  12.008 -1.8877  0.4993  0.7703
 7653TIP3    H244375   5.918   6.250  11.860 -0.8962  1.8627  0.4903
 7654TIP3   OH244376   0.294   4.754   3.532  0.1556 -0.2337 -0.1196
 7654TIP3    H144377   0.344   4.781   3.609 -0.4861  0.3784  0.0895
 7654TIP3    H244378   0.333   4.803   3.460 -1.4968  1.9659  0.3695
 7655TIP3   OH244379   2.960   3.840   2.851  0.0621  0.0944 -0.3267
 7655TIP3    H144380   3.040   3.814   2.895  0.0538  1.9672  0.8579
 7655TIP3    H244381   2.892   3.786   2.891  0.3191  0.5467  0.7368
 7656TIP3   OH244382   5.296   0.793  14.279  0.2936  0.1806  0.5204
 7656TIP3    H144383   5.314   0.758  14.366  0.3432 -1.3234 -0.0476
 7656TIP3    H244384   5.208   0.830  14.286  0.7533  1.1182  1.4893
 7657TIP3   OH244385   4.076   3.785   1.744  0.1311 -0.5610 -0.3144
 7657TIP3    H144386   4.016   3.795   1.818  1.2500 -0.4893  0.6071
 7657TIP3    H244387   4.146   3.729   1.777  1.6206  0.9713 -0.7025
 7658TIP3   OH244388   0.541   0.424   2.120 -0.5526 -0.0855  0.7220
 7658TIP3    H144389   0.546   0.481   2.043  1.5683  0.3373  1.1182
 7658TIP3    H244390   0.600   0.351   2.099 -0.0849 -0.0498  1.8612
 7659TIP3   OH244391   5.277   4.282   0.977  0.8870 -0.2985 -0.1961
 7659TIP3    H144392   5.226   4.320   0.905 -1.3790 -0.0631  1.4009
 7659TIP3    H244393   5.232   4.200   0.997  2.0766 -0.8451  0.3189
 7660TIP3   OH244394   4.196   5.916  14.999  0.0876 -0.0292  0.0781
 7660TIP3    H144395   4.109   5.908  15.037  0.4140  1.3056  1.1977
 7660TIP3    H244396   4.180   5.932  14.905 -0.7599 -2.3698 -0.2257
 7661TIP3   OH244397   3.869   3.145  13.773  0.0244 -1.3074  0.5267
 7661TIP3    H144398   3.868   3.235  13.739  0.3090 -2.2964 -2.3209
 7661TIP3    H244399   3.819   3.150  13.854 -0.4861  1.3090  0.1378
 7662TIP3   OH244400   0.132   0.257  11.044 -0.3335 -0.1857  1.3527
 7662TIP3    H144401   0.131   0.268  10.949 -0.5137 -1.9238  1.1210
 7662TIP3    H244402   0.044   0.225  11.065 -0.0846 -0.4481  2.0117
 7663TIP3   OH244403   6.365   1.011  11.920 -0.4519  0.0977  0.4442
 7663TIP3    H144404   6.404   1.059  11.846  2.1666 -0.8386  1.1470
 7663TIP3    H244405   6.378   1.069  11.995 -1.8906  0.4398  0.4685
 7664TIP3   OH244406   6.475   4.514  14.148 -0.0421 -0.7179 -0.0634
 7664TIP3    H144407   6.547   4.452  14.136 -0.9939 -2.1473  1.1893
 7664TIP3    H244408   6.484   4.543  14.239 -1.0906 -0.9839  0.1337
 7665TIP3   OH244409   4.836   4.130   0.003  0.0309 -0.4007 -0.2656
 7665TIP3    H144410   4.804   4.054   0.051 -1.1428 -0.2399 -0.7431
 7665TIP3    H244411   4.758   4.166  -0.040  0.2231  2.0221  1.2166
 7666TIP3   OH244412   5.813   2.891  16.284 -0.4166 -0.3156 -0.1056
 7666TIP3    H144413   5.854   2.969  16.322 -2.5219  0.8944 -0.1475
 7666TIP3    H244414   5.885   2.832  16.266  1.3619  1.9041 -0.7067
 7667TIP3   OH244415   3.440   1.917   3.985  0.1817  0.3310  0.1757
 7667TIP3    H144416   3.399   1.869   4.057  0.0340  0.5703  0.2543
 7667TIP3    H244417   3.526   1.877   3.975 -1.4883 -3.0476 -2.7435
 7668TIP3   OH244418   1.442   6.158   0.006  0.2946 -0.4548 -0.1996
 7668TIP3    H144419   1.510   6.178   0.071  0.5768 -1.1101 -0.2861
 7668TIP3    H244420   1.447   6.063  -0.005 -0.5263 -0.4876 -0.3333
 7669TIP3   OH244421   6.353   5.016  13.242  0.5424 -0.1045 -0.1504
 7669TIP3    H144422   6.318   4.951  13.303 -0.1140  0.0793 -0.3156
 7669TIP3    H244423   6.282   5.031  13.180  0.0561  1.9280  0.7968
 7670TIP3   OH244424   2.582   2.141  14.637  0.2584 -0.1664 -0.1619
 7670TIP3    H144425   2.660   2.153  14.691  0.2776 -0.7904 -0.0417
 7670TIP3    H244426   2.533   2.223  14.646 -0.1479 -0.5619  1.4808
 7671TIP3   OH244427   0.965   3.764   0.342 -0.5734  0.3393  0.2434
 7671TIP3    H144428   0.938   3.803   0.259  1.5618 -0.6304 -0.9749
 7671TIP3    H244429   1.021   3.831   0.383  0.9772 -0.3826 -0.6347
 7672TIP3   OH244430   6.644   5.901   6.121  0.0208 -0.1937  0.1058
 7672TIP3    H144431   6.585   5.962   6.164  1.6986  1.9007 -0.3829
 7672TIP3    H244432   6.676   5.844   6.191 -1.0107 -0.0315  0.7164
 7673TIP3   OH244433   0.286   2.381   0.548  0.0994  0.1326 -0.7257
 7673TIP3    H144434   0.214   2.443   0.538 -0.1855 -0.1444 -0.4302
 7673TIP3    H244435   0.350   2.408   0.482 -0.6981 -0.2048 -1.6722
 7674TIP3   OH244436   2.096   4.242   0.420  0.3021 -0.1289  0.2766
 7674TIP3    H144437   2.158   4.180   0.458 -0.6223 -0.1348  1.8664
 7674TIP3    H244438   2.017   4.232   0.473 -0.3324  1.4118 -0.3347
 7675TIP3   OH244439   6.001   4.838  13.732  0.2806 -0.4253 -0.1566
 7675TIP3    H144440   5.945   4.914  13.718 -0.1067 -0.9406 -1.5083
 7675TIP3    H244441   6.007   4.830  13.827 -0.8962  0.3962  0.0051
 7676TIP3   OH244442   0.748   1.662   0.999 -0.1190  0.9060  0.2785
 7676TIP3    H144443   0.733   1.589   1.058  1.2001  1.0620  0.8291
 7676TIP3    H244444   0.843   1.676   1.000 -0.1127  1.2723 -1.4422
 7677TIP3   OH244445   0.882   6.348  13.567  0.7979  0.4758 -0.4294
 7677TIP3    H144446   0.791   6.357  13.595  0.4274 -5.5478  1.7211
 7677TIP3    H244447   0.933   6.371  13.645  0.9758  1.1054 -0.7250
 7678TIP3   OH244448   2.792   6.457   3.702  0.0706  0.5143 -0.1327
 7678TIP3    H144449   2.847   6.378   3.708  0.2024  0.5349 -0.9156
 7678TIP3    H244450   2.716   6.429   3.650  0.5054  1.0988 -1.1137
 7679TIP3   OH244451   1.316   3.422  12.427 -0.1091 -0.2409 -0.4532
 7679TIP3    H144452   1.392   3.416  12.485 -1.4683 -1.1927  1.3113
 7679TIP3    H244453   1.301   3.332  12.398 -0.1841  0.0488 -1.3493
 7680TIP3   OH244454   2.009   5.826   3.873 -0.7853  0.1971 -0.4107
 7680TIP3    H144455   2.045   5.820   3.961 -2.9566 -0.0453  0.5053
 7680TIP3    H244456   2.072   5.778   3.818 -0.3362 -1.2500  1.2937
 7681TIP3   OH244457   4.710   3.375   0.068  0.2337 -0.7850  0.1635
 7681TIP3    H144458   4.780   3.440   0.069 -0.1236 -0.3846  2.0175
 7681TIP3    H244459   4.708   3.340   0.157 -1.9112 -0.8116  0.1518
 7682TIP3   OH244460   6.692   2.829   1.061 -0.0889  0.5467 -0.0148
 7682TIP3    H144461   6.739   2.890   1.003  1.9633 -1.2698 -0.4087
 7682TIP3    H244462   6.757   2.804   1.127 -0.8298 -1.2072  0.1130
 7683TIP3   OH244463   6.460   6.685  16.895 -0.3042 -0.3002  0.1432
 7683TIP3    H144464   6.455   6.706  16.801 -1.2241 -1.7245 -0.1644
 7683TIP3    H244465   6.370   6.693  16.926 -0.0377 -0.0552  0.8664
 7684TIP3   OH244466   2.022   4.943   0.438 -0.3425  0.3591 -0.6486
 7684TIP3    H144467   2.062   4.917   0.521 -0.9730  0.7649 -0.2084
 7684TIP3    H244468   1.939   4.896   0.436 -0.0792 -0.0787 -1.3135
 7685TIP3   OH244469   1.693   4.704  13.054  0.0709  0.3988 -0.4502
 7685TIP3    H144470   1.734   4.630  13.011  0.3887  0.2327  0.1263
 7685TIP3    H244471   1.726   4.781  13.007  0.3042  0.2152 -0.5852
 7686TIP3   OH244472   5.445   2.424  10.915 -0.5999  0.3160 -0.6114
 7686TIP3    H144473   5.423   2.386  11.000  1.1387  2.3453  0.8726
 7686TIP3    H244474   5.376   2.393  10.856 -0.9139 -2.5997  1.0770
 7687TIP3   OH244475   4.545   2.658   2.771  0.4501 -0.4580  0.1388
 7687TIP3    H144476   4.615   2.717   2.798  1.3612 -1.3470 -0.2135
 7687TIP3    H244477   4.492   2.645   2.849 -0.0399  1.1635  0.1177
 7688TIP3   OH244478   2.742   5.730  17.246  0.4924 -0.4996 -0.1354
 7688TIP3    H144479   2.765   5.820  17.270  0.6853 -0.0245 -1.9196
 7688TIP3    H244480   2.827   5.685  17.240  0.5935 -0.1915 -1.3701
 7689TIP3   OH244481   3.956   2.967   1.830  0.2137 -0.1885 -0.2464
 7689TIP3    H144482   3.899   2.960   1.906 -0.9815  2.5508 -0.7563
 7689TIP3    H244483   3.981   3.059   1.827  2.1090 -0.6842 -1.8866
 7690TIP3   OH244484   1.123   6.140  12.709  0.0449 -0.0561 -0.0350
 7690TIP3    H144485   1.165   6.138  12.795  0.6805  1.3694 -0.2862
 7690TIP3    H244486   1.052   6.076  12.716 -1.9629  2.2353  2.6140
 7691TIP3   OH244487   1.100   6.297  16.357  0.0534 -1.3796 -0.2126
 7691TIP3    H144488   1.035   6.290  16.427 -0.7929 -2.2222 -1.0611
 7691TIP3    H244489   1.185   6.287  16.402 -0.4672 -1.8891  0.6858
 7692TIP3   OH244490   6.660   1.732   5.425 -0.1016  0.2226 -0.2312
 7692TIP3    H144491   6.708   1.672   5.482 -1.5241 -0.0184  0.7406
 7692TIP3    H244492   6.582   1.684   5.398 -0.3461  0.9800 -0.9543
 7693TIP3   OH244493   2.901   3.853   0.874  0.1875 -0.8584 -0.4252
 7693TIP3    H144494   2.922   3.760   0.875  0.2085 -0.9762  3.0969
 7693TIP3    H244495   2.986   3.897   0.871  0.2483 -0.9971 -0.7068
 7694TIP3   OH244496   5.770   1.388  13.833  0.1119 -0.2105  0.2177
 7694TIP3    H144497   5.699   1.324  13.843 -2.2481  2.3158  0.6412
 7694TIP3    H244498   5.733   1.457  13.778  1.8842  1.7057  1.2778
 7695TIP3   OH244499   5.330   3.010  12.231 -0.1394  0.2317 -0.4034
 7695TIP3    H144500   5.290   2.962  12.158  2.5552  0.9989 -2.5601
 7695TIP3    H244501   5.284   3.093  12.233 -0.0995  0.2903 -1.4067
 7696TIP3   OH244502   5.182   2.163  12.654 -0.4734  0.1329 -0.0110
 7696TIP3    H144503   5.237   2.239  12.676 -1.8904  0.3787  3.2847
 7696TIP3    H244504   5.094   2.199  12.644 -0.5020 -0.4985 -3.5502
 7697TIP3   OH244505   6.292   3.964  12.072  0.0149 -0.1244  0.1467
 7697TIP3    H144506   6.283   4.042  12.127 -0.4876  0.1376 -0.2962
 7697TIP3    H244507   6.386   3.945  12.073  0.1758  0.6161  0.0978
 7698TIP3   OH244508   0.222   4.202  12.395 -0.1396  0.1181 -0.4283
 7698TIP3    H144509   0.173   4.271  12.350  0.7125  1.0659  0.0556
 7698TIP3    H244510   0.155   4.141  12.426 -1.3051  2.5141  2.1873
 7699TIP3   OH244511   5.387   6.533   4.579  0.1481  0.0257  0.8570
 7699TIP3    H144512   5.467   6.576   4.549  0.5734  0.1905  2.1754
 7699TIP3    H244513   5.417   6.453   4.621 -0.2871  0.5423  2.1936
 7700TIP3   OH244514   6.001   1.491   0.314  0.2622 -0.0365  0.5000
 7700TIP3    H144515   5.961   1.411   0.347  1.2191 -2.2314 -3.0589
 7700TIP3    H244516   5.951   1.513   0.236  2.4545  0.3482 -0.9118
 7701TIP3   OH244517   3.754   4.952   4.378  0.5080  0.6174 -0.3011
 7701TIP3    H144518   3.827   4.890   4.372  0.0710 -0.3396  2.6113
 7701TIP3    H244519   3.699   4.931   4.303  0.6828 -2.1850  0.2428
 7702TIP3   OH244520   5.260   5.626  13.657  0.1811 -0.0031  0.0894
 7702TIP3    H144521   5.176   5.580  13.667  1.3998 -2.4889 -0.2273
 7702TIP3    H244522   5.326   5.557  13.664  2.2073  1.8065 -0.0725
 7703TIP3   OH244523   4.514   1.852  10.461  0.2047 -0.0758  0.1644
 7703TIP3    H144524   4.599   1.887  10.486  1.0768  0.6494 -3.2571
 7703TIP3    H244525   4.465   1.928  10.429 -1.5300 -0.5971  1.3994
 7704TIP3   OH244526   1.140   3.159  12.808 -1.0662  0.3080 -0.0901
 7704TIP3    H144527   1.187   3.080  12.833 -1.7639  0.1630  0.8210
 7704TIP3    H244528   1.090   3.134  12.730 -0.8296  0.0175 -0.1486
 7705TIP3   OH244529   6.523   5.836  13.631 -0.1968  0.2819  0.2068
 7705TIP3    H144530   6.547   5.745  13.649 -2.0000 -0.3755 -0.4437
 7705TIP3    H244531   6.441   5.849  13.678 -1.2427  0.7660 -1.6446
 7706TIP3   OH244532   2.721   1.084   0.263  0.6287  0.2729  0.5035
 7706TIP3    H144533   2.783   1.042   0.204 -0.0803 -0.4332  0.2493
 7706TIP3    H244534   2.684   1.156   0.212  2.2394  1.5969  1.1161
 7707TIP3   OH244535   6.181   4.463   0.506 -0.2393 -0.5741 -0.0398
 7707TIP3    H144536   6.167   4.376   0.468  0.9749 -0.4300 -0.8862
 7707TIP3    H244537   6.094   4.501   0.512 -0.9331 -2.2555  1.3870
 7708TIP3   OH244538   5.953   1.660  16.876  0.7550  0.2156  0.2076
 7708TIP3    H144539   5.876   1.660  16.821  0.6891  0.4798  0.3001
 7708TIP3    H244540   6.005   1.734  16.845  0.4966  0.6552  0.8016
 7709TIP3   OH244541   4.794   1.596   0.339  0.0469 -0.2720  0.0045
 7709TIP3    H144542   4.704   1.577   0.313 -0.6314  1.2389  1.0922
 7709TIP3    H244543   4.814   1.531   0.406 -0.0982 -0.8277 -0.4829
 7710TIP3   OH244544   5.775   2.462  14.737  0.8088 -0.0340  0.2103
 7710TIP3    H144545   5.827   2.542  14.745  1.7379 -0.6461  0.4604
 7710TIP3    H244546   5.781   2.439  14.644  2.5600 -1.1054  0.5484
 7711TIP3   OH244547   1.947   4.979   5.682  0.8503  0.0151  0.0111
 7711TIP3    H144548   1.958   5.068   5.716  1.0050  0.4478 -1.1218
 7711TIP3    H244549   2.037   4.948   5.668  0.7854 -0.1135 -0.1232
 7712TIP3   OH244550   2.256   1.250   5.039  0.4826  0.0552 -0.2868
 7712TIP3    H144551   2.279   1.161   5.015  0.5839 -0.3386  1.1548
 7712TIP3    H244552   2.241   1.246   5.134 -0.5192  1.3512 -0.3581
 7713TIP3   OH244553   5.529   5.803  14.174  0.5957  0.2149  0.5201
 7713TIP3    H144554   5.486   5.751  14.106  1.0152  1.3619 -0.6628
 7713TIP3    H244555   5.483   5.779  14.255 -1.0237  0.0219 -0.4137
 7714TIP3   OH244556   1.549   4.263   1.696  0.4940 -0.0879  0.6703
 7714TIP3    H144557   1.461   4.227   1.704  0.7663 -1.5061 -1.8788
 7714TIP3    H244558   1.578   4.276   1.786 -2.6648  1.4212  1.5956
 7715TIP3   OH244559   3.149   5.867  16.380 -0.3047  0.5098  0.6079
 7715TIP3    H144560   3.084   5.918  16.332  0.7197  0.6075 -0.7512
 7715TIP3    H244561   3.103   5.835  16.457 -2.2891 -0.3462 -0.8465
 7716TIP3   OH244562   5.493   1.274   0.379 -0.1369  0.2912 -0.0079
 7716TIP3    H144563   5.558   1.274   0.449  1.0394  0.9602 -1.0705
 7716TIP3    H244564   5.409   1.279   0.425  0.6101  0.8377  1.3461
 7717TIP3   OH244565   4.982   4.460   6.276  0.2994 -0.6140  0.1218
 7717TIP3    H144566   4.968   4.374   6.236 -2.9535  0.4981 -1.4379
 7717TIP3    H244567   4.941   4.454   6.362  1.2590 -0.9774  0.5671
 7718TIP3   OH244568   2.594   1.143   1.191 -0.0419 -0.3335  0.3597
 7718TIP3    H144569   2.593   1.232   1.227  1.8045 -0.9782  2.1547
 7718TIP3    H244570   2.686   1.124   1.174 -0.5259 -1.4476 -1.3117
 7719TIP3   OH244571   2.274   6.052   2.674  0.7999  0.3360 -0.3464
 7719TIP3    H144572   2.212   6.024   2.743  0.2186  1.5624 -0.3428
 7719TIP3    H244573   2.339   5.982   2.671 -0.7014 -1.1317 -0.5010
 7720TIP3   OH244574   6.081   4.383  15.842 -0.3532  0.0555 -0.0327
 7720TIP3    H144575   6.059   4.394  15.934 -1.8013  2.1018 -0.5530
 7720TIP3    H244576   6.033   4.306  15.814 -0.7414  0.0375  0.6808
 7721TIP3   OH244577   0.734   5.896   1.332  0.2512  0.7790 -0.4022
 7721TIP3    H144578   0.814   5.853   1.303  0.3305 -0.7045  1.7658
 7721TIP3    H244579   0.719   5.965   1.268  1.0785 -1.3826 -3.1006
 7722TIP3   OH244580   4.455   2.909   2.142 -0.3150  0.6363 -0.2601
 7722TIP3    H144581   4.407   2.959   2.076 -0.9263 -1.5901 -1.6357
 7722TIP3    H244582   4.410   2.927   2.224  0.0818  3.0076 -0.5119
 7723TIP3   OH244583   1.293   0.633   5.316  0.3009 -0.0266  0.2646
 7723TIP3    H144584   1.261   0.573   5.249 -1.1459  0.5748  0.3691
 7723TIP3    H244585   1.329   0.576   5.384  0.1986 -0.7149 -0.2484
 7724TIP3   OH244586   2.813   2.614  12.711  0.3275  0.1235 -0.5919
 7724TIP3    H144587   2.796   2.694  12.761  0.9224 -0.6734  0.9544
 7724TIP3    H244588   2.866   2.643  12.636  0.9451  1.1160  0.2044
 7725TIP3   OH244589   2.919   1.238   2.511 -0.4647  0.3530  0.1177
 7725TIP3    H144590   2.919   1.177   2.437  0.5625 -0.1158  0.4919
 7725TIP3    H244591   2.889   1.186   2.585  0.5018  0.2655  0.4583
 7726TIP3   OH244592   0.090   5.502  16.645 -0.1932  0.2168  0.3099
 7726TIP3    H144593   0.053   5.587  16.669 -0.8426 -0.5254  2.1707
 7726TIP3    H244594   0.103   5.458  16.729  3.1806 -0.3164 -0.3626
 7727TIP3   OH244595   1.958   4.736   5.919 -0.2921  0.2034  0.2723
 7727TIP3    H144596   1.948   4.766   6.009 -2.4159  1.1403 -0.1985
 7727TIP3    H244597   2.050   4.752   5.898 -0.2615  2.0992  1.5822
 7728TIP3   OH244598   4.879   5.793  16.749 -0.0125 -0.0024  0.2872
 7728TIP3    H144599   4.905   5.702  16.740  1.1100  0.2666  0.6447
 7728TIP3    H244600   4.787   5.795  16.723 -0.2443 -1.3518  0.9315
 7729TIP3   OH244601   3.631   0.149  15.484  0.0962 -0.4027  1.1662
 7729TIP3    H144602   3.590   0.186  15.561  3.2923  0.5727  2.5584
 7729TIP3    H244603   3.690   0.081  15.518  0.4219 -1.0545 -0.5751
 7730TIP3   OH244604   4.513   3.937   4.255  0.4655  0.0635 -0.2865
 7730TIP3    H144605   4.500   3.850   4.217 -1.6631 -0.6738  1.9559
 7730TIP3    H244606   4.426   3.975   4.260  1.1377  1.5882  0.5171
 7731TIP3   OH244607   5.140   0.818  10.617 -0.2056 -0.2234  0.0598
 7731TIP3    H144608   5.066   0.832  10.557 -0.2757  1.7703  0.5466
 7731TIP3    H244609   5.217   0.824  10.561 -0.3173  0.4227 -0.0335
 7732TIP3   OH244610   4.452   4.259  16.930 -0.2121  0.2304 -0.0095
 7732TIP3    H144611   4.392   4.212  16.988  0.4031  0.3809  0.7647
 7732TIP3    H244612   4.403   4.267  16.847 -1.4031  0.6803  0.7079
 7733TIP3   OH244613   6.727   5.003   2.235 -0.1434 -0.0294  0.8588
 7733TIP3    H144614   6.805   4.995   2.180 -2.0520 -1.2892 -1.8904
 7733TIP3    H244615   6.724   5.096   2.260  2.1824  0.0358  1.0299
 7734TIP3   OH244616   3.188   5.334   1.346 -0.4925 -0.1060 -0.2788
 7734TIP3    H144617   3.098   5.361   1.332  0.4575  2.6925 -1.8292
 7734TIP3    H244618   3.217   5.300   1.261  0.6091  1.5011 -0.5946
 7735TIP3   OH244619   5.236   2.295  11.810 -0.0848 -0.5206  0.1082
 7735TIP3    H144620   5.322   2.311  11.773  0.2904 -0.5223  0.9529
 7735TIP3    H244621   5.178   2.357  11.766  0.4875 -0.0101  0.0632
 7736TIP3   OH244622   3.771   3.528  12.092  0.1939 -0.1793 -0.4272
 7736TIP3    H144623   3.848   3.508  12.145  0.0103  2.0878  0.8410
 7736TIP3    H244624   3.699   3.535  12.154 -0.6091 -0.1692 -1.3325
 7737TIP3   OH244625   0.844   5.325  15.404 -0.9004  0.2090  0.2512
 7737TIP3    H144626   0.787   5.401  15.390  0.9351  1.4427 -0.8932
 7737TIP3    H244627   0.816   5.262  15.337 -1.4985  0.4305  0.2809
 7738TIP3   OH244628   4.580   1.403  14.149  0.6480  0.3355  0.4101
 7738TIP3    H144629   4.523   1.478  14.164 -0.2412  0.0407 -1.2246
 7738TIP3    H244630   4.594   1.402  14.054  0.9060 -1.3700  0.4307
 7739TIP3   OH244631   2.474   4.824  12.685  0.1572  0.2059  0.5098
 7739TIP3    H144632   2.383   4.831  12.715  0.4345  0.7108  1.2344
 7739TIP3    H244633   2.526   4.822  12.765  0.8225  0.4074  0.0887
 7740TIP3   OH244634   5.724   0.701   4.711 -0.8347  0.6141  0.0901
 7740TIP3    H144635   5.683   0.651   4.641 -1.7284  1.1862  0.1908
 7740TIP3    H244636   5.777   0.767   4.666  0.5748 -0.5476 -0.0472
 7741TIP3   OH244637   1.859   1.806   2.477  0.1185 -0.8694 -0.0358
 7741TIP3    H144638   1.770   1.816   2.512  0.7547  0.9259  1.2596
 7741TIP3    H244639   1.912   1.783   2.554  1.1051  0.3681 -0.3000
 7742TIP3   OH244640   4.808   3.918  16.640  0.7630  0.8180 -0.6803
 7742TIP3    H144641   4.780   3.837  16.683  0.3419  0.8586 -0.8754
 7742TIP3    H244642   4.773   3.988  16.695  0.3752  0.8693 -0.9927
 7743TIP3   OH244643   6.762   3.047  13.999 -0.0687  0.3198  0.1440
 7743TIP3    H144644   6.714   3.108  14.055 -0.5342  0.0353  0.0561
 7743TIP3    H244645   6.846   3.036  14.043 -0.3708  0.2251  0.7066
 7744TIP3   OH244646   2.049   0.460  15.043 -0.2385 -0.4302 -0.1446
 7744TIP3    H144647   2.081   0.450  14.953  0.8024  1.0190  0.0345
 7744TIP3    H244648   2.079   0.547  15.070 -0.8558 -0.6865  1.4848
 7745TIP3   OH244649   4.536   2.413  10.371  0.0336  0.4626 -0.2386
 7745TIP3    H144650   4.603   2.361  10.325 -0.4942 -2.5419  2.0513
 7745TIP3    H244651   4.463   2.417  10.310  1.8308  3.0963 -2.4659
 7746TIP3   OH244652   5.267   4.386   5.216  0.0740  0.4038  0.3656
 7746TIP3    H144653   5.320   4.424   5.285 -1.8921  0.2768  2.0446
 7746TIP3    H244654   5.249   4.459   5.156 -0.7319  1.3271  1.6695
 7747TIP3   OH244655   5.973   0.379   0.131 -0.2909 -0.2150  0.2892
 7747TIP3    H144656   5.890   0.424   0.119 -0.9935 -1.3144  0.7679
 7747TIP3    H244657   5.968   0.303   0.073  0.2206 -0.4806  0.5832
 7748TIP3   OH244658   5.957   5.707   6.349  1.1323  0.8793  0.2806
 7748TIP3    H144659   5.970   5.799   6.373 -2.8341  0.8983  3.4216
 7748TIP3    H244660   5.891   5.710   6.280  0.7383  0.4088  0.6324
 7749TIP3   OH244661   2.509   0.433   2.095  0.0098  0.3421 -0.6292
 7749TIP3    H144662   2.479   0.508   2.043 -0.4747 -0.5210 -1.6456
 7749TIP3    H244663   2.442   0.422   2.163 -0.8191 -0.1589 -1.4882
 7750TIP3   OH244664   1.367   2.782   3.867 -0.6544 -0.3332 -0.1732
 7750TIP3    H144665   1.435   2.848   3.885 -0.2798 -0.1850 -1.9600
 7750TIP3    H244666   1.388   2.710   3.927  0.6790 -0.0050 -0.2064
 7751TIP3   OH244667   0.670   0.274  12.129 -0.0542  0.4419  0.2753
 7751TIP3    H144668   0.610   0.200  12.131 -0.4519  0.7633  1.0729
 7751TIP3    H244669   0.746   0.244  12.080 -0.4597 -0.2948  0.0967
 7752TIP3   OH244670   3.675   4.555   1.960 -0.1845 -0.0792 -0.0152
 7752TIP3    H144671   3.727   4.636   1.961 -1.2583  0.6252 -0.0436
 7752TIP3    H244672   3.658   4.536   2.052  0.6890 -0.7081  0.0360
 7753TIP3   OH244673   6.713   0.076   4.868  0.1819  0.0049 -0.5180
 7753TIP3    H144674   6.743   0.108   4.783  0.7877  0.5273 -0.1215
 7753TIP3    H244675   6.618   0.078   4.862  0.2165  0.4822 -1.0254
 7754TIP3   OH244676   4.244   2.100  16.842  0.7701 -0.6765  0.0821
 7754TIP3    H144677   4.238   2.037  16.914  2.2672 -1.3626 -0.3485
 7754TIP3    H244678   4.292   2.053  16.773  0.4009  0.3589 -0.9114
 7755TIP3   OH244679   5.155   2.740   3.608  0.0166  0.1001 -0.0104
 7755TIP3    H144680   5.224   2.706   3.665 -1.1095 -0.6234  0.9647
 7755TIP3    H244681   5.108   2.802   3.663 -1.3120 -0.8730 -0.0046
 7756TIP3   OH244682   6.321   4.167  17.185  0.1430 -0.3816 -0.1611
 7756TIP3    H144683   6.253   4.104  17.160 -0.8107  0.8136 -0.6807
 7756TIP3    H244684   6.313   4.174  17.280  0.8847 -1.7075  0.0298
 7757TIP3   OH244685   1.892   6.337   1.400 -0.2496 -0.4697  0.4503
 7757TIP3    H144686   1.807   6.380   1.407 -0.5177 -0.9903  0.4160
 7757TIP3    H244687   1.878   6.264   1.340 -0.1419 -1.4391  1.5762
 7758TIP3   OH244688   5.968   2.086   6.365 -0.2823  0.1987  1.0915
 7758TIP3    H144689   5.994   2.002   6.327  2.4048  1.2289  0.4107
 7758TIP3    H244690   6.026   2.097   6.440 -0.3563  1.5865  0.9730
 7759TIP3   OH244691   6.254   2.395   2.237  0.4270 -0.2670  0.5780
 7759TIP3    H144692   6.333   2.402   2.184  1.2841 -0.5004  1.7839
 7759TIP3    H244693   6.238   2.484   2.269  0.5515 -0.3310  0.8203
 7760TIP3   OH244694   4.151   0.999   4.937  0.2841 -1.0036  0.4360
 7760TIP3    H144695   4.094   1.074   4.919 -0.2275 -1.5642 -0.3934
 7760TIP3    H244696   4.099   0.923   4.911  0.8316 -1.6448  1.1565
 7761TIP3   OH244697   2.933   4.114  13.119 -0.0468 -0.7114 -0.1101
 7761TIP3    H144698   2.931   4.206  13.096  2.4839 -0.6523 -0.3892
 7761TIP3    H244699   2.882   4.108  13.200 -0.3850  0.8800 -0.1813
 7762TIP3   OH244700   3.548   5.197  15.419 -0.5250 -0.3566  0.4774
 7762TIP3    H144701   3.514   5.279  15.457  0.0411 -0.0237  0.2784
 7762TIP3    H244702   3.483   5.173  15.352 -1.0565 -0.4556  1.0147
 7763TIP3   OH244703   5.527   6.215   0.062 -0.5810 -0.7655 -0.3159
 7763TIP3    H144704   5.515   6.247   0.151 -1.4286 -1.2775 -0.2386
 7763TIP3    H244705   5.439   6.213   0.024 -0.4741 -2.2046 -0.5745
 7764TIP3   OH244706   4.059   1.637  13.715  0.0556  0.4453 -0.3222
 7764TIP3    H144707   4.071   1.563  13.774  0.9672  0.2777 -0.7032
 7764TIP3    H244708   3.983   1.614  13.661 -1.3872  1.0011  1.3648
 7765TIP3   OH244709   0.325   4.711  16.436  0.1517  0.6083  0.9243
 7765TIP3    H144710   0.373   4.629  16.444 -1.9554 -0.8098  0.0003
 7765TIP3    H244711   0.379   4.765  16.379 -0.1837 -1.6958 -1.7994
 7766TIP3   OH244712   3.174   1.538   0.692 -0.0698 -0.2986  0.2968
 7766TIP3    H144713   3.157   1.613   0.750 -1.2191 -0.2540 -0.0732
 7766TIP3    H244714   3.185   1.577   0.605 -0.8326 -0.5611  0.0749
 7767TIP3   OH244715   0.607   5.885  16.037  0.3759  0.1786  0.6266
 7767TIP3    H144716   0.520   5.919  16.059  0.2130  1.2688 -1.4254
 7767TIP3    H244717   0.638   5.942  15.967  4.0410  1.6882  3.1680
 7768TIP3   OH244718   5.242   3.229  12.672 -0.3708  0.5116  0.7178
 7768TIP3    H144719   5.318   3.287  12.673 -0.5611  0.7996 -0.5129
 7768TIP3    H244720   5.201   3.244  12.587  1.1687 -3.4975 -1.0021
 7769TIP3   OH244721   3.142   1.531   4.947  0.1864 -0.2521  0.0005
 7769TIP3    H144722   3.227   1.553   4.908  0.5621 -2.1023 -0.2972
 7769TIP3    H244723   3.093   1.613   4.945  1.7558  0.7173 -0.3564
 7770TIP3   OH244724   4.555   0.992  15.073 -0.3138 -0.2117  0.6155
 7770TIP3    H144725   4.613   1.018  15.144  0.8211  0.8560 -0.6446
 7770TIP3    H244726   4.511   1.073  15.047  0.0665 -0.3603 -0.5556
 7771TIP3   OH244727   1.206   0.280  14.045  0.3803  0.1899 -0.6627
 7771TIP3    H144728   1.214   0.185  14.050  0.4418  0.2384  0.5655
 7771TIP3    H244729   1.163   0.305  14.127  2.8585  1.4546  0.3664
 7772TIP3   OH244730   2.559   6.527   2.748  0.0589  0.0635 -0.1596
 7772TIP3    H144731   2.570   6.541   2.654  2.0435 -0.3382 -0.0250
 7772TIP3    H244732   2.541   6.433   2.756 -1.7388  0.3666 -0.2177
 7773TIP3   OH244733   2.641   5.124  16.765  0.3940  0.3736  0.5373
 7773TIP3    H144734   2.631   5.062  16.838 -0.7192 -0.1447 -0.0366
 7773TIP3    H244735   2.600   5.080  16.691 -1.2116  2.1587  0.3110
 7774TIP3   OH244736   2.404   6.054   0.373 -0.3293  0.5259  0.0106
 7774TIP3    H144737   2.359   6.052   0.288  0.7340  0.9424 -0.5912
 7774TIP3    H244738   2.484   6.105   0.356  1.1265 -1.4111  0.6421
 7775TIP3   OH244739   4.114   2.737   3.395 -0.1355  0.1018  0.0766
 7775TIP3    H144740   4.187   2.775   3.442  1.4379 -0.7850 -1.4859
 7775TIP3    H244741   4.081   2.668   3.452  2.0738 -1.3177 -0.2492
 7776TIP3   OH244742   0.389   4.656   1.363 -0.2200 -0.5978 -0.2364
 7776TIP3    H144743   0.407   4.595   1.290  1.7671 -0.8795  0.4181
 7776TIP3    H244744   0.409   4.605   1.441 -1.8667 -0.1352  0.5226
 7777TIP3   OH244745   6.373   6.670   2.069 -0.5901  0.7597  0.3786
 7777TIP3    H144746   6.370   6.598   2.132  1.4352 -0.5661 -0.9187
 7777TIP3    H244747   6.327   6.742   2.113 -0.3858 -0.4815  2.8273
 7778TIP3   OH244748   4.561   5.280   0.851  0.3914  0.0257  1.0517
 7778TIP3    H144749   4.504   5.329   0.910  0.0067 -0.2268  0.8907
 7778TIP3    H244750   4.594   5.345   0.790  0.2762  0.1709  1.1453
 7779TIP3   OH244751   5.588   3.266   4.759 -0.0567 -0.4057  0.3975
 7779TIP3    H144752   5.606   3.350   4.801 -0.8657 -0.6216  1.2153
 7779TIP3    H244753   5.620   3.201   4.821  0.1210 -0.7081 -0.0104
 7780TIP3   OH244754   3.594   5.022  16.303  0.4000  0.0058  0.0867
 7780TIP3    H144755   3.597   5.101  16.357 -2.5332 -0.2813  0.8802
 7780TIP3    H244756   3.501   4.998  16.302  1.0370 -2.8287 -1.0177
 7781TIP3   OH244757   3.659   2.966   6.623 -0.0485 -0.1769  0.7951
 7781TIP3    H144758   3.659   3.009   6.538  0.8319 -0.9587  0.3730
 7781TIP3    H244759   3.649   3.037   6.687  0.0696  0.4959  0.0719
 7782TIP3   OH244760   5.551   4.698   1.479 -0.6336 -0.2138  0.1508
 7782TIP3    H144761   5.628   4.713   1.424 -1.5810  1.0042 -0.8935
 7782TIP3    H244762   5.578   4.727   1.566  0.5813 -1.2977  0.1795
 7783TIP3   OH244763   3.657   5.430  11.331  0.4901  0.3605 -0.5762
 7783TIP3    H144764   3.692   5.385  11.407  1.7209  0.7380 -0.8928
 7783TIP3    H244765   3.640   5.361  11.267  0.0512  0.1126 -0.2027
 7784TIP3   OH244766   2.072   2.019   1.755 -0.0113  0.2995  0.1085
 7784TIP3    H144767   2.135   2.052   1.820  0.2086 -0.9617  0.5646
 7784TIP3    H244768   2.074   2.084   1.685  0.0773  1.4628  1.1591
 7785TIP3   OH244769   6.413   1.419   4.626 -0.2051  0.0925 -0.2419
 7785TIP3    H144770   6.479   1.405   4.558  0.9597  0.0534  0.8561
 7785TIP3    H244771   6.463   1.425   4.708 -1.4480  1.3230  0.4900
 7786TIP3   OH244772   6.321   1.809  11.793  0.6408 -0.0687 -0.1621
 7786TIP3    H144773   6.254   1.873  11.817  1.5634  0.1951  1.9411
 7786TIP3    H244774   6.277   1.724  11.801  0.2014  0.1598 -0.1210
 7787TIP3   OH244775   0.115   0.567   3.985  0.3471  0.8105  0.0597
 7787TIP3    H144776   0.052   0.600   4.049  1.2042  0.9948  0.8245
 7787TIP3    H244777   0.194   0.619   4.000  1.9287 -1.8209  1.6468
 7788TIP3   OH244778   2.116   3.335   5.832  0.2334  0.1908  0.2712
 7788TIP3    H144779   2.124   3.404   5.898 -1.2421  1.0143 -0.3518
 7788TIP3    H244780   2.088   3.381   5.753  1.5966 -0.8262 -0.8571
 7789TIP3   OH244781   2.718   4.489  10.594 -0.0117  0.0508 -0.6789
 7789TIP3    H144782   2.630   4.522  10.613 -0.6966 -2.2684  0.6206
 7789TIP3    H244783   2.705   4.424  10.525  1.1848  1.7736 -2.6506
 7790TIP3   OH244784   5.382   5.088   3.911  0.0105 -0.2733 -0.3299
 7790TIP3    H144785   5.455   5.126   3.863  0.0041 -1.0897 -1.0185
 7790TIP3    H244786   5.396   4.993   3.904 -1.6064 -0.4792 -1.2974
 7791TIP3   OH244787   6.382   5.843  17.265  0.0193  0.2487 -0.3214
 7791TIP3    H144788   6.453   5.779  17.270  1.7074  2.1355  1.0543
 7791TIP3    H244789   6.302   5.791  17.277  1.4123 -1.4336  2.5943
 7792TIP3   OH244790   5.189   5.965   1.437 -0.1400 -0.0143 -0.3268
 7792TIP3    H144791   5.109   5.914   1.450 -1.6253  1.5300 -2.6407
 7792TIP3    H244792   5.219   5.941   1.350 -1.0012  3.0202 -1.6106
 7793TIP3   OH244793   1.589   4.073  11.648  0.4385 -0.2094  0.3097
 7793TIP3    H144794   1.582   4.166  11.626  0.3752 -0.3868 -0.4387
 7793TIP3    H244795   1.502   4.050  11.680  0.8779  0.3569  2.0311
 7794TIP3   OH244796   3.162   2.093   4.493  0.3354  0.2291  0.3839
 7794TIP3    H144797   3.115   2.162   4.447  0.3199 -0.9483 -1.4208
 7794TIP3    H244798   3.095   2.046   4.543 -0.5163 -1.4179 -2.1381
 7795TIP3   OH244799   2.694   4.625  12.959 -0.0297 -0.1849 -0.3370
 7795TIP3    H144800   2.741   4.644  12.878 -0.3636  1.6793 -0.1318
 7795TIP3    H244801   2.610   4.670  12.949 -0.0837  0.0583  1.0279
 7796TIP3   OH244802   4.149   6.580   3.406  0.1090 -0.3126  0.6605
 7796TIP3    H144803   4.144   6.486   3.422 -1.4166 -0.3926 -0.0503
 7796TIP3    H244804   4.139   6.620   3.492  0.2581 -0.8009  0.9080
 7797TIP3   OH244805   5.409   5.920   0.154 -0.2187  0.0492 -0.3148
 7797TIP3    H144806   5.458   5.843   0.124  0.5617  0.7136 -0.7956
 7797TIP3    H244807   5.429   5.988   0.090 -0.1387  0.9225  0.6019
 7798TIP3   OH244808   3.701   0.879  15.162  0.8480 -0.2843  0.3915
 7798TIP3    H144809   3.792   0.849  15.164  0.9298 -0.0169  0.9001
 7798TIP3    H244810   3.650   0.798  15.156  1.1394 -0.3952 -1.0781
 7799TIP3   OH244811   6.642   4.332  12.123 -0.0496 -0.2025  0.4087
 7799TIP3    H144812   6.734   4.332  12.150 -0.2821  1.3539  1.3012
 7799TIP3    H244813   6.597   4.379  12.193 -1.4698 -0.6044 -0.2188
 7800TIP3   OH244814   1.391   3.589  14.530  0.3982 -0.0536  0.1497
 7800TIP3    H144815   1.484   3.613  14.524  0.2419  0.4830 -0.2408
 7800TIP3    H244816   1.348   3.670  14.557 -0.3484  0.6148 -2.7048
 7801TIP3   OH244817   0.898   2.414  14.975  0.6399  0.3980  0.3171
 7801TIP3    H144818   0.816   2.365  14.986  1.1297 -0.2309  1.2557
 7801TIP3    H244819   0.873   2.506  14.984  0.0047  0.2273  0.3517
 7802TIP3   OH244820   5.632   1.285  16.170 -0.2768 -0.0167 -0.1437
 7802TIP3    H144821   5.662   1.339  16.243  1.3550 -0.5775 -0.3630
 7802TIP3    H244822   5.596   1.347  16.107  1.4455  0.8568 -0.3288
 7803TIP3   OH244823   2.807   6.595  14.772  0.4941 -0.1993 -0.0243
 7803TIP3    H144824   2.860   6.623  14.697 -0.5458  0.7114 -0.4471
 7803TIP3    H244825   2.719   6.628  14.753  0.0094 -0.7341  1.1772
 7804TIP3   OH244826   6.713   4.933  14.335  0.5456  0.0947 -0.4963
 7804TIP3    H144827   6.718   4.839  14.318  0.9383 -0.0060  0.1364
 7804TIP3    H244828   6.665   4.940  14.418 -1.4884  0.5832 -1.6356
 7805TIP3   OH244829   5.942   6.588  16.196 -0.2104 -0.4826 -0.0485
 7805TIP3    H144830   5.994   6.564  16.273  3.4419 -2.5035 -2.8202
 7805TIP3    H244831   6.007   6.610  16.129 -3.0759 -0.2789 -3.0196
 7806TIP3   OH244832   4.665   4.034  13.840  0.1292  0.2317 -0.5947
 7806TIP3    H144833   4.629   4.109  13.793 -2.7253 -1.3286 -1.1346
 7806TIP3    H244834   4.709   3.982  13.773  0.3078  0.3917 -0.6033
 7807TIP3   OH244835   0.586   2.184  14.100 -0.2559 -0.4575 -0.5649
 7807TIP3    H144836   0.578   2.100  14.146  0.3537 -0.7917 -1.0567
 7807TIP3    H244837   0.539   2.246  14.156 -0.6143 -1.0987 -0.1307
 7808TIP3   OH244838   1.083   2.609   3.921  0.8690  0.3295 -0.2602
 7808TIP3    H144839   1.154   2.669   3.947  0.5554  0.6707 -0.1788
 7808TIP3    H244840   1.012   2.630   3.981  1.1461 -0.9347  0.5335
 7809TIP3   OH244841   4.147   3.424  13.844  0.3570  0.3044  0.3647
 7809TIP3    H144842   4.059   3.405  13.809  0.6078  0.5019 -0.3848
 7809TIP3    H244843   4.137   3.508  13.889 -0.7143 -1.3442  3.5376
 7810TIP3   OH244844   6.408   4.889  15.243  0.4325  0.2789 -0.0709
 7810TIP3    H144845   6.417   4.911  15.150 -1.3466  1.2497 -0.0546
 7810TIP3    H244846   6.323   4.844  15.248  1.2077 -1.1622  0.8780
 7811TIP3   OH244847   5.803   6.497   0.295 -0.2927  0.0797 -0.2503
 7811TIP3    H144848   5.833   6.407   0.291  1.5309  0.6900 -1.2529
 7811TIP3    H244849   5.865   6.541   0.353 -0.4396  0.9273 -0.7129
 7812TIP3   OH244850   4.050   3.089  16.856  0.2894  0.2446  0.1193
 7812TIP3    H144851   3.961   3.105  16.827 -0.4629 -1.8222  1.1323
 7812TIP3    H244852   4.047   3.098  16.951  0.5229 -2.2913  0.4338
 7813TIP3   OH244853   5.963   1.677  13.463  0.2375  0.2760 -0.2327
 7813TIP3    H144854   6.002   1.626  13.392  0.0807 -1.8772  1.1133
 7813TIP3    H244855   5.888   1.721  13.423 -1.0696 -2.4751 -1.0535
 7814TIP3   OH244856   0.502   6.707  16.334 -0.1271 -0.1465 -0.1753
 7814TIP3    H144857   0.455   6.757  16.401  1.6035 -0.4730  1.3679
 7814TIP3    H244858   0.588   6.689  16.373  0.4349 -1.6156 -1.9285
 7815TIP3   OH244859   0.426   5.870  15.582  0.0059 -0.1261 -0.4255
 7815TIP3    H144860   0.500   5.876  15.522  0.1534 -0.8368 -0.3193
 7815TIP3    H244861   0.457   5.815  15.654  0.1004  1.3772  0.7299
 7816TIP3   OH244862   3.622   6.204  12.046 -0.0732 -0.9871  0.4307
 7816TIP3    H144863   3.680   6.141  12.004  0.1751 -0.1796 -0.4844
 7816TIP3    H244864   3.534   6.178  12.019 -0.0398 -1.4514  0.7665
 7817TIP3   OH244865   6.280   4.031  15.258 -0.1059 -0.2360 -0.5960
 7817TIP3    H144866   6.256   4.124  15.247  0.5699  0.1729  1.1327
 7817TIP3    H244867   6.375   4.029  15.247 -0.1112 -0.7169 -0.5688
 7818TIP3   OH244868   6.752   6.537  15.841 -0.3953 -0.4456  0.4903
 7818TIP3    H144869   6.689   6.538  15.769  0.0846  1.5728  0.0311
 7818TIP3    H244870   6.701   6.507  15.916 -1.3493 -0.9167 -0.3179
 7819TIP3   OH244871   0.372   4.512   4.477 -0.1067  0.6934 -0.1862
 7819TIP3    H144872   0.456   4.548   4.448  2.3161 -3.2260  1.0575
 7819TIP3    H244873   0.367   4.533   4.570  0.0418  0.0785 -0.0326
 7820TIP3   OH244874   3.661   0.374  16.291  0.0909  0.0714 -0.4261
 7820TIP3    H144875   3.747   0.414  16.289  0.5499 -0.9053 -1.5402
 7820TIP3    H244876   3.630   0.380  16.201 -1.0144  0.4109 -0.0387
 7821TIP3   OH244877   0.894   6.563   2.290  0.3503 -0.3326  0.3748
 7821TIP3    H144878   0.939   6.539   2.209 -1.6757 -1.3814 -0.5068
 7821TIP3    H244879   0.937   6.644   2.318  2.2694 -0.8787 -0.7653
 7822TIP3   OH244880   5.063   1.971  12.319  0.6175  0.1762  0.4277
 7822TIP3    H144881   4.981   2.019  12.333  0.2171 -0.4564  0.2716
 7822TIP3    H244882   5.059   1.898  12.380 -0.8561 -2.2454 -2.3062
 7823TIP3   OH244883   2.933   3.645  11.904  1.0419  0.3203  0.8357
 7823TIP3    H144884   2.965   3.729  11.870 -1.7592  1.2701  0.2464
 7823TIP3    H244885   2.858   3.668  11.958  0.0836 -1.8269  0.5328
 7824TIP3   OH244886   5.126   3.056  14.924  0.1912  0.4965 -0.4781
 7824TIP3    H144887   5.126   3.137  14.873  0.0316  2.0696  1.9018
 7824TIP3    H244888   5.041   3.055  14.968 -0.0028 -1.2346 -0.8144
 7825TIP3   OH244889   5.323   5.289  16.546  0.2966 -0.2142 -0.5588
 7825TIP3    H144890   5.284   5.259  16.628  1.6814 -1.1768 -0.2093
 7825TIP3    H244891   5.279   5.240  16.478 -1.2491  0.9840 -0.4774
 7826TIP3   OH244892   4.708   5.727  16.093 -0.2268 -0.0758  0.3333
 7826TIP3    H144893   4.707   5.673  16.013 -2.0316  0.2563  0.0949
 7826TIP3    H244894   4.619   5.761  16.100  0.8005  2.8468  0.5101
 7827TIP3   OH244895   3.788   2.422   5.282 -0.1800 -0.1423  0.0942
 7827TIP3    H144896   3.752   2.495   5.332 -0.8684 -0.7887  0.5569
 7827TIP3    H244897   3.865   2.394   5.331 -2.0592 -2.2055  2.1172
 7828TIP3   OH244898   5.859   3.112   4.838 -0.4369  0.4593  0.0312
 7828TIP3    H144899   5.899   3.112   4.752  2.1642 -1.0628  1.1227
 7828TIP3    H244900   5.884   3.196   4.876  1.3254 -0.2185  0.4645
 7829TIP3   OH244901   1.735   4.109  16.523  0.2210 -0.3760 -0.0555
 7829TIP3    H144902   1.685   4.150  16.452  0.6752 -0.2177 -0.2919
 7829TIP3    H244903   1.809   4.067  16.479  1.4499  1.1621  0.4630
 7830TIP3   OH244904   5.383   4.638  16.462  0.1302  0.0031 -0.0105
 7830TIP3    H144905   5.329   4.648  16.540 -0.8098  0.6070 -0.7099
 7830TIP3    H244906   5.391   4.544  16.450  1.0658 -0.1122  1.3170
 7831TIP3   OH244907   4.564   2.861  12.456 -0.4396 -0.0616  0.5348
 7831TIP3    H144908   4.599   2.772  12.449  0.8588  0.5336 -1.1087
 7831TIP3    H244909   4.514   2.873  12.375 -0.5257  0.7401  0.7057
 7832TIP3   OH244910   5.408   3.120   3.164 -0.0802  0.1571  0.6957
 7832TIP3    H144911   5.404   3.160   3.251 -0.0871 -0.1661  0.8464
 7832TIP3    H244912   5.472   3.173   3.116 -0.9291  1.0461  0.5222
 7833TIP3   OH244913   5.824   0.476   0.606  0.3842  0.3037 -0.1776
 7833TIP3    H144914   5.915   0.487   0.579  0.5475  1.2496  0.7065
 7833TIP3    H244915   5.783   0.432   0.532  1.9801 -1.9560  0.1698
 7834TIP3   OH244916   6.142   5.471   6.032 -0.0944  0.5625 -0.1240
 7834TIP3    H144917   6.104   5.547   6.076  0.0708  0.8745 -0.5179
 7834TIP3    H244918   6.097   5.396   6.072 -1.3167  0.9313 -0.7316
 7835TIP3   OH244919   5.802   5.619   5.536  0.2103 -0.2567  0.0761
 7835TIP3    H144920   5.767   5.549   5.591  0.5213 -2.1340 -1.9709
 7835TIP3    H244921   5.790   5.588   5.447 -0.9984  3.0075 -1.0338
 7836TIP3   OH244922   4.599   0.328   2.316 -0.7020 -0.7485  0.3312
 7836TIP3    H144923   4.606   0.423   2.312  0.7970 -0.8908 -1.9701
 7836TIP3    H244924   4.620   0.306   2.407 -0.1191  1.0466  0.6641
 7837TIP3   OH244925   1.164   3.938   0.440  0.4891  0.1133 -0.3458
 7837TIP3    H144926   1.230   3.965   0.375  1.0481  1.0288  0.5819
 7837TIP3    H244927   1.213   3.891   0.506  0.1806  0.6284  0.2566
 7838TIP3   OH244928   5.735   0.889   5.135  0.0851 -0.4092  0.0624
 7838TIP3    H144929   5.665   0.941   5.175 -0.4180  1.0111 -2.4261
 7838TIP3    H244930   5.799   0.878   5.204 -0.6699  1.9780  1.2640
 7839TIP3   OH244931   2.446   5.751   5.943 -0.3249  0.5524  0.1316
 7839TIP3    H144932   2.470   5.674   5.994  0.9844  0.0529 -1.1630
 7839TIP3    H244933   2.352   5.741   5.928 -0.5725  0.2685  1.6548
 7840TIP3   OH244934   4.346   0.629  16.361  0.1461 -0.0851 -0.3193
 7840TIP3    H144935   4.308   0.578  16.433  1.3955  0.4326  0.7543
 7840TIP3    H244936   4.300   0.598  16.283  0.0718 -2.0409  0.4351
 7841TIP3   OH244937   2.110   5.017  11.730 -0.0275 -0.3697  0.0779
 7841TIP3    H144938   2.156   4.933  11.737 -0.5934 -0.5601  1.9143
 7841TIP3    H244939   2.165   5.079  11.778 -1.2211 -0.4201  1.5654
 7842TIP3   OH244940   0.035   6.504   4.510 -0.0945  0.1712  0.5594
 7842TIP3    H144941   0.125   6.537   4.508 -0.0214  0.0538  1.5753
 7842TIP3    H244942   0.044   6.412   4.533 -0.4637  0.0727  0.3278
 7843TIP3   OH244943   5.559   4.569  17.253 -0.8491 -0.3712  0.1236
 7843TIP3    H144944   5.488   4.522  17.297  0.3029 -1.7829  0.5727
 7843TIP3    H244945   5.618   4.500  17.222 -1.1030  0.6092 -2.8631
 7844TIP3   OH244946   0.782   3.651   3.560  0.6339 -0.3115 -0.0907
 7844TIP3    H144947   0.846   3.701   3.510 -0.7967  0.0257 -1.6675
 7844TIP3    H244948   0.785   3.689   3.648 -0.9505  3.2192 -1.3879
 7845TIP3   OH244949   6.615   1.913  14.320 -0.9116  0.1138  0.2885
 7845TIP3    H144950   6.540   1.973  14.314  0.3223  2.0548  2.3956
 7845TIP3    H244951   6.672   1.939  14.248 -1.6545 -0.4821 -0.5268
 7846TIP3   OH244952   3.123   0.338  15.353  0.7425 -0.5973  0.4148
 7846TIP3    H144953   3.061   0.265  15.366  0.5615 -0.6680 -0.7336
 7846TIP3    H244954   3.126   0.382  15.438 -1.5769 -0.0623  0.3025
 7847TIP3   OH244955   4.367   0.856   4.894 -0.2007  0.0805  0.1372
 7847TIP3    H144956   4.300   0.922   4.912  0.8118  1.3970 -0.6957
 7847TIP3    H244957   4.372   0.853   4.798  1.0412  0.1660  0.1801
 7848TIP3   OH244958   3.202   4.210   5.758 -0.3097  0.0598 -0.2570
 7848TIP3    H144959   3.201   4.223   5.853 -1.8832  1.9595 -0.4709
 7848TIP3    H244960   3.227   4.296   5.723  0.9871 -0.8005 -1.5829
 7849TIP3   OH244961   0.388   0.014  12.348 -0.2499 -0.0142 -0.2606
 7849TIP3    H144962   0.436   0.090  12.382 -1.5760  1.1237 -0.8277
 7849TIP3    H244963   0.434  -0.009  12.268  0.6611 -0.3496  0.3490
 7850TIP3   OH244964   1.396   6.636  15.422 -0.1763 -0.0986 -0.1722
 7850TIP3    H144965   1.489   6.657  15.410  0.0577 -0.0132  1.4967
 7850TIP3    H244966   1.387   6.548  15.385  0.8505 -0.5658  0.5981
 7851TIP3   OH244967   4.214   1.360  11.795 -0.2104 -0.2599  0.1270
 7851TIP3    H144968   4.289   1.410  11.763  3.0115 -2.6064  3.1968
 7851TIP3    H244969   4.218   1.277  11.748 -0.3599 -0.7302  0.9307
 7852TIP3   OH244970   1.752   4.368  12.645 -0.7020  0.4722  0.2037
 7852TIP3    H144971   1.682   4.319  12.602  0.8388 -2.3477  0.6735
 7852TIP3    H244972   1.792   4.305  12.705  1.7612  2.1888  0.5169
 7853TIP3   OH244973   5.985   0.492   2.240  0.4313  0.3414 -0.3251
 7853TIP3    H144974   5.924   0.420   2.225  1.4496 -0.2253 -2.0207
 7853TIP3    H244975   5.929   0.566   2.266 -0.7426 -0.7113  0.2317
 7854TIP3   OH244976   5.991   3.314  13.888  0.0036  0.5390 -0.2969
 7854TIP3    H144977   5.954   3.346  13.806  0.5426 -1.3054 -1.3164
 7854TIP3    H244978   6.083   3.340  13.885 -0.3299  1.8857  0.5098
 7855TIP3   OH244979   6.338   6.186   3.552  0.2534 -0.1152 -1.1772
 7855TIP3    H144980   6.331   6.246   3.627  0.1913 -3.0321  1.3247
 7855TIP3    H244981   6.274   6.220   3.490 -0.5350  1.8227  0.5418
 7856TIP3   OH244982   1.901   5.525  13.794 -0.7416  0.2144  0.2745
 7856TIP3    H144983   1.847   5.557  13.867 -1.3350 -1.5957  0.6652
 7856TIP3    H244984   1.903   5.430  13.805  2.9669  0.1719  0.5766
 7857TIP3   OH244985   1.719   4.804  17.247 -0.0760  0.1062 -0.2082
 7857TIP3    H144986   1.768   4.746  17.305  2.2223 -0.6842 -2.7446
 7857TIP3    H244987   1.680   4.868  17.305  2.1298 -0.5671  2.2042
 7858TIP3   OH244988   1.534   4.787  15.269 -0.0867  0.5444 -0.3030
 7858TIP3    H144989   1.542   4.847  15.195 -0.7957  0.0516 -0.7906
 7858TIP3    H244990   1.440   4.783  15.287 -0.0626 -0.4921 -0.3370
 7859TIP3   OH244991   3.972   0.267   5.774 -0.6959 -0.7207  0.3674
 7859TIP3    H144992   3.945   0.349   5.732 -0.0631 -0.8016 -0.2016
 7859TIP3    H244993   3.987   0.291   5.865  4.2517  1.0030 -0.6105
 7860TIP3   OH244994   3.071   4.149   1.605  0.2650  0.6276  0.2189
 7860TIP3    H144995   3.101   4.171   1.517  0.2507 -0.1540  0.0110
 7860TIP3    H244996   2.979   4.126   1.594 -0.0815  1.7295  0.6465
 7861TIP3   OH244997   1.791   1.443   0.481  0.3832  0.7113  0.1583
 7861TIP3    H144998   1.737   1.519   0.458 -1.0654  0.7333  3.2341
 7861TIP3    H244999   1.743   1.399   0.551  1.8343 -2.3396 -0.5837
 7862TIP3   OH245000   4.450   0.042   4.437 -0.4248 -0.5437  0.5370
 7862TIP3    H145001   4.502   0.123   4.432  1.2169 -1.4415  1.8081
 7862TIP3    H245002   4.457   0.003   4.350  0.2737 -0.1796  0.4226
 7863TIP3   OH245003   4.753   0.130  12.003  0.4957  0.3327 -0.6081
 7863TIP3    H145004   4.741   0.098  12.092 -1.4186  0.9941 -0.5701
 7863TIP3    H245005   4.750   0.051  11.948 -1.9287  0.1449 -0.3359
 7864TIP3   OH245006   2.251   0.566   3.666  0.0617  0.6121  0.7511
 7864TIP3    H145007   2.220   0.565   3.575 -1.4551  0.1596  1.2309
 7864TIP3    H245008   2.209   0.643   3.705 -1.3708 -0.5853  1.6919
 7865TIP3   OH245009   5.521   3.285   2.077 -0.1973 -0.1149 -0.3487
 7865TIP3    H145010   5.448   3.266   2.136  1.3128 -0.8948  1.3690
 7865TIP3    H245011   5.480   3.299   1.992 -2.2208 -2.2229  0.1727
 7866TIP3   OH245012   4.060   5.351   3.322  0.7113  0.8868 -0.8889
 7866TIP3    H145013   4.004   5.281   3.289  0.6451  0.3781  0.2306
 7866TIP3    H245014   4.002   5.427   3.327  0.4709  0.7155 -1.0153
 7867TIP3   OH245015   0.331   2.391   5.834 -0.7334  0.0701 -0.3646
 7867TIP3    H145016   0.423   2.407   5.814 -0.9074  0.0051 -1.2558
 7867TIP3    H245017   0.325   2.401   5.929  0.2110 -0.0233 -0.2852
 7868TIP3   OH245018   4.481   5.793   5.012  0.3733 -0.2612  0.0877
 7868TIP3    H145019   4.436   5.718   4.974  0.9716 -0.9582  0.7049
 7868TIP3    H245020   4.567   5.793   4.971  0.0894  0.6093 -0.5322
 7869TIP3   OH245021   1.888   4.498   2.209  0.0407  0.2575  0.0645
 7869TIP3    H145022   1.868   4.562   2.278  1.1611 -0.5754  1.2141
 7869TIP3    H245023   1.970   4.531   2.170  1.6228 -1.3180  1.8541
 7870TIP3   OH245024   0.219   2.727  11.566  0.0432  0.2487 -0.0592
 7870TIP3    H145025   0.228   2.660  11.634  0.2669 -0.0407 -0.3690
 7870TIP3    H245026   0.193   2.678  11.488  0.2263  0.5217 -0.2919
 7871TIP3   OH245027   4.908   4.056  15.667 -0.2799 -0.4319  0.5984
 7871TIP3    H145028   4.964   3.978  15.673  1.0384  0.4946  0.7322
 7871TIP3    H245029   4.952   4.112  15.603 -0.7948  0.5439  1.0802
 7872TIP3   OH245030   5.828   0.202   1.667 -0.3123  0.2433  0.2781
 7872TIP3    H145031   5.776   0.127   1.640 -0.8306  0.3563  0.9220
 7872TIP3    H245032   5.770   0.277   1.654 -0.0593  0.4485  0.3249
 7873TIP3   OH245033   6.496   0.664  12.393  0.1485 -0.3128 -0.6033
 7873TIP3    H145034   6.557   0.737  12.403 -0.8097  0.3622  0.4895
 7873TIP3    H245035   6.514   0.608  12.469  0.1258 -0.6588 -0.8496
 7874TIP3   OH245036   4.457   1.877  16.257  0.3723 -0.2442 -0.0723
 7874TIP3    H145037   4.436   1.848  16.169  0.2744 -0.4475  0.0163
 7874TIP3    H245038   4.372   1.886  16.301  0.4120  0.0240 -0.0523
 7875TIP3   OH245039   1.604   3.110  12.413  0.4567 -0.2092 -0.6785
 7875TIP3    H145040   1.648   3.035  12.374  1.9697  0.5563 -0.5154
 7875TIP3    H245041   1.654   3.186  12.382  0.9320  0.5045  1.6760
 7876TIP3   OH245042   1.165   1.881   1.929  0.1487  0.4404 -0.3130
 7876TIP3    H145043   1.114   1.958   1.902 -3.2323 -1.3579  0.4330
 7876TIP3    H245044   1.135   1.862   2.017  0.7850 -1.8487 -0.5338
 7877TIP3   OH245045   5.126   5.062  13.451 -0.5447 -0.1156 -0.4923
 7877TIP3    H145046   5.034   5.085  13.465 -0.4813 -0.7160  1.0621
 7877TIP3    H245047   5.123   4.993  13.385 -1.1176  0.5836 -1.2222
 7878TIP3   OH245048   5.847   4.148  14.623  0.1149  0.9978 -0.2416
 7878TIP3    H145049   5.752   4.143  14.635  0.1330 -0.2673 -0.4875
 7878TIP3    H245050   5.858   4.177  14.533 -0.0611 -0.5435 -0.7803
 7879TIP3   OH245051   3.981   4.482  17.101  0.3083  0.3195 -0.2625
 7879TIP3    H145052   4.073   4.461  17.085  0.1970  0.5652 -1.2862
 7879TIP3    H245053   3.958   4.543  17.031 -0.6087  0.3522  0.0542
 7880TIP3   OH245054   0.820   1.146   4.960 -0.3828  0.2642 -0.6918
 7880TIP3    H145055   0.845   1.158   4.868  1.6303 -0.6590 -0.3232
 7880TIP3    H245056   0.902   1.157   5.008  0.1192 -5.4182  0.4400
 7881TIP3   OH245057   4.242   4.751  15.699 -0.4050 -0.1276  0.1212
 7881TIP3    H145058   4.262   4.800  15.779 -0.0870  0.8643 -0.5549
 7881TIP3    H245059   4.328   4.723  15.667 -0.4855 -0.0325 -0.1766
 7882TIP3   OH245060   2.782   1.258  14.970 -0.3738 -0.0331 -0.1472
 7882TIP3    H145061   2.787   1.248  15.065  2.4199  0.3298 -0.1718
 7882TIP3    H245062   2.833   1.337  14.952 -1.0511  0.0380 -1.9455
 7883TIP3   OH245063   2.132   3.649   6.285  0.2257  0.4258 -0.1507
 7883TIP3    H145064   2.067   3.710   6.319  0.0032  0.1989 -0.1664
 7883TIP3    H245065   2.216   3.694   6.298  0.0846  0.6326  0.0564
 7884TIP3   OH245066   2.626   2.462  13.168  0.2236 -0.6953 -0.2010
 7884TIP3    H145067   2.547   2.509  13.191  0.6869  0.4366 -0.8748
 7884TIP3    H245068   2.693   2.498  13.226  0.6775 -0.1987 -1.0209
 7885TIP3   OH245069   6.469   5.996   0.793  0.3538 -0.0289  0.6826
 7885TIP3    H145070   6.408   6.065   0.769  2.0401  0.8159 -1.4693
 7885TIP3    H245071   6.419   5.915   0.783 -0.4276  0.6274 -1.0816
 7886TIP3   OH245072   1.844   2.320  16.552 -0.2713  0.1676 -0.6422
 7886TIP3    H145073   1.844   2.240  16.604  1.2040  0.1770 -0.5640
 7886TIP3    H245074   1.926   2.316  16.501 -1.0735  0.7442 -2.0440
 7887TIP3   OH245075   6.358   5.655   1.328  0.1329  0.1226 -0.1146
 7887TIP3    H145076   6.340   5.561   1.342 -0.5798  0.3045  0.2600
 7887TIP3    H245077   6.279   5.699   1.361  1.7725  1.0813  2.8962
 7888TIP3   OH245078   1.900   6.198  14.037  0.2298  0.0306 -0.5107
 7888TIP3    H145079   1.828   6.187  14.100  1.5277 -0.9904  0.8739
 7888TIP3    H245080   1.976   6.160  14.081  1.6282  1.0486 -1.9414
 7889TIP3   OH245081   5.811   1.259   0.311  0.1234 -0.5657  0.0027
 7889TIP3    H145082   5.828   1.186   0.251 -1.8159 -1.2191  0.1897
 7889TIP3    H245083   5.804   1.218   0.397  1.1634  0.1504  0.4501
 7890TIP3   OH245084   3.337   6.316  17.110  0.5450 -0.3388 -0.4225
 7890TIP3    H145085   3.370   6.291  17.024  1.5255 -0.0919 -0.1288
 7890TIP3    H245086   3.414   6.348  17.157 -0.2015  0.7369  0.1103
 7891TIP3   OH245087   1.267   4.890   4.658  0.2187  0.3569  0.1916
 7891TIP3    H145088   1.217   4.972   4.667 -0.1296 -0.0051  1.8017
 7891TIP3    H245089   1.201   4.825   4.634 -0.0470 -0.0206  1.8282
 7892TIP3   OH245090   5.242   0.085   1.925 -0.1047  0.0630  0.4322
 7892TIP3    H145091   5.237  -0.009   1.908 -0.4219  0.2379 -0.5148
 7892TIP3    H245092   5.329   0.110   1.894 -0.6921  0.3868 -1.0479
 7893TIP3   OH245093   2.658   5.809  14.489 -0.3731 -0.5090  0.4783
 7893TIP3    H145094   2.674   5.839  14.578  3.0463  0.8895 -0.4476
 7893TIP3    H245095   2.717   5.735  14.477 -0.2772 -0.2492 -0.8000
 7894TIP3   OH245096   3.639   5.259   4.636  0.3453  0.1940  0.2904
 7894TIP3    H145097   3.650   5.169   4.605 -1.4082 -0.1844  0.6798
 7894TIP3    H245098   3.574   5.254   4.706 -0.2768  1.8367 -0.1023
 7895TIP3   OH245099   5.692   2.926   4.512 -0.2525 -0.3594 -0.1430
 7895TIP3    H145100   5.768   2.941   4.569  1.3591 -2.7012 -1.5103
 7895TIP3    H245101   5.695   2.997   4.448  0.6435 -0.2962 -0.0420
 7896TIP3   OH245102   5.478   5.355  14.726 -0.1211  1.0788  0.3012
 7896TIP3    H145103   5.493   5.415  14.652 -0.2707 -0.6964 -1.2260
 7896TIP3    H245104   5.553   5.295  14.724 -1.1659 -0.2625  0.2918
 7897TIP3   OH245105   4.003   4.084  13.430  0.0471 -0.1477  0.0348
 7897TIP3    H145106   4.063   4.139  13.479 -0.1581 -0.6572  0.8905
 7897TIP3    H245107   3.927   4.074  13.488 -0.2244 -0.7183 -0.4046
 7898TIP3   OH245108   5.413   2.756  14.816  0.4206  0.0932 -0.3220
 7898TIP3    H145109   5.333   2.739  14.766  0.0360 -1.0358  0.6277
 7898TIP3    H245110   5.386   2.816  14.886  0.0519 -1.3616  0.8304
 7899TIP3   OH245111   0.670   0.801   0.664  0.7974  0.4437 -0.5253
 7899TIP3    H145112   0.729   0.765   0.730  0.8106  1.1292 -0.1533
 7899TIP3    H245113   0.585   0.809   0.708  0.4477 -0.4036 -1.0148
 7900TIP3   OH245114   6.158   2.012   3.636 -0.3592  0.0002  0.5649
 7900TIP3    H145115   6.178   1.930   3.682 -0.8091  0.5059  1.6974
 7900TIP3    H245116   6.076   2.042   3.675 -0.7663  0.4369 -0.6073
 7901TIP3   OH245117   3.609   3.780  13.177 -0.0477 -0.2218  0.0987
 7901TIP3    H145118   3.658   3.708  13.137 -1.4654 -0.5208 -1.1611
 7901TIP3    H245119   3.657   3.799  13.258  1.9776 -0.6609 -0.9490
 7902TIP3   OH245120   5.075   1.929   0.587  0.8906  0.8908  0.3957
 7902TIP3    H145121   5.162   1.941   0.550  1.9419  0.1978  2.4351
 7902TIP3    H245122   5.024   1.887   0.518  3.1343 -1.6958  0.1552
 7903TIP3   OH245123   6.032   3.479   6.090 -0.8946 -0.0539  0.5251
 7903TIP3    H145124   6.101   3.483   6.156 -2.2722  1.6119  1.9668
 7903TIP3    H245125   5.954   3.452   6.139 -1.5615 -0.6396 -0.8119
 7904TIP3   OH245126   4.805   4.076  11.596  0.2084 -0.6693  0.3541
 7904TIP3    H145127   4.848   3.993  11.574  2.5777  1.2765 -3.4631
 7904TIP3    H245128   4.865   4.120  11.656  0.0253 -0.8469  0.6662
 7905TIP3   OH245129   5.092   3.856  15.613 -0.3638  0.1854 -0.3618
 7905TIP3    H145130   5.132   3.886  15.532  0.6080 -0.5342 -0.1720
 7905TIP3    H245131   5.165   3.848  15.674 -0.9959  0.1356  0.4039
 7906TIP3   OH245132   5.090   4.727   4.925 -0.1216  0.0727 -0.7821
 7906TIP3    H145133   5.131   4.659   4.871 -0.4787  0.2690 -1.3061
 7906TIP3    H245134   5.005   4.742   4.884 -0.6497 -0.1987  0.1918
 7907TIP3   OH245135   4.252   6.216   1.248 -0.2624  0.2682 -0.3291
 7907TIP3    H145136   4.218   6.233   1.160 -1.8976 -1.5091 -0.1040
 7907TIP3    H245137   4.290   6.128   1.241  2.0756  1.1817  0.0981
 7908TIP3   OH245138   3.784   1.382  16.894 -0.6124 -0.4568 -0.2519
 7908TIP3    H145139   3.750   1.470  16.878  0.9042 -0.1274 -1.8293
 7908TIP3    H245140   3.856   1.394  16.956 -0.1240 -0.5290 -0.8012
 7909TIP3   OH245141   3.587   1.676   3.573 -0.4774  0.0184 -0.5749
 7909TIP3    H145142   3.673   1.684   3.532 -0.2072 -0.3525 -0.0924
 7909TIP3    H245143   3.586   1.587   3.608 -0.5283  0.4632  0.6006
 7910TIP3   OH245144   2.801   4.312  17.024  0.1536 -0.3037  0.3065
 7910TIP3    H145145   2.793   4.382  16.959  0.6950 -0.0547  0.4978
 7910TIP3    H245146   2.724   4.257  17.011 -0.6295  0.7060  0.6105
 7911TIP3   OH245147   0.181   5.659  11.181 -0.2937 -0.2271  0.1336
 7911TIP3    H145148   0.193   5.661  11.276  0.9086 -0.8880  0.0247
 7911TIP3    H245149   0.087   5.665  11.168 -0.4456  0.2854  1.3507
 7912TIP3   OH245150   0.329   2.172   3.131  0.1070  0.1637  0.0305
 7912TIP3    H145151   0.311   2.243   3.193 -1.4069 -0.1429 -0.0070
 7912TIP3    H245152   0.243   2.133   3.115  0.6499 -0.5213 -1.3447
 7913TIP3   OH245153   0.087   4.486   5.757 -0.0110  0.0095  0.1696
 7913TIP3    H145154   0.170   4.524   5.786 -0.9615 -0.0410  3.3867
 7913TIP3    H245155   0.081   4.403   5.804 -1.8502  0.0234  0.0224
 7914TIP3   OH245156   4.001   0.632   1.468 -0.6628  0.0698  0.7696
 7914TIP3    H145157   4.034   0.682   1.394 -0.4797 -1.2727 -0.0771
 7914TIP3    H245158   3.915   0.670   1.485  0.0817  1.6886  1.1627
 7915TIP3   OH245159   2.584   3.096   4.631  0.8448 -0.1267  0.1309
 7915TIP3    H145160   2.539   3.107   4.548 -0.1463  0.4963  0.7293
 7915TIP3    H245161   2.555   3.010   4.663  2.1701 -0.9214 -0.7033
 7916TIP3   OH245162   6.378   4.111  11.338  0.2798 -0.5025  0.1073
 7916TIP3    H145163   6.389   4.195  11.294  3.8639 -1.7424 -1.7462
 7916TIP3    H245164   6.385   4.132  11.431  0.1349  1.3370 -0.2604
 7917TIP3   OH245165   4.623   4.786  15.144  0.3634 -0.3718  0.1499
 7917TIP3    H145166   4.649   4.871  15.108 -0.8799 -0.6864 -1.6463
 7917TIP3    H245167   4.529   4.795  15.160  0.0229 -1.7002 -0.9789
 7918TIP3   OH245168   5.473   5.545   6.095 -0.4642  0.7052 -0.0382
 7918TIP3    H145169   5.550   5.581   6.050  1.0899 -0.3097  1.6195
 7918TIP3    H245170   5.441   5.476   6.038 -0.7367  1.7477 -1.1774
 7919TIP3   OH245171   1.325   2.966  12.877  0.0212  0.4343  0.4589
 7919TIP3    H145172   1.292   2.876  12.880 -1.0434  0.8072  0.1621
 7919TIP3    H245173   1.360   2.976  12.789  0.2003  0.2876  0.5133
 7920TIP3   OH245174   6.040   2.696  13.285  0.4613 -0.5210  0.6836
 7920TIP3    H145175   6.078   2.783  13.297  1.3146 -0.7795 -0.0241
 7920TIP3    H245176   5.956   2.700  13.330 -0.8113  1.5771 -1.6405
 7921TIP3   OH245177   5.133   6.627   3.306  0.3627 -1.1372  0.6330
 7921TIP3    H145178   5.165   6.591   3.389  2.7473 -1.3684 -0.3007
 7921TIP3    H245179   5.109   6.717   3.327 -1.2749 -1.8435  2.0146
 7922TIP3   OH245180   0.782   3.706  17.140 -0.5454  0.3006  0.0560
 7922TIP3    H145181   0.756   3.797  17.152  0.4721  0.9034 -1.9056
 7922TIP3    H245182   0.723   3.674  17.072  0.6202  0.2246 -0.9411
 7923TIP3   OH245183   4.754   6.332   1.698  0.1918 -1.0986 -0.1855
 7923TIP3    H145184   4.775   6.424   1.714 -1.3987 -0.8446  0.6158
 7923TIP3    H245185   4.664   6.322   1.728  0.0408 -2.7260 -1.0692
 7924TIP3   OH245186   2.757   2.416   2.798 -0.3050  0.1357  0.4694
 7924TIP3    H145187   2.773   2.454   2.712 -0.7575  1.0373  0.7721
 7924TIP3    H245188   2.743   2.492   2.855 -2.3025 -0.4985  0.8866
 7925TIP3   OH245189   3.436   3.448  15.279 -0.0281  0.2654  0.0115
 7925TIP3    H145190   3.444   3.535  15.239 -0.1522  0.9983  1.5187
 7925TIP3    H245191   3.434   3.465  15.373 -1.4220 -1.2711  0.2999
 7926TIP3   OH245192   1.570   0.488   1.909 -0.1208  0.1667 -0.1834
 7926TIP3    H145193   1.615   0.461   1.990 -1.8449 -1.3776  0.3132
 7926TIP3    H245194   1.500   0.546   1.939 -0.8111 -0.4662 -0.5679
 7927TIP3   OH245195   4.186   1.503  15.046 -0.2629  0.4331  0.2471
 7927TIP3    H145196   4.118   1.511  14.979 -1.1682 -1.7907  0.8117
 7927TIP3    H245197   4.167   1.420  15.090  2.2286  0.2518  1.1306
 7928TIP3   OH245198   0.440   2.489  11.980 -0.1537  0.2525 -0.2971
 7928TIP3    H145199   0.459   2.582  11.966  2.1560 -0.1019 -0.0152
 7928TIP3    H245200   0.518   2.443  11.947  0.8140 -1.2650  3.5078
 7929TIP3   OH245201   3.414   2.511   5.404  0.0639 -0.3599  0.2258
 7929TIP3    H145202   3.384   2.595   5.439  2.3543  1.0382 -0.9200
 7929TIP3    H245203   3.448   2.464   5.480  2.9364  1.7159  0.3854
 7930TIP3   OH245204   6.397   0.165   0.797 -0.4214  0.1126  0.6712
 7930TIP3    H145205   6.342   0.205   0.730 -0.6455  0.7763  1.2288
 7930TIP3    H245206   6.486   0.178   0.767 -0.5063  0.7558  0.6785
 7931TIP3   OH245207   3.484   1.676  14.098 -0.8397  0.0797 -0.2295
 7931TIP3    H145208   3.471   1.582  14.091  0.0842 -0.0801 -0.0296
 7931TIP3    H245209   3.487   1.707  14.008 -0.4747 -0.1889 -0.3112
 7932TIP3   OH245210   2.590   3.685   4.432  0.0207 -0.1021 -0.2798
 7932TIP3    H145211   2.625   3.641   4.355  2.0182 -0.3244  0.6831
 7932TIP3    H245212   2.643   3.652   4.505 -2.3380 -0.5459  1.3515
 7933TIP3   OH245213   5.268   5.080   2.447  0.2417  0.3503 -0.6144
 7933TIP3    H145214   5.210   5.013   2.484 -0.6615  0.5629 -1.5966
 7933TIP3    H245215   5.229   5.163   2.475 -0.0455  0.4977 -1.4233
 7934TIP3   OH245216   4.413   1.767   2.182  0.2533 -0.0416 -0.0541
 7934TIP3    H145217   4.472   1.818   2.127  0.3138  0.0600  0.1044
 7934TIP3    H245218   4.456   1.764   2.268  0.1718 -0.2204 -0.0187
 7935TIP3   OH245219   4.256   5.141  11.552  0.5754 -0.6223  0.3303
 7935TIP3    H145220   4.288   5.052  11.537  1.4019 -0.2823 -0.0082
 7935TIP3    H245221   4.312   5.196  11.497  1.1135  0.2637  1.7115
 7936TIP3   OH245222   2.956   2.883   1.355  0.3097 -0.2639  0.2492
 7936TIP3    H145223   3.001   2.800   1.340  0.3644 -0.1288 -0.3774
 7936TIP3    H245224   2.982   2.938   1.281 -0.4671 -0.0043  0.1564
 7937TIP3   OH245225   4.051   2.713  13.937  0.3566  0.1524  0.2682
 7937TIP3    H145226   4.055   2.803  13.906 -1.4255  0.7507  1.5816
 7937TIP3    H245227   3.967   2.680  13.903  0.9691 -1.0217 -0.1701
 7938TIP3   OH245228   2.317   1.833   1.948 -0.4004  0.1016 -0.4100
 7938TIP3    H145229   2.274   1.780   2.015  1.2162 -1.6582 -0.6933
 7938TIP3    H245230   2.376   1.890   1.997 -0.5265  0.0744 -0.2256
 7939TIP3   OH245231   0.271   1.091   2.779 -0.1856 -0.2960 -0.1175
 7939TIP3    H145232   0.341   1.126   2.835  0.2579  0.7112 -1.2624
 7939TIP3    H245233   0.193   1.092   2.834  0.3547  0.1529  0.6596
 7940TIP3   OH245234   5.787   4.415   5.418  0.1194 -0.1730 -0.2502
 7940TIP3    H145235   5.748   4.438   5.334  0.3872 -0.1982 -0.3820
 7940TIP3    H245236   5.740   4.469   5.482 -0.4451 -0.5422 -0.3511
 7941TIP3   OH245237   3.519   0.078  11.378  0.5213  0.0362 -0.6195
 7941TIP3    H145238   3.486   0.023  11.308  1.4924 -1.4187  0.0328
 7941TIP3    H245239   3.614   0.077  11.367  0.6303  0.5306  0.1815
 7942TIP3   OH245240   6.640   4.945   5.086 -0.0958 -0.0497  0.3235
 7942TIP3    H145241   6.631   4.943   5.181 -0.5591 -2.8244  0.2924
 7942TIP3    H245242   6.643   4.853   5.060  0.9878  0.6276 -2.2820
 7943TIP3   OH245243   6.580   4.954   5.791  0.0059 -0.2632  0.1108
 7943TIP3    H145244   6.509   4.892   5.770 -0.9552  0.9270 -0.2395
 7943TIP3    H245245   6.597   5.000   5.709 -0.0346  0.6820  0.6245
 7944TIP3   OH245246   0.376   5.420  14.108  0.4802  0.0276 -0.0840
 7944TIP3    H145247   0.447   5.456  14.162  0.2537  0.7993 -0.2848
 7944TIP3    H245248   0.370   5.480  14.034  1.5132 -1.5987 -1.5702
 7945TIP3   OH245249   5.139   2.970   1.361  0.0482 -0.3773  0.5689
 7945TIP3    H145250   5.084   2.893   1.343 -0.7326 -0.0806  1.5713
 7945TIP3    H245251   5.080   3.044   1.349  0.9972  0.1400 -1.1629
 7946TIP3   OH245252   2.946   5.971  13.356 -0.0535  0.2281 -0.1208
 7946TIP3    H145253   2.888   5.906  13.394 -0.7812 -0.9073 -2.9241
 7946TIP3    H245254   2.992   5.925  13.286  1.9748  1.9010  0.0084
 7947TIP3   OH245255   5.630   3.649  13.970  0.3549  0.0559  0.2875
 7947TIP3    H145256   5.599   3.610  14.052  0.1183 -2.3681 -0.8530
 7947TIP3    H245257   5.718   3.682  13.991  0.8936 -1.8289  1.2112
 7948TIP3   OH245258   2.184   3.708   4.059 -0.3421  0.3078 -0.4769
 7948TIP3    H145259   2.130   3.700   4.138  2.7133 -2.1509  1.5903
 7948TIP3    H245260   2.128   3.754   3.997 -4.7220 -1.7733  1.4908
 7949TIP3   OH245261   4.538   6.414   6.418  0.1516  0.2026 -0.8605
 7949TIP3    H145262   4.567   6.503   6.433 -0.8329  0.6801 -1.6583
 7949TIP3    H245263   4.558   6.367   6.499 -0.2343  1.3941 -0.0608
 7950TIP3   OH245264   4.002   2.333  16.244  0.3988 -0.2062 -0.3271
 7950TIP3    H145265   3.986   2.266  16.177 -2.1001 -1.3149  1.2557
 7950TIP3    H245266   3.940   2.402  16.224 -1.8841 -1.4668  1.9103
 7951TIP3   OH245267   2.329   2.193  13.348  0.0891  0.0268 -0.5369
 7951TIP3    H145268   2.409   2.140  13.353 -1.6198 -3.0949 -2.7557
 7951TIP3    H245269   2.345   2.252  13.275  1.4782  1.7380  1.0563
 7952TIP3   OH245270   2.848   1.865   1.646 -0.2095  0.2771  0.0130
 7952TIP3    H145271   2.835   1.912   1.564 -1.6574 -0.0512  0.0286
 7952TIP3    H245272   2.880   1.931   1.707  1.1106  0.4801 -0.8446
 7953TIP3   OH245273   5.294   5.048   2.989  0.1670  0.0643  0.3210
 7953TIP3    H145274   5.305   5.141   3.008 -0.2817 -0.3229  2.7760
 7953TIP3    H245275   5.235   5.046   2.914  0.1107  1.7472  0.2741
 7954TIP3   OH245276   5.645   4.396   0.511 -0.5143 -0.0541 -0.7104
 7954TIP3    H145277   5.581   4.327   0.525 -1.0382  0.4322 -0.6399
 7954TIP3    H245278   5.686   4.409   0.597 -0.7146  0.0083 -0.6225
 7955TIP3   OH245279   3.251   4.676  12.490 -0.1915 -0.0352 -0.0476
 7955TIP3    H145280   3.215   4.737  12.427  0.2265 -0.4666 -0.7136
 7955TIP3    H245281   3.230   4.714  12.575  1.2948  1.7694 -0.4173
 7956TIP3   OH245282   5.061   6.565  14.817 -0.2881 -0.1965 -0.2700
 7956TIP3    H145283   5.008   6.592  14.892 -1.5348 -1.6784 -0.5707
 7956TIP3    H245284   5.048   6.635  14.753  0.3474  0.8042  0.6451
 7957TIP3   OH245285   0.912   0.052  14.938 -0.3317  0.6315  0.0216
 7957TIP3    H145286   0.865   0.041  14.856  0.6128 -0.6796 -0.3741
 7957TIP3    H245287   0.954   0.137  14.931  0.6376  0.0726 -1.3568
 7958TIP3   OH245288   3.720   5.832  16.313  0.6056  0.0099 -0.2366
 7958TIP3    H145289   3.638   5.882  16.311 -0.8102 -2.2017 -2.1558
 7958TIP3    H245290   3.788   5.899  16.307 -1.1676  1.8063 -3.1450
 7959TIP3   OH245291   3.661   0.514  16.000  0.3379 -0.0802  0.5472
 7959TIP3    H145292   3.748   0.505  15.960 -0.6123  0.1102 -1.7574
 7959TIP3    H245293   3.668   0.591  16.055  1.3125  0.7004 -0.6021
 7960TIP3   OH245294   3.177   5.569  16.657  0.5558  0.5589 -0.6618
 7960TIP3    H145295   3.112   5.636  16.680 -0.1025 -0.9676  2.3629
 7960TIP3    H245296   3.141   5.528  16.578 -2.0360  0.0713  0.6413
 7961TIP3   OH245297   4.025   0.925   2.476  0.5396 -0.0378  0.4250
 7961TIP3    H145298   3.966   0.990   2.438  2.0936  1.9320  1.2019
 7961TIP3    H245299   4.088   0.977   2.527  1.5556 -2.2100  1.4938
 7962TIP3   OH245300   1.015   2.336   4.617 -0.1388  0.3366  0.7734
 7962TIP3    H145301   0.986   2.424   4.594  1.5231  0.6657 -0.2045
 7962TIP3    H245302   0.956   2.309   4.688 -0.5580  2.2929  1.2269
 7963TIP3   OH245303   2.566   5.558   1.740 -0.1495 -0.2801  0.3167
 7963TIP3    H145304   2.593   5.583   1.828  0.3244 -0.9638  0.3803
 7963TIP3    H245305   2.522   5.635   1.705 -1.3460 -0.3645  1.5556
 7964TIP3   OH245306   5.756   3.083   5.831 -0.1068 -0.2337 -0.2796
 7964TIP3    H145307   5.755   2.995   5.870 -2.4369 -0.9391 -1.7841
 7964TIP3    H245308   5.673   3.122   5.857  0.4877  1.1827 -0.4366
 7965TIP3   OH245309   2.736   3.407  14.892  0.0975  0.2394 -0.1449
 7965TIP3    H145310   2.657   3.458  14.876 -1.1054 -1.6228 -0.4576
 7965TIP3    H245311   2.760   3.372  14.806 -0.7271 -1.9266  0.4584
 7966TIP3   OH245312   4.161   0.152  11.091  0.0995  0.0207 -0.6644
 7966TIP3    H145313   4.225   0.087  11.119 -0.9602 -1.2959 -1.1694
 7966TIP3    H245314   4.213   0.228  11.065  1.2985  0.0218  1.4743
 7967TIP3   OH245315   0.208   4.727  16.130  0.6356  0.6399 -0.4566
 7967TIP3    H145316   0.132   4.694  16.177  1.5551 -1.6673 -0.4826
 7967TIP3    H245317   0.205   4.822  16.144 -1.2871  0.4349  0.9311
 7968TIP3   OH245318   6.250   2.797   2.848 -0.5782 -0.2367  0.0299
 7968TIP3    H145319   6.192   2.873   2.845 -0.1950  0.0344 -0.7786
 7968TIP3    H245320   6.258   2.770   2.756  1.8947  0.7370 -0.1206
 7969TIP3   OH245321   4.532   5.878   4.709  0.3318  0.2737  0.2024
 7969TIP3    H145322   4.523   5.956   4.764 -0.1389  1.3902 -1.3795
 7969TIP3    H245323   4.612   5.894   4.658  0.0781 -0.1420 -0.3379
 7970TIP3   OH245324   3.898   3.332   0.952 -0.0376  0.2605 -0.6414
 7970TIP3    H145325   3.918   3.382   1.032  1.4556 -0.6794 -0.3914
 7970TIP3    H245326   3.807   3.353   0.933 -0.0988  1.3499  0.7030
 7971TIP3   OH245327   4.309   1.945   4.547  0.1878  0.0796  0.7378
 7971TIP3    H145328   4.249   1.877   4.517  0.8767 -0.4587  0.5585
 7971TIP3    H245329   4.254   2.023   4.556 -0.5125 -0.3734  0.4732
 7972TIP3   OH245330   6.617   5.644  11.415  0.1192 -0.2428  0.5086
 7972TIP3    H145331   6.549   5.600  11.363 -0.6463 -0.5196  1.7039
 7972TIP3    H245332   6.674   5.573  11.444  0.2313 -0.1543  0.5045
 7973TIP3   OH245333   6.418   1.811   2.229 -0.5800 -0.1894  0.0782
 7973TIP3    H145334   6.343   1.871   2.231 -0.8043 -0.3662 -1.5734
 7973TIP3    H245335   6.444   1.802   2.320 -0.3821  2.6000  0.3684
 7974TIP3   OH245336   4.987   2.502   1.162  0.2509 -0.2912  0.4666
 7974TIP3    H145337   4.937   2.450   1.224 -0.7106 -0.0456 -0.0794
 7974TIP3    H245338   5.048   2.440   1.122 -1.4216 -1.2250 -0.7578
 7975TIP3   OH245339   2.724   6.483  14.431 -0.0742  0.3840 -0.3457
 7975TIP3    H145340   2.664   6.551  14.400 -2.3348  0.5293  3.5989
 7975TIP3    H245341   2.791   6.531  14.480 -1.9497  0.0187  2.8792
 7976TIP3   OH245342   0.826   1.931  13.199  0.6179  0.5855  0.1337
 7976TIP3    H145343   0.774   1.925  13.119  1.4992 -2.6164 -0.3347
 7976TIP3    H245344   0.911   1.962  13.170  0.1451  2.1355  0.3195
 7977TIP3   OH245345   3.577   0.961   0.764  0.2629 -0.3703 -0.0442
 7977TIP3    H145346   3.508   0.949   0.698  0.0004 -2.8996  0.5958
 7977TIP3    H245347   3.653   0.915   0.728  0.7712  0.0315  0.5045
 7978TIP3   OH245348   1.872   3.765   6.001 -0.2868  0.1874 -0.3021
 7978TIP3    H145349   1.876   3.705   6.076 -1.1822 -1.2325 -1.3516
 7978TIP3    H245350   1.791   3.742   5.956  0.0514  1.2653 -1.5234
 7979TIP3   OH245351   0.869   5.994   5.938  0.0383  0.8205 -0.3983
 7979TIP3    H145352   0.900   5.970   6.025 -0.7885 -0.2659 -0.3699
 7979TIP3    H245353   0.902   5.924   5.881 -1.1553  0.3896 -0.5904
 7980TIP3   OH245354   2.480   0.033  16.436  0.1577  0.9992  0.2161
 7980TIP3    H145355   2.500   0.111  16.487  1.5624 -0.5658  2.2056
 7980TIP3    H245356   2.559   0.015  16.386  1.5239 -1.3612  2.9255
 7981TIP3   OH245357   5.730   5.789  15.021  0.2873  0.0401  0.2596
 7981TIP3    H145358   5.824   5.789  15.037  0.4990  0.4962 -0.8814
 7981TIP3    H245359   5.710   5.699  14.997  1.0125  0.4924 -2.4175
 7982TIP3   OH245360   0.007   2.907  17.064  0.5087 -0.1487 -1.0721
 7982TIP3    H145361   0.022   2.999  17.086 -0.7814 -0.4323  1.3888
 7982TIP3    H245362  -0.089   2.899  17.062  0.5270 -0.9114 -4.0724
 7983TIP3   OH245363   3.461   6.581  12.226  0.1009 -0.4426 -0.5074
 7983TIP3    H145364   3.378   6.616  12.258 -0.6774 -2.2987 -0.3791
 7983TIP3    H245365   3.461   6.490  12.255  1.4091 -0.9523 -1.9881
 7984TIP3   OH245366   3.567   0.996   2.961 -0.5626  0.0213 -0.3542
 7984TIP3    H145367   3.604   1.012   2.874  0.6538 -0.3768  0.0705
 7984TIP3    H245368   3.561   0.901   2.968  3.9360 -0.3824  1.7227
 7985TIP3   OH245369   3.675   3.566   3.705  0.4855  0.2105  0.5978
 7985TIP3    H145370   3.599   3.600   3.658  1.1043  0.2698 -0.3733
 7985TIP3    H245371   3.649   3.568   3.797 -0.1912  1.4965  0.3958
 7986TIP3   OH245372   5.571   3.539  12.989  0.0177  0.5893 -0.1752
 7986TIP3    H145373   5.530   3.623  13.012  1.1696  1.4172 -1.0601
 7986TIP3    H245374   5.663   3.560  12.975  0.0426 -0.5120 -1.9901
 7987TIP3   OH245375   3.543   1.675   2.446  0.0521 -0.0348 -0.3942
 7987TIP3    H145376   3.586   1.731   2.510  0.5009  0.9501 -1.5082
 7987TIP3    H245377   3.450   1.695   2.454  0.1642  0.5066 -0.4369
 7988TIP3   OH245378   5.627   0.673   3.086  0.1392 -0.3647  0.0412
 7988TIP3    H145379   5.667   0.586   3.090 -0.1096 -0.4601  0.5187
 7988TIP3    H245380   5.581   0.682   3.169 -0.8147 -0.2477 -0.4832
 7989TIP3   OH245381   6.122   2.521  16.586  0.2127 -0.3061  0.0749
 7989TIP3    H145382   6.154   2.519  16.676  1.1678  0.0267 -0.2393
 7989TIP3    H245383   6.149   2.438  16.548 -0.0202 -0.3664  0.0386
 7990TIP3   OH245384   2.319   5.709   5.617 -0.1113 -0.1194  0.1178
 7990TIP3    H145385   2.355   5.792   5.650 -1.9475  0.3466  1.1077
 7990TIP3    H245386   2.377   5.642   5.653  0.2127  0.6324  1.0612
 7991TIP3   OH245387   4.944   6.071  16.685 -0.0579  0.6140 -0.0411
 7991TIP3    H145388   4.963   5.981  16.713 -1.3078  0.1431 -0.6481
 7991TIP3    H245389   4.987   6.079  16.600 -1.9586 -0.2698 -1.1565
 7992TIP3   OH245390   0.687   5.501  17.013  0.2402 -0.0475 -0.3673
 7992TIP3    H145391   0.707   5.415  16.977 -1.9752  0.0898 -2.1314
 7992TIP3    H245392   0.763   5.555  16.990  0.8671 -1.0915 -0.8022
 7993TIP3   OH245393   2.354   4.743  17.194  0.1113  0.1846 -0.1928
 7993TIP3    H145394   2.343   4.653  17.163 -0.0341 -0.1470  0.7943
 7993TIP3    H245395   2.273   4.787  17.168 -1.4148 -0.8980  2.4027
 7994TIP3   OH245396   0.032   4.279   6.720 -0.3012  0.5434 -0.3713
 7994TIP3    H145397  -0.061   4.290   6.739 -0.2857  0.1980 -0.0931
 7994TIP3    H245398   0.039   4.189   6.688  0.1991 -0.0229  1.2446
 7995TIP3   OH245399   1.697   5.557  14.477  0.4115 -0.5181 -0.4461
 7995TIP3    H145400   1.674   5.469  14.445 -0.0064 -0.7210  0.3886
 7995TIP3    H245401   1.713   5.545  14.570  0.7410  0.2277 -0.4070
 7996TIP3   OH245402   1.343   3.127  14.488  0.0003 -0.0353 -0.2468
 7996TIP3    H145403   1.285   3.203  14.479 -0.1712 -0.1108  0.2008
 7996TIP3    H245404   1.286   3.058  14.522  0.4580  0.0298  0.6780
 7997TIP3   OH245405   5.346   0.704  15.053  0.3989  0.4150  0.0502
 7997TIP3    H145406   5.284   0.666  15.115  1.8666 -0.0772  1.2679
 7997TIP3    H245407   5.374   0.786  15.094  1.3241  0.1273  0.0115
 7998TIP3   OH245408   6.319   3.148   5.105 -0.1899  0.1919 -0.4104
 7998TIP3    H145409   6.254   3.136   5.175 -0.9134  0.6101 -0.9999
 7998TIP3    H245410   6.292   3.229   5.061  0.1264 -0.1859 -1.3106
 7999TIP3   OH245411   0.056   6.212   4.150  0.3997  0.1763  0.4821
 7999TIP3    H145412   0.120   6.281   4.167 -0.5852  1.3329 -0.3588
 7999TIP3    H245413   0.006   6.205   4.232  0.6352  0.3092  0.6385
 8000TIP3   OH245414   1.900   1.178   2.416 -0.1006  0.1581 -0.6618
 8000TIP3    H145415   1.985   1.136   2.401 -0.8269 -1.1324 -1.3533
 8000TIP3    H245416   1.838   1.105   2.424 -1.1193  1.0627  0.0933
 8001TIP3   OH245417   3.426   1.637   1.476 -0.2290  0.2963 -0.1279
 8001TIP3    H145418   3.386   1.615   1.560 -1.5299  1.5771 -0.3616
 8001TIP3    H245419   3.457   1.727   1.488  0.7074  0.0521 -0.6342
 8002TIP3   OH245420   6.535   6.250   1.602  0.1522  0.1166 -0.3968
 8002TIP3    H145421   6.549   6.345   1.602  0.3842  0.0994  0.7902
 8002TIP3    H245422   6.514   6.229   1.693  1.0667 -1.1010 -0.4377
 8003TIP3   OH245423   1.185   3.818  16.046 -0.1469  0.5000 -0.1316
 8003TIP3    H145424   1.190   3.750  15.978 -2.9096  0.0752 -0.0146
 8003TIP3    H245425   1.120   3.785  16.108 -0.4323  2.5929  0.7592
 8004TIP3   OH245426   0.852   0.715   4.880  0.3652 -0.3933  0.1181
 8004TIP3    H145427   0.843   0.630   4.837 -1.0793  0.1720 -0.7691
 8004TIP3    H245428   0.845   0.694   4.974  0.9988 -1.3485 -0.0290
 8005TIP3   OH245429   2.567   3.402  14.171 -0.3868 -0.2152  0.2570
 8005TIP3    H145430   2.472   3.400  14.156 -0.5146 -2.6576  0.9512
 8005TIP3    H245431   2.591   3.311  14.186  2.2875  0.1892 -0.9229
 8006TIP3   OH245432   4.638   1.207   0.517 -0.0258  0.4743 -0.5294
 8006TIP3    H145433   4.600   1.243   0.597  1.5442 -1.8790  1.3982
 8006TIP3    H245434   4.586   1.128   0.500  1.3392 -0.5222 -0.2174
 8007TIP3   OH245435   4.329   3.089   3.954 -0.2744  0.3567 -0.0970
 8007TIP3    H145436   4.339   3.099   4.048  1.6097 -0.1087 -0.2104
 8007TIP3    H245437   4.329   3.179   3.920  0.7854  0.4900  0.2182
 8008TIP3   OH245438   1.042   2.387   6.500 -0.9915 -0.1931  0.3374
 8008TIP3    H145439   0.965   2.333   6.482 -0.3854 -0.7472 -0.7435
 8008TIP3    H245440   1.091   2.385   6.417  0.3953 -0.2245  1.1384
 8009TIP3   OH245441   1.312   5.508   1.692 -0.2041 -0.2594  0.0652
 8009TIP3    H145442   1.288   5.533   1.603 -0.0864 -1.5980 -0.3487
 8009TIP3    H245443   1.352   5.422   1.684 -0.1159 -0.3668  1.4012
 8010TIP3   OH245444   1.095   3.935  17.234 -0.2126  0.0220  0.2431
 8010TIP3    H145445   1.141   3.990  17.297  1.1920  0.2502 -0.9503
 8010TIP3    H245446   1.161   3.872  17.204 -0.4810  0.7289 -1.9601
 8011TIP3   OH245447   0.927   5.338  11.721  0.0354  0.0231 -0.1520
 8011TIP3    H145448   0.907   5.349  11.814 -2.2697 -1.7978 -0.3293
 8011TIP3    H245449   0.910   5.424  11.683 -0.7797  0.3247  0.8421
 8012TIP3   OH245450   5.535   2.260   5.451 -0.6472 -0.2802  0.8122
 8012TIP3    H145451   5.600   2.195   5.475 -0.3572 -1.3840 -2.4472
 8012TIP3    H245452   5.582   2.344   5.455  0.0884 -0.7084  1.3536
 8013TIP3   OH245453   4.777   3.253   6.041  0.0758 -1.1137 -0.4986
 8013TIP3    H145454   4.790   3.296   6.125 -0.5000  0.4739 -1.1906
 8013TIP3    H245455   4.724   3.176   6.061 -1.0427 -0.1319  0.4656
 8014TIP3   OH245456   5.388   4.891  11.346  0.3019 -0.2053  0.5797
 8014TIP3    H145457   5.382   4.935  11.261  1.8023 -0.0996  0.5033
 8014TIP3    H245458   5.344   4.951  11.407 -1.2404 -0.5163 -0.1801
 8015TIP3   OH245459   5.970   4.407  14.102  0.3136  0.2977 -0.0791
 8015TIP3    H145460   5.957   4.453  14.019  0.4529  0.7718  0.1520
 8015TIP3    H245461   6.061   4.426  14.125  1.0917 -1.9413 -1.0681
 8016TIP3   OH245462   0.346   5.130   4.437  0.7662  0.4382 -0.0278
 8016TIP3    H145463   0.403   5.082   4.496  1.1581 -2.0020 -2.2135
 8016TIP3    H245464   0.258   5.098   4.456  0.6474  1.0620  0.4916
 8017TIP3   OH245465   3.461   3.614   2.677  0.5550  0.0732  0.4274
 8017TIP3    H145466   3.391   3.679   2.674  0.8270  0.3357 -0.1810
 8017TIP3    H245467   3.522   3.640   2.609  1.1944 -0.2252  0.8722
 8018TIP3   OH245468   6.722   0.665   4.177 -0.0543  0.1196 -0.5105
 8018TIP3    H145469   6.682   0.742   4.137 -1.3735  0.2754  0.9927
 8018TIP3    H245470   6.784   0.701   4.241 -1.3819 -0.0001  0.8941
 8019TIP3   OH245471   3.608   2.620  15.645 -0.1160 -0.0407 -0.3138
 8019TIP3    H145472   3.610   2.567  15.565 -1.7238  0.0522 -0.4411
 8019TIP3    H245473   3.528   2.593  15.690  0.5580  0.2090  1.0792
 8020TIP3   OH245474   0.318   2.936  14.834 -0.5016  0.4786 -0.5558
 8020TIP3    H145475   0.381   2.930  14.762  0.4706 -1.9386  0.3991
 8020TIP3    H245476   0.362   2.989  14.900 -0.7623  1.3843 -1.0902
 8021TIP3   OH245477   6.384   4.507   0.088 -0.7361  0.3485  0.0098
 8021TIP3    H145478   6.387   4.480  -0.004 -1.3847  2.2720 -0.6314
 8021TIP3    H245479   6.302   4.472   0.121 -1.0795  0.6636 -0.5001
 8022TIP3   OH245480   3.859   5.175  11.293  0.2129  0.4091 -0.0884
 8022TIP3    H145481   3.878   5.200  11.202  2.3577 -0.8766 -0.0561
 8022TIP3    H245482   3.921   5.227  11.345 -0.5036  0.5953  0.5901
 8023TIP3   OH245483   0.267   6.268  12.805 -0.6542  0.1066 -0.3339
 8023TIP3    H145484   0.299   6.232  12.722 -1.1132  2.6705 -1.7305
 8023TIP3    H245485   0.347   6.280  12.857 -0.0479  0.5850 -1.3275
 8024TIP3   OH245486   5.550   6.268   4.368 -0.3859 -0.1489 -0.2139
 8024TIP3    H145487   5.561   6.275   4.463  0.0987  0.4793 -0.3120
 8024TIP3    H245488   5.554   6.174   4.351 -0.6337 -0.2776  0.4054
 8025TIP3   OH245489   2.351   5.326   4.303 -0.2531 -0.0296  0.4302
 8025TIP3    H145490   2.409   5.249   4.295  1.0705  0.8727  0.9366
 8025TIP3    H245491   2.324   5.325   4.395 -1.9171 -1.0156 -0.0282
 8026TIP3   OH245492   3.641   5.002  11.176  0.5316  1.1093  0.1807
 8026TIP3    H145493   3.693   5.075  11.209  2.1253  1.3881 -2.6572
 8026TIP3    H245494   3.596   5.037  11.100 -0.3831 -0.3307  0.0261
 8027TIP3   OH245495   6.728   6.007   5.372  0.1424 -0.5150  0.4371
 8027TIP3    H145496   6.652   5.994   5.315 -1.9343  1.0618  2.6319
 8027TIP3    H245497   6.778   6.077   5.330 -0.4825 -0.4630 -0.2387
 8028TIP3   OH245498   3.334   4.193  12.189 -0.3263  0.0605  0.1717
 8028TIP3    H145499   3.271   4.248  12.143 -1.6571  0.1843  2.0079
 8028TIP3    H245500   3.337   4.112  12.138 -1.1742  0.4534 -0.5325
 8029TIP3   OH245501   4.804   2.953   5.682  0.4255  0.0632 -0.0042
 8029TIP3    H145502   4.737   2.968   5.616  0.4984  1.0046  0.1286
 8029TIP3    H245503   4.868   2.897   5.638 -0.3454 -0.6911 -0.1887
 8030TIP3   OH245504   0.493   3.116   5.581 -0.5926 -0.7964  0.8681
 8030TIP3    H145505   0.523   3.099   5.670 -0.2534 -0.3299  0.8495
 8030TIP3    H245506   0.409   3.162   5.592  0.7370  1.7877  1.0460
 8031TIP3   OH245507   1.255   6.227   3.385 -0.7329  0.1068  0.4523
 8031TIP3    H145508   1.174   6.278   3.391 -0.8572 -0.1443  0.9777
 8031TIP3    H245509   1.302   6.248   3.466  0.1546  0.9584 -0.2630
 8032TIP3   OH245510   0.532   6.111   0.556  0.6871  0.5051  0.2762
 8032TIP3    H145511   0.622   6.092   0.582  1.0444  0.6825 -0.7603
 8032TIP3    H245512   0.511   6.043   0.492 -0.7807 -0.9965  2.2117
 8033TIP3   OH245513   5.752   3.605   5.555 -0.0834 -0.1129 -0.5776
 8033TIP3    H145514   5.756   3.604   5.650 -0.7959  2.6226 -0.4313
 8033TIP3    H245515   5.661   3.584   5.534 -0.2758  0.7103 -0.5749
 8034TIP3   OH245516   3.786   0.409  13.258  0.5238 -0.3441 -0.7783
 8034TIP3    H145517   3.739   0.492  13.252 -1.7108 -1.6235 -2.1653
 8034TIP3    H245518   3.776   0.381  13.349  1.6891  1.0539 -0.1785
 8035TIP3   OH245519   2.736   3.315  11.218  0.2991  1.1228 -0.0298
 8035TIP3    H145520   2.680   3.244  11.249 -0.0937  1.3879 -0.1260
 8035TIP3    H245521   2.694   3.345  11.138  0.2350  1.7389  0.2326
 8036TIP3   OH245522   4.650   2.790  11.971  0.0550 -0.3325  0.0562
 8036TIP3    H145523   4.618   2.738  12.044  0.4761 -0.4900  0.1349
 8036TIP3    H245524   4.709   2.854  12.011 -0.4734  0.2187 -0.0384
 8037TIP3   OH245525   2.360   3.301   3.977  0.6920  0.2698 -0.0049
 8037TIP3    H145526   2.363   3.395   3.961  0.4231  0.3854  0.5747
 8037TIP3    H245527   2.267   3.280   3.986  0.6533 -0.3032 -1.4586
 8038TIP3   OH245528   0.276   1.983  13.334 -0.0164  0.6404  0.0085
 8038TIP3    H145529   0.213   2.036  13.286  0.2204 -0.1340 -1.1948
 8038TIP3    H245530   0.225   1.910  13.368 -0.2706  1.3968  1.3689
 8039TIP3   OH245531   5.988   4.448  11.981  0.0139  0.0356 -0.1833
 8039TIP3    H145532   6.034   4.447  12.065  1.7499 -1.3047 -1.0727
 8039TIP3    H245533   5.898   4.423  12.002  0.5492 -0.7980  1.2254
 8040TIP3   OH245534   0.885   5.704  13.562  0.5346 -0.3695  0.2856
 8040TIP3    H145535   0.957   5.698  13.498 -0.1947 -0.7040 -0.5211
 8040TIP3    H245536   0.899   5.789  13.605  0.1100  0.6401 -1.4699
 8041TIP3   OH245537   0.149   4.869   2.422 -0.1276 -0.2595  0.1957
 8041TIP3    H145538   0.094   4.931   2.374  0.8710 -0.0347 -0.6950
 8041TIP3    H245539   0.114   4.871   2.511  0.1418  1.9631  0.3272
 8042TIP3   OH245540   6.266   1.426   0.092  0.4694  0.5128  0.2027
 8042TIP3    H145541   6.239   1.514   0.119  0.5278  0.6157 -0.0655
 8042TIP3    H245542   6.274   1.377   0.173  0.6125  0.8066  0.3686
 8043TIP3   OH245543   6.637   0.623  17.216  0.2382 -0.8938  0.4709
 8043TIP3    H145544   6.554   0.584  17.188 -0.7953  0.3160  1.6652
 8043TIP3    H245545   6.637   0.612  17.311  0.7194  0.4491  0.6505
 8044TIP3   OH245546   4.405   4.808   0.023  0.2982  0.2181 -0.2290
 8044TIP3    H145547   4.457   4.862   0.082 -0.0320 -0.4613  0.6983
 8044TIP3    H245548   4.355   4.871  -0.029  0.0534  0.8226  0.7076
 8045TIP3   OH245549   1.993   1.111  17.206  0.5642  0.3603  0.3778
 8045TIP3    H145550   1.997   1.140  17.297 -0.9925  1.0868  0.2482
 8045TIP3    H245551   2.015   1.189  17.155  2.3547 -0.2637  0.0935
 8046TIP3   OH245552   5.316   3.041   1.564  0.0634 -0.0245  0.2265
 8046TIP3    H145553   5.383   3.060   1.498 -0.0855  0.0500  0.0948
 8046TIP3    H245554   5.252   2.986   1.518  0.7929 -1.3622  0.7674
 8047TIP3   OH245555   4.017   2.823   0.747 -0.8661  0.1461  0.0084
 8047TIP3    H145556   4.103   2.804   0.782 -1.5018  0.2662  1.7127
 8047TIP3    H245557   3.959   2.826   0.823 -1.9214  2.7096 -0.7489
 8048TIP3   OH245558   2.384   5.048  14.768  0.0250  0.4998  0.6179
 8048TIP3    H145559   2.289   5.037  14.764 -0.0651  1.5918 -1.2996
 8048TIP3    H245560   2.397   5.124  14.824 -0.3035  1.0398 -0.0328
 8049TIP3   OH245561   6.153   0.038   3.502  0.3363 -0.5139 -0.0813
 8049TIP3    H145562   6.119   0.059   3.589  1.0808 -1.6945  0.5234
 8049TIP3    H245563   6.235   0.087   3.496 -0.0481  0.1030 -0.4049
 8050TIP3   OH245564   4.238   3.991  16.701  0.0195  0.3217 -0.0395
 8050TIP3    H145565   4.329   3.984  16.672  0.1213 -0.3593  0.4003
 8050TIP3    H245566   4.194   4.041  16.633  0.6698  0.4287 -0.3863
 8051TIP3   OH245567   3.159   2.041   2.364 -0.5150  0.2703 -0.7048
 8051TIP3    H145568   3.148   2.039   2.459 -2.7647  1.4532 -0.8784
 8051TIP3    H245569   3.208   2.121   2.347  1.0174 -0.5804 -0.5113
 8052TIP3   OH245570   6.589   1.471   0.337  0.7637  0.4089  0.1336
 8052TIP3    H145571   6.512   1.524   0.360 -1.0924 -0.4897 -3.3030
 8052TIP3    H245572   6.660   1.535   0.327 -0.4231  1.7693 -0.0266
 8053TIP3   OH245573   5.773   4.942   0.969 -0.0711  0.0123  0.5759
 8053TIP3    H145574   5.800   4.945   0.877  0.9858 -0.3954  0.8571
 8053TIP3    H245575   5.841   4.990   1.016 -1.9001  2.4332  0.8990
 8054TIP3   OH245576   4.269   0.163   3.003  0.2360 -0.2557  0.0404
 8054TIP3    H145577   4.282   0.111   3.082  1.5767  2.1963  1.5589
 8054TIP3    H245578   4.326   0.121   2.937 -0.0063 -1.6530  0.6825
 8055TIP3   OH245579   1.755   0.858   4.558 -0.6870 -0.1003  0.2490
 8055TIP3    H145580   1.720   0.848   4.469  0.9852 -0.6389 -0.3944
 8055TIP3    H245581   1.710   0.790   4.608 -2.6444  1.0686  0.1866
 8056TIP3   OH245582   5.866   1.736   0.540 -0.3045 -0.0269  0.4101
 8056TIP3    H145583   5.953   1.748   0.502  0.0686 -0.4235  1.1214
 8056TIP3    H245584   5.806   1.747   0.467  0.3286  0.4863 -0.0453
 8057TIP3   OH245585   6.046   1.955   5.183  0.2489 -0.4157  0.2901
 8057TIP3    H145586   5.996   1.882   5.147 -0.5901  0.7808 -1.0537
 8057TIP3    H245587   6.106   1.914   5.246 -0.3495 -2.2194 -0.2583
 8058TIP3   OH245588   5.112   4.338   3.203  0.0132  0.8110  0.0846
 8058TIP3    H145589   5.074   4.364   3.119 -0.2410  1.8817  0.5041
 8058TIP3    H245590   5.036   4.325   3.260  0.2075  0.8296  0.3481
 8059TIP3   OH245591   5.183   4.650   5.158  0.0530 -0.4728 -0.0045
 8059TIP3    H145592   5.139   4.689   5.082 -1.0180 -1.7585 -0.0678
 8059TIP3    H245593   5.115   4.642   5.224  0.5430 -1.0710  0.4405
 8060TIP3   OH245594   3.571   4.661  13.662 -0.1230 -0.1268  0.1531
 8060TIP3    H145595   3.621   4.685  13.740 -1.0615  0.0281  0.7229
 8060TIP3    H245596   3.544   4.570  13.679  2.5270 -1.3417 -1.5225
 8061TIP3   OH245597   4.753   2.760   3.629  0.1335 -0.0814 -0.0720
 8061TIP3    H145598   4.802   2.713   3.696 -1.7896  0.0050  1.4721
 8061TIP3    H245599   4.694   2.694   3.592  0.2457  0.1895 -0.7480
 8062TIP3   OH245600   5.497   3.588  15.635 -0.1070  0.2559 -0.6585
 8062TIP3    H145601   5.550   3.531  15.579  0.4810 -0.7011  0.8343
 8062TIP3    H245602   5.440   3.634  15.574  2.8701  1.8959 -2.4999
 8063TIP3   OH245603   6.062   4.843  13.047 -0.0621  0.1502 -0.1583
 8063TIP3    H145604   6.082   4.914  13.108  3.5726 -0.5493 -0.3559
 8063TIP3    H245605   5.991   4.795  13.090 -0.7522  2.2909  1.2720
 8064TIP3   OH245606   0.018   2.199  12.106 -0.0293  0.2376 -0.2619
 8064TIP3    H145607  -0.046   2.129  12.120 -0.3021  0.4616 -0.3941
 8064TIP3    H245608   0.078   2.163  12.041  0.6072 -0.3856  0.6430
 8065TIP3   OH245609   4.905   6.287   6.620  0.1826  0.2114 -0.3197
 8065TIP3    H145610   4.822   6.273   6.666 -0.7115 -0.4949 -2.0531
 8065TIP3    H245611   4.896   6.372   6.579  0.9854  0.8485  0.7673
 8066TIP3   OH245612   5.966   1.963   4.607  0.0363 -0.3279 -0.0524
 8066TIP3    H145613   5.936   1.932   4.693 -1.3706  1.8261  0.3099
 8066TIP3    H245614   5.951   1.888   4.549  1.0503 -1.8470  1.5230
 8067TIP3   OH245615   2.314   0.315   1.678  0.4663  0.4034  0.9039
 8067TIP3    H145616   2.376   0.294   1.609  0.8238  0.1080  1.3086
 8067TIP3    H245617   2.362   0.299   1.759 -0.7013 -1.5438  1.2581
 8068TIP3   OH245618   6.709   1.497   5.577  0.3205 -0.0488  0.5479
 8068TIP3    H145619   6.620   1.472   5.600  0.3786 -1.8259 -0.9552
 8068TIP3    H245620   6.764   1.451   5.640  0.2178  1.7279  2.0331
 8069TIP3   OH245621   3.229   0.987  14.564 -0.6124  0.0650  0.5665
 8069TIP3    H145622   3.202   0.946  14.482  0.5600  1.3486 -0.5004
 8069TIP3    H245623   3.309   0.941  14.589 -0.2551  0.5236  0.2863
 8070TIP3   OH245624   6.591   1.468   4.420 -0.4619  0.2574 -0.4625
 8070TIP3    H145625   6.547   1.485   4.337 -1.3139 -2.4131 -0.6632
 8070TIP3    H245626   6.671   1.422   4.396  0.4406  1.4479  0.1317
 8071TIP3   OH245627   2.683   4.057  17.018  0.0284  0.3781  0.9551
 8071TIP3    H145628   2.729   4.079  17.099  0.0222 -1.5969  1.5457
 8071TIP3    H245629   2.594   4.039  17.045  0.1863 -0.9513  0.6278
 8072TIP3   OH245630   3.145   4.864  12.282 -0.6472  0.1080  0.9008
 8072TIP3    H145631   3.197   4.804  12.228 -1.8361 -1.1219  1.0587
 8072TIP3    H245632   3.159   4.950  12.242 -0.1293 -0.5117 -0.3064
 8073TIP3   OH245633   4.555   1.297   1.349  0.1068 -0.2302 -0.0943
 8073TIP3    H145634   4.566   1.389   1.374 -0.1436 -0.9383  3.1018
 8073TIP3    H245635   4.644   1.265   1.333  0.5836 -0.1915  2.1743
 8074TIP3   OH245636   0.188   6.567  13.082 -0.5372 -0.2893 -0.4516
 8074TIP3    H145637   0.109   6.620  13.091 -0.6582 -0.3321 -1.1807
 8074TIP3    H245638   0.156   6.476  13.081 -0.3699 -0.3620  0.3800
 8075TIP3   OH245639   2.957   1.475  12.405  0.1769 -0.3357 -0.0832
 8075TIP3    H145640   3.034   1.424  12.429  1.4694  0.5374 -2.0910
 8075TIP3    H245641   2.919   1.428  12.331 -0.0488  0.2876 -0.3739
 8076TIP3   OH245642   4.381   4.293  10.745  0.0774 -0.3541  0.1197
 8076TIP3    H145643   4.317   4.254  10.685  0.0475 -0.6400  0.3368
 8076TIP3    H245644   4.423   4.219  10.788 -0.8976 -0.1492  1.5006
 8077TIP3   OH245645   0.915   3.837   0.724 -0.4136 -0.5245 -0.2102
 8077TIP3    H145646   0.905   3.930   0.742 -0.3915 -0.9046  2.0726
 8077TIP3    H245647   1.005   3.828   0.694 -0.4772  0.1905 -0.6542
 8078TIP3   OH245648   5.957   1.941   1.695  0.2820 -0.4925  0.4893
 8078TIP3    H145649   5.916   2.011   1.644 -1.0613 -0.7134  1.2418
 8078TIP3    H245650   5.984   1.984   1.776  0.2206 -0.6787  0.6065
 8079TIP3   OH245651   4.636   6.163   2.373 -0.0675  0.4568  0.1318
 8079TIP3    H145652   4.605   6.126   2.290  0.1771  0.1402  0.1779
 8079TIP3    H245653   4.558   6.168   2.428 -0.1645  0.3293  0.0053
 8080TIP3   OH245654   3.966   1.817   5.911 -0.0854 -0.8083  0.7162
 8080TIP3    H145655   3.986   1.894   5.858  0.9049 -1.6712 -0.2126
 8080TIP3    H245656   4.046   1.764   5.907  0.0513 -0.8949  3.1212
 8081TIP3   OH245657   4.722   0.778  15.544 -0.4083  0.1825 -0.6319
 8081TIP3    H145658   4.727   0.859  15.494  1.2144 -0.3471 -1.3873
 8081TIP3    H245659   4.798   0.780  15.602 -2.0004  0.5727  1.5730
 8082TIP3   OH245660   6.592   0.009   0.580 -0.3462  0.4692  0.4531
 8082TIP3    H145661   6.540   0.083   0.549  0.0116  0.1311 -0.9858
 8082TIP3    H245662   6.634  -0.027   0.502  0.0132 -0.8547  1.2135
 8083TIP3   OH245663   0.214   5.950   0.183  0.2451  0.0797  0.3247
 8083TIP3    H145664   0.158   5.879   0.151 -0.1752  0.1581  0.8654
 8083TIP3    H245665   0.237   5.924   0.272 -0.2432  0.7982  0.6770
 8084TIP3   OH245666   6.114   1.571  16.366  0.3199  0.1857  0.7172
 8084TIP3    H145667   6.206   1.568  16.340  0.6071  1.3908  1.4887
 8084TIP3    H245668   6.109   1.647  16.424 -0.9849 -0.3899  1.3854
 8085TIP3   OH245669   3.951   3.139   3.812 -0.2631  0.2688  0.5447
 8085TIP3    H145670   3.905   3.139   3.728 -0.9979  3.4359  0.8175
 8085TIP3    H245671   4.035   3.096   3.793 -0.6670  0.3102 -1.6418
 8086TIP3   OH245672   3.852   0.731  16.474  0.0108 -0.0298 -0.5468
 8086TIP3    H145673   3.802   0.780  16.539 -1.2438  0.0722 -1.5384
 8086TIP3    H245674   3.876   0.650  16.518  0.0685  0.4629  0.3562
 8087TIP3   OH245675   4.731   2.604  13.894  0.1332 -0.3692 -0.0540
 8087TIP3    H145676   4.660   2.603  13.829  0.4237 -0.9207 -0.3671
 8087TIP3    H245677   4.702   2.545  13.963  0.7204 -1.4215 -0.6697
 8088TIP3   OH245678   6.296   2.127  14.473 -0.0127 -0.6539 -0.4355
 8088TIP3    H145679   6.364   2.190  14.499 -1.8535  1.4667 -0.4489
 8088TIP3    H245680   6.277   2.078  14.552 -0.8530  1.1424  0.5425
 8089TIP3   OH245681   6.310   4.961  16.378 -0.0109  0.0316 -0.4418
 8089TIP3    H145682   6.296   4.868  16.393  1.1585  0.0231  0.8068
 8089TIP3    H245683   6.405   4.971  16.378 -0.1208  1.4034  0.7359
 8090TIP3   OH245684   2.475   2.921  10.762 -0.0116  0.3342  0.2177
 8090TIP3    H145685   2.406   2.933  10.828 -2.8315 -1.7458 -2.1117
 8090TIP3    H245686   2.485   2.826  10.754  1.2772  0.5520 -1.3679
 8091TIP3   OH245687   0.093   1.066   1.731  0.3998 -0.8966  0.0470
 8091TIP3    H145688   0.069   1.049   1.641 -0.2933 -0.4814  0.1501
 8091TIP3    H245689   0.082   1.161   1.742 -2.9763 -1.3006  1.5250
 8092TIP3   OH245690   2.709   1.744   0.049 -0.1729  0.2072  0.0277
 8092TIP3    H145691   2.752   1.763  -0.034  1.0220  1.2734  0.8631
 8092TIP3    H245692   2.615   1.753   0.030  0.0326 -0.4462 -1.4042
 8093TIP3   OH245693   3.067   6.509  12.230  0.1120 -0.3055  0.0886
 8093TIP3    H145694   3.043   6.444  12.295  1.3869 -0.5536  0.3261
 8093TIP3    H245695   3.077   6.590  12.280 -1.9383  0.2418 -0.2679
 8094TIP3   OH245696   6.255   5.748   0.437 -0.4200 -0.2465  0.5968
 8094TIP3    H145697   6.203   5.826   0.416 -0.1726 -0.3384 -0.4342
 8094TIP3    H245698   6.216   5.679   0.383  1.4022 -0.0842 -1.0700
 8095TIP3   OH245699   1.675   1.319   0.686 -0.3998  0.2236 -0.2031
 8095TIP3    H145700   1.597   1.350   0.640  0.3087  0.7195 -1.1035
 8095TIP3    H245701   1.666   1.224   0.687 -1.7899  0.3378  1.1214
 8096TIP3   OH245702   6.314   4.579  13.504 -0.0176 -0.2461  0.3693
 8096TIP3    H145703   6.325   4.486  13.485 -0.6365 -0.3115  0.2973
 8096TIP3    H245704   6.299   4.582  13.599  1.5150 -0.0688  0.6222
 8097TIP3   OH245705   3.611   1.942  17.213  0.2155  0.1805  0.1796
 8097TIP3    H145706   3.518   1.927  17.196  0.0665  1.6443 -0.4933
 8097TIP3    H245707   3.618   2.037  17.224  1.5333  0.0188  0.8786
 8098TIP3   OH245708   3.341   0.993  13.607 -0.3272  0.0365 -0.4501
 8098TIP3    H145709   3.353   1.061  13.541 -0.7402 -0.6233 -1.2246
 8098TIP3    H245710   3.249   1.001  13.632 -0.1327  0.3887  0.1756
 8099TIP3   OH245711   1.729   2.723   5.184 -0.3285 -0.4888  0.6580
 8099TIP3    H145712   1.783   2.768   5.248 -0.8510  1.4043 -0.1693
 8099TIP3    H245713   1.777   2.732   5.101 -0.9044 -0.5947  0.3011
 8100TIP3   OH245714   1.316   2.763   5.652  0.0611 -0.4660 -0.0395
 8100TIP3    H145715   1.283   2.748   5.740 -0.0473 -1.0136 -0.1701
 8100TIP3    H245716   1.238   2.780   5.600 -0.0328 -1.6932 -0.3354
 8101TIP3   OH245717   3.859   3.174  15.336 -0.1244  0.4553 -0.0652
 8101TIP3    H145718   3.815   3.259  15.343  0.1765  0.5967  0.1417
 8101TIP3    H245719   3.789   3.112  15.316 -0.2814  0.8247 -0.6850
 8102TIP3   OH245720   1.891   5.398  16.851  0.1893  0.1136 -0.6237
 8102TIP3    H145721   1.878   5.417  16.944  1.4004  0.6561 -0.5487
 8102TIP3    H245722   1.985   5.408  16.838 -0.2189  2.1546 -2.3773
 8103TIP3   OH245723   4.092   3.345   1.327  0.7721 -0.4495  0.4727
 8103TIP3    H145724   4.182   3.322   1.354  0.5448 -1.0817  0.7237
 8103TIP3    H245725   4.044   3.351   1.410  0.5909 -0.0701  0.3390
 8104TIP3   OH245726   1.648   5.176  13.653  0.4198  0.8204  0.0452
 8104TIP3    H145727   1.679   5.231  13.581  0.0184 -1.2549 -1.8221
 8104TIP3    H245728   1.558   5.153  13.628 -0.1345  0.9670  1.8075
 8105TIP3   OH245729   1.935   0.364  15.864 -0.3481 -0.0975  0.1033
 8105TIP3    H145730   1.992   0.296  15.900 -1.4099 -1.0384  0.0976
 8105TIP3    H245731   1.903   0.326  15.782  0.8580  1.3950 -1.1222
 8106TIP3   OH245732   1.338   2.670  12.793  0.3779 -0.2192  0.4995
 8106TIP3    H145733   1.401   2.626  12.849 -0.5288  0.0961  1.8192
 8106TIP3    H245734   1.389   2.699  12.717  1.5085 -1.1938  0.8521
 8107TIP3   OH245735   2.346   0.699   6.271  0.0831  0.1667  0.3016
 8107TIP3    H145736   2.355   0.753   6.349 -2.3853  0.7345  0.2559
 8107TIP3    H245737   2.262   0.724   6.233  2.0213  1.3978 -3.7464
 8108TIP3   OH245738   0.705   1.341  14.515  0.0797 -0.3260  0.3754
 8108TIP3    H145739   0.737   1.273  14.456 -0.5938 -0.6749  0.4007
 8108TIP3    H245740   0.783   1.391  14.539  0.3242  0.0238 -1.0683
 8109TIP3   OH245741   6.534   1.741   2.527  0.3787 -0.4796 -0.2687
 8109TIP3    H145742   6.460   1.742   2.587  0.3579 -1.9212 -0.2285
 8109TIP3    H245743   6.598   1.683   2.570 -0.1125 -2.5328 -2.1278
 8110TIP3   OH245744   0.451   6.591  15.710  0.1041 -0.0242 -0.1593
 8110TIP3    H145745   0.382   6.584  15.776  0.7562  1.4128  0.7463
 8110TIP3    H245746   0.433   6.521  15.648 -1.0749 -0.8479  1.0570
 8111TIP3   OH245747   6.188   0.577   2.510  0.1877  0.2533  0.0283
 8111TIP3    H145748   6.226   0.631   2.441 -0.9845 -0.2411 -1.0472
 8111TIP3    H245749   6.095   0.599   2.509 -0.4116 -2.0392 -0.7333
 8112TIP3   OH245750   5.978   6.635   1.567 -0.0794  0.0458 -0.4089
 8112TIP3    H145751   5.907   6.571   1.575 -0.8382  0.9663  0.5633
 8112TIP3    H245752   5.963   6.696   1.638  0.6022  1.3438 -1.3377
 8113TIP3   OH245753   6.494   2.380   3.018 -0.3199  0.4367 -0.0524
 8113TIP3    H145754   6.500   2.463   3.065  0.1646  0.2144  0.2872
 8113TIP3    H245755   6.585   2.357   2.999 -0.0472 -2.0050  3.3555
 8114TIP3   OH245756   4.014   2.286   0.219 -0.5625 -0.0039 -0.2546
 8114TIP3    H145757   3.957   2.215   0.248  0.2694  0.7010  3.7391
 8114TIP3    H245758   3.954   2.352   0.183 -1.8610 -0.8284  0.3133
 8115TIP3   OH245759   2.180   6.054  12.421  0.7089  0.3748 -0.3388
 8115TIP3    H145760   2.086   6.037  12.426  0.7995 -0.4240 -1.1314
 8115TIP3    H245761   2.191   6.141  12.460 -0.2866  0.2662  0.2048
 8116TIP3   OH245762   5.686   6.628  14.298  0.3852 -0.2495 -0.2442
 8116TIP3    H145763   5.747   6.661  14.364  0.6841 -0.0401 -0.6225
 8116TIP3    H245764   5.599   6.640  14.337  0.6063 -1.1981  0.5968
 8117TIP3   OH245765   4.562   3.051  12.650 -0.2896  0.0813 -0.4503
 8117TIP3    H145766   4.478   3.059  12.695 -0.4716 -0.8034 -0.6054
 8117TIP3    H245767   4.550   2.976  12.591  1.1292 -1.1492  0.7327
 8118TIP3   OH245768   1.257   1.211  13.783  0.2255  0.1026 -0.1715
 8118TIP3    H145769   1.327   1.261  13.741  0.7730 -1.5795 -1.3704
 8118TIP3    H245770   1.252   1.129  13.733 -0.8187 -0.9355  1.5062
 8119TIP3   OH245771   1.558   3.714  12.782 -0.6422  0.1876  0.1924
 8119TIP3    H145772   1.504   3.741  12.856  0.2888  1.0944  0.5661
 8119TIP3    H245773   1.495   3.701  12.711 -1.3074  2.0652  0.3755
 8120TIP3   OH245774   3.675   1.644   2.115 -0.1045 -0.3431  0.3093
 8120TIP3    H145775   3.735   1.706   2.158 -0.4418 -0.6217  1.2080
 8120TIP3    H245776   3.640   1.692   2.041 -0.3224  0.5404  0.9633
 8121TIP3   OH245777   4.644   5.204  11.476  0.3534  0.1549  0.8848
 8121TIP3    H145778   4.650   5.164  11.563 -1.9568 -0.2625  0.9172
 8121TIP3    H245779   4.574   5.269  11.484  1.8052  1.8990 -0.0497
 8122TIP3   OH245780   3.741   5.940  13.816  0.2050 -0.1127  0.0975
 8122TIP3    H145781   3.733   6.035  13.823 -0.2962 -0.2798  3.0241
 8122TIP3    H245782   3.651   5.909  13.799  0.2101 -0.1116  0.0694
 8123TIP3   OH245783   4.707   2.537   4.560 -0.8410  0.0178 -0.4471
 8123TIP3    H145784   4.619   2.574   4.568 -1.5674 -1.6646  0.0634
 8123TIP3    H245785   4.698   2.467   4.495 -0.0578 -0.6232  0.1092
 8124TIP3   OH245786   6.611   2.480   4.557 -0.2431 -0.2714  0.1816
 8124TIP3    H145787   6.567   2.495   4.640  1.0426  0.5243  0.7565
 8124TIP3    H245788   6.598   2.387   4.539 -0.6072 -0.4370  1.2331
 8125TIP3   OH245789   4.181   5.574  11.256  0.1226 -0.0074 -0.1299
 8125TIP3    H145790   4.178   5.482  11.229 -1.1884 -0.9023  2.6396
 8125TIP3    H245791   4.140   5.575  11.343  0.2013  3.2016  0.0056
 8126TIP3   OH245792   1.720   3.627   3.228  0.2334 -0.0728 -0.0417
 8126TIP3    H145793   1.688   3.664   3.146 -1.9032  0.7832  1.0815
 8126TIP3    H245794   1.764   3.700   3.272 -2.2401  0.7272  1.3009
 8127TIP3   OH245795   5.561   5.082   4.799  0.1372 -0.0464 -0.3060
 8127TIP3    H145796   5.483   5.029   4.783 -0.0590  0.2768 -0.4323
 8127TIP3    H245797   5.576   5.073   4.893  0.2087 -0.4631 -0.3524
 8128TIP3   OH245798   5.996   1.212   0.613 -0.6188 -0.7213  0.5551
 8128TIP3    H145799   5.995   1.175   0.701 -1.1790 -2.2241 -0.0507
 8128TIP3    H245800   5.963   1.301   0.624 -0.4136 -0.7954  1.8974
 8129TIP3   OH245801   0.373   4.394  13.503  0.4275  0.5472 -0.4013
 8129TIP3    H145802   0.324   4.472  13.526 -0.9673  0.6350 -3.1819
 8129TIP3    H245803   0.454   4.427  13.463 -0.6652  0.7442 -2.6430
 8130TIP3   OH245804   5.383   3.388  14.618  0.0071 -0.9190 -0.7096
 8130TIP3    H145805   5.436   3.389  14.698  0.1073 -1.1831 -0.7698
 8130TIP3    H245806   5.365   3.295  14.603 -1.6537 -0.7511  0.0756
 8131TIP3   OH245807   3.987   0.907   0.717 -0.0677 -0.5098 -0.1541
 8131TIP3    H145808   3.947   0.985   0.756 -0.2648 -1.2516  1.1838
 8131TIP3    H245809   3.925   0.879   0.650 -1.5062 -1.2453  1.4212
 8132TIP3   OH245810   5.501   5.372   2.356 -0.3724 -0.4089 -0.0920
 8132TIP3    H145811   5.509   5.426   2.435  0.4942 -0.8646  0.1459
 8132TIP3    H245812   5.498   5.282   2.388  2.5853 -0.8093 -0.6153
 8133TIP3   OH245813   3.800   3.925   4.322  0.6281 -0.3594 -0.2110
 8133TIP3    H145814   3.729   3.969   4.276  1.1939  0.2434 -0.5112
 8133TIP3    H245815   3.801   3.837   4.284  0.3560 -0.2235 -0.5420
 8134TIP3   OH245816   4.020   4.343  10.821 -0.0086 -0.2763 -0.1987
 8134TIP3    H145817   3.990   4.318  10.908  0.0931 -4.0964 -1.0788
 8134TIP3    H245818   3.943   4.380  10.778  0.0036  1.8978  1.4848
 8135TIP3   OH245819   6.327   1.551  13.828 -0.4595  0.1226 -0.1253
 8135TIP3    H145820   6.276   1.541  13.747 -1.9708 -0.7185  0.8842
 8135TIP3    H245821   6.276   1.506  13.894  2.2470 -1.9095  0.7453
 8136TIP3   OH245822   0.477   0.622   4.267 -0.1705  0.2052 -0.5732
 8136TIP3    H145823   0.514   0.688   4.325  2.3354  0.9502 -2.8134
 8136TIP3    H245824   0.550   0.596   4.210 -1.9570 -1.9346 -2.0726
 8137TIP3   OH245825   3.528   2.591   4.444  0.6009 -0.1110  0.6746
 8137TIP3    H145826   3.549   2.619   4.355  0.8204  0.7430  0.9864
 8137TIP3    H245827   3.594   2.525   4.465  1.3780  0.6505  0.6796
 8138TIP3   OH245828   2.588   4.638  13.407 -0.1549  0.2620 -0.1697
 8138TIP3    H145829   2.595   4.555  13.455 -0.6452  0.5890  0.4815
 8138TIP3    H245830   2.561   4.702  13.473 -0.2266  0.8521 -0.7591
 8139TIP3   OH245831   3.267   0.459  12.391 -0.1007  0.1409  0.3573
 8139TIP3    H145832   3.298   0.508  12.468  0.3861 -0.6281  0.6685
 8139TIP3    H245833   3.302   0.371  12.404  3.5896  0.8765 -2.7549
 8140TIP3   OH245834   4.995   6.324   1.084 -0.4349 -0.1876 -0.3577
 8140TIP3    H145835   4.932   6.281   1.027 -0.0030 -2.1770  0.6055
 8140TIP3    H245836   4.971   6.417   1.079 -0.8383 -0.3498 -3.1878
 8141TIP3   OH245837   3.703   2.543   2.223  0.0698  0.3347  0.0271
 8141TIP3    H145838   3.617   2.579   2.203 -0.0199 -0.4681 -1.1185
 8141TIP3    H245839   3.698   2.521   2.317 -0.4108  1.7487  0.3558
 8142TIP3   OH245840   1.675   5.727   3.031  0.2472  0.1654 -0.4122
 8142TIP3    H145841   1.584   5.728   2.999  0.3064 -1.6392 -0.6991
 8142TIP3    H245842   1.719   5.662   2.976  1.5682  0.5588  0.1496
 8143TIP3   OH245843   1.356   5.947  14.092  0.6247  1.2025 -0.3826
 8143TIP3    H145844   1.359   6.042  14.103  0.2624  0.9773  2.5279
 8143TIP3    H245845   1.323   5.914  14.176  1.4916 -1.5446 -1.0007
 8144TIP3   OH245846   5.902   5.808   3.367  0.0535 -0.0929  0.1582
 8144TIP3    H145847   5.962   5.738   3.341 -0.0721 -0.9354  2.0136
 8144TIP3    H245848   5.950   5.859   3.432 -0.5574  0.4151  0.2288
 8145TIP3   OH245849   0.049   2.790   1.304  0.3462  0.0608  0.3161
 8145TIP3    H145850   0.017   2.751   1.385 -0.9763  0.6733  0.1135
 8145TIP3    H245851   0.139   2.815   1.324  0.4663 -0.9760  1.1669
 8146TIP3   OH245852   1.260   4.026   6.196  0.6971 -0.4901  0.1044
 8146TIP3    H145853   1.199   3.952   6.202  1.5944 -1.1587  1.5901
 8146TIP3    H245854   1.263   4.062   6.285  1.0280  0.7219 -0.3812
 8147TIP3   OH245855   2.178   0.862   5.100 -0.1784  0.1539 -0.1029
 8147TIP3    H145856   2.172   0.908   5.017  1.5730 -0.9842 -0.9332
 8147TIP3    H245857   2.197   0.772   5.076  0.5876 -0.1592  1.5334
 8148TIP3   OH245858   3.390   3.510  12.971 -0.4173  0.4525  0.0339
 8148TIP3    H145859   3.351   3.433  13.012  0.8210 -1.0109 -1.3834
 8148TIP3    H245860   3.361   3.584  13.025 -2.1402 -0.9183  1.1005
 8149TIP3   OH245861   5.445   1.142   6.182 -0.3797 -0.0441  0.0991
 8149TIP3    H145862   5.425   1.134   6.089 -1.4465  0.2350  0.2903
 8149TIP3    H245863   5.500   1.220   6.188 -1.0383  0.4571 -0.2099
 8150TIP3   OH245864   3.370   3.843   2.298  0.0178  0.6208  0.6229
 8150TIP3    H145865   3.442   3.787   2.269  0.0351  0.2426  1.3530
 8150TIP3    H245866   3.316   3.856   2.220 -0.3763 -1.0097  0.5936
 8151TIP3   OH245867   3.452   0.755  16.955 -0.4714 -0.1312  0.3265
 8151TIP3    H145868   3.543   0.726  16.962 -0.4888  0.0826  1.9428
 8151TIP3    H245869   3.401   0.674  16.947 -0.2672 -0.3763  1.3820
 8152TIP3   OH245870   4.183   3.058   0.423 -0.3164  0.0020  0.1251
 8152TIP3    H145871   4.230   3.140   0.411 -0.7481  0.3956  1.0250
 8152TIP3    H245872   4.242   2.991   0.387 -0.1097  0.7300 -0.9282
 8153TIP3   OH245873   0.869   3.418  13.267 -0.0854  0.1793 -0.3687
 8153TIP3    H145874   0.954   3.457  13.287 -0.1132 -0.1681  0.4996
 8153TIP3    H245875   0.889   3.327  13.242 -0.0629  0.5779 -1.8926
 8154TIP3   OH245876   1.883   1.043  11.255  0.1662  0.1500 -0.1074
 8154TIP3    H145877   1.927   1.042  11.170  0.3927 -0.2288  0.0096
 8154TIP3    H245878   1.954   1.034  11.319 -0.1397 -1.4083  0.0483
 8155TIP3   OH245879   4.202   3.419   0.110  0.2758 -0.8982 -0.2688
 8155TIP3    H145880   4.292   3.402   0.081  0.2607 -0.9960 -0.2586
 8155TIP3    H245881   4.150   3.417   0.030  0.3586 -0.3148 -0.3424
 8156TIP3   OH245882   4.421   6.299  12.001 -0.0780 -0.2404 -0.3704
 8156TIP3    H145883   4.424   6.205  12.018 -0.3540 -0.2876 -0.5819
 8156TIP3    H245884   4.509   6.330  12.024 -0.5700 -0.2124  1.6632
 8157TIP3   OH245885   5.801   2.727  16.660 -0.5219  0.2265  1.1686
 8157TIP3    H145886   5.846   2.758  16.738  1.5496  1.8029 -0.5238
 8157TIP3    H245887   5.776   2.807  16.613 -0.3135 -0.6446 -0.5234
 8158TIP3   OH245888   3.234   2.790  16.849 -0.1820  0.1029 -0.1848
 8158TIP3    H145889   3.329   2.800  16.848  0.2567 -3.1026 -0.6230
 8158TIP3    H245890   3.203   2.852  16.783  1.7150  0.4476 -0.8142
 8159TIP3   OH245891   4.113   0.688  11.904  0.4040  0.5660 -0.1270
 8159TIP3    H145892   4.051   0.736  11.849  0.0590  1.0663  0.6832
 8159TIP3    H245893   4.063   0.662  11.981  1.0408  0.4412  0.2555
 8160TIP3   OH245894   0.146   2.488  15.563 -0.6174  0.4777  0.2404
 8160TIP3    H145895   0.098   2.435  15.626 -0.0621  0.0859  0.3492
 8160TIP3    H245896   0.223   2.435  15.541 -0.6069  0.7767 -0.4737
 8161TIP3   OH245897   0.383   0.570   5.108  0.0846  0.2343 -0.0391
 8161TIP3    H145898   0.452   0.544   5.047 -0.7251 -0.5433 -0.6616
 8161TIP3    H245899   0.314   0.505   5.095  0.3508 -0.6890  2.5844
 8162TIP3   OH245900   2.394   2.568   2.516 -0.0384  0.3230 -0.4369
 8162TIP3    H145901   2.322   2.575   2.578  1.5638 -0.0030  1.5792
 8162TIP3    H245902   2.368   2.498   2.456 -1.7598  0.8485 -0.3408
 8163TIP3   OH245903   6.696   1.709   2.109  0.1558 -0.0209  1.1302
 8163TIP3    H145904   6.659   1.777   2.166 -0.5315  0.3763  0.2347
 8163TIP3    H245905   6.727   1.642   2.169  1.1475  1.2130  2.0717
 8164TIP3   OH245906   3.892   3.785  12.170 -0.3210 -0.8451  0.2376
 8164TIP3    H145907   3.898   3.694  12.198 -1.2150 -1.1599 -0.5388
 8164TIP3    H245908   3.927   3.836  12.243  0.2385 -1.8118  0.6512
 8165TIP3   OH245909   5.249   1.025   5.188  0.2673 -0.4031  0.2250
 8165TIP3    H145910   5.190   1.021   5.264 -0.8564 -0.6970 -0.6398
 8165TIP3    H245911   5.259   0.934   5.161  1.9746 -0.4771  0.9651
 8166TIP3   OH245912   1.808   1.789  15.238  0.5645  0.4425  0.1206
 8166TIP3    H145913   1.841   1.715  15.288  0.1256 -0.7313 -1.2415
 8166TIP3    H245914   1.871   1.801  15.167 -1.0599 -0.9119 -1.6762
 8167TIP3   OH245915   1.464   5.055   1.102 -0.1527 -0.2444  0.2554
 8167TIP3    H145916   1.425   5.098   1.027  0.1679  1.0673  0.8111
 8167TIP3    H245917   1.541   5.108   1.124  0.4114 -1.2464  0.8210
 8168TIP3   OH245918   3.704   0.547  10.841 -0.4721 -0.4482 -0.2061
 8168TIP3    H145919   3.637   0.479  10.839  0.1615 -1.1564  1.3208
 8168TIP3    H245920   3.655   0.628  10.854 -1.1137 -0.7958 -0.3770
 8169TIP3   OH245921   6.446   3.273  10.921 -0.1112 -0.3241 -0.0035
 8169TIP3    H145922   6.413   3.322  10.845  1.6647 -0.2864 -0.8048
 8169TIP3    H245923   6.516   3.327  10.956 -1.6220  0.2071  2.4330
 8170TIP3   OH245924   6.088   4.930   2.373 -0.1130  0.4429  0.3562
 8170TIP3    H145925   6.009   4.878   2.390  0.3932 -0.2694  0.5998
 8170TIP3    H245926   6.094   4.934   2.277  1.9416 -3.3891  0.1192
 8171TIP3   OH245927   5.047   3.687  12.388  0.2438 -0.1514  0.4254
 8171TIP3    H145928   5.050   3.644  12.302  0.5437  1.3807 -0.3658
 8171TIP3    H245929   5.019   3.618  12.448  0.0418 -1.2686 -0.8921
 8172TIP3   OH245930   4.328   3.555   4.853 -0.2013  0.3495  0.2089
 8172TIP3    H145931   4.327   3.638   4.806  2.2037  0.9557  1.1202
 8172TIP3    H245932   4.236   3.539   4.874 -1.2457  0.7170 -3.3935
 8173TIP3   OH245933   1.441   1.857   4.575  0.1112 -0.6999 -0.2762
 8173TIP3    H145934   1.483   1.813   4.648  0.8507 -0.8884 -0.8039
 8173TIP3    H245935   1.347   1.846   4.591  0.2720 -1.3135  0.2941
 8174TIP3   OH245936   0.367   1.162   1.607 -0.0974 -0.2332  0.3050
 8174TIP3    H145937   0.332   1.186   1.693  0.9356  1.3481  0.3110
 8174TIP3    H245938   0.377   1.245   1.561  2.1225 -0.7411 -0.2565
 8175TIP3   OH245939   3.220   6.292  15.347  0.0446 -0.4691  0.3774
 8175TIP3    H145940   3.215   6.199  15.324 -0.3412 -0.3879  0.1305
 8175TIP3    H245941   3.274   6.294  15.426  0.4473 -0.8601  0.1196
 8176TIP3   OH245942   2.865   3.499  12.783 -0.1559  0.4795 -0.1037
 8176TIP3    H145943   2.859   3.421  12.838 -0.0076  0.2834 -0.3605
 8176TIP3    H245944   2.930   3.554  12.826  0.2032  0.1817 -0.2559
 8177TIP3   OH245945   4.682   0.758  15.854 -0.0212  0.6291  0.0302
 8177TIP3    H145946   4.754   0.727  15.908  0.0482  0.8518  0.0668
 8177TIP3    H245947   4.616   0.788  15.917 -0.2935  0.0936  0.0028
 8178TIP3   OH245948   2.541   0.169  13.344  0.3547  0.2812  0.0349
 8178TIP3    H145949   2.600   0.192  13.416  0.2318 -0.7576  0.4979
 8178TIP3    H245950   2.510   0.252  13.310  1.3847  0.8248  0.3776
 8179TIP3   OH245951   3.240   2.517   2.486  1.1164  0.0810  0.0568
 8179TIP3    H145952   3.167   2.482   2.537 -2.5083  2.8216 -2.6695
 8179TIP3    H245953   3.281   2.582   2.544 -0.4258  0.4343  0.8038
 8180TIP3   OH245954   6.000   2.514  13.554  0.5586  1.0184  0.0412
 8180TIP3    H145955   5.948   2.585  13.517  0.0934  1.6071  1.7248
 8180TIP3    H245956   6.060   2.558  13.615  0.5719  0.0141  0.7837
 8181TIP3   OH245957   0.766   4.399  13.567 -0.1792 -0.0888  0.4344
 8181TIP3    H145958   0.768   4.323  13.625  1.7789 -0.1471  0.3522
 8181TIP3    H245959   0.784   4.363  13.480 -0.3301  0.3273  0.2309
 8182TIP3   OH245960   1.694   1.334   5.981  0.5050  0.4587  0.6361
 8182TIP3    H145961   1.619   1.389   6.005 -0.9468 -0.2886 -1.7749
 8182TIP3    H245962   1.673   1.248   6.018 -1.5636 -0.6029 -2.5360
 8183TIP3   OH245963   4.224   6.493  11.598  0.4527  0.7610 -0.0648
 8183TIP3    H145964   4.274   6.574  11.598 -0.8590  1.6324  1.1538
 8183TIP3    H245965   4.161   6.504  11.527 -0.9064  1.6519  1.2098
 8184TIP3   OH245966   6.671   4.563   2.517  0.1120  0.1916  0.2773
 8184TIP3    H145967   6.624   4.480   2.517  0.6608 -0.1614  2.3578
 8184TIP3    H245968   6.763   4.539   2.516  0.2986  0.8458 -0.9887
 8185TIP3   OH245969   1.300   4.805   3.223  0.1914 -0.5923 -0.1342
 8185TIP3    H145970   1.257   4.825   3.306  0.4709  0.5838 -0.2551
 8185TIP3    H245971   1.234   4.821   3.156 -0.2560 -2.2264 -0.1230
 8186TIP3   OH245972   6.013   6.166  11.397  0.2463 -0.3082 -0.0327
 8186TIP3    H145973   5.954   6.184  11.323  1.2347  0.1385 -0.7277
 8186TIP3    H245974   5.974   6.214  11.470 -1.2086 -1.4267 -0.0193
 8187TIP3   OH245975   0.016   4.120   5.965 -0.3482 -0.8204 -0.3321
 8187TIP3    H145976   0.086   4.166   5.918 -0.4937 -2.3369 -2.1642
 8187TIP3    H245977  -0.056   4.183   5.968  0.1457 -0.2119 -0.9253
 8188TIP3   OH245978   4.902   5.181   2.987  0.5212 -0.5222 -0.2189
 8188TIP3    H145979   4.919   5.274   2.997  1.2220 -0.6790  0.1453
 8188TIP3    H245980   4.884   5.150   3.076  0.7302 -0.8050 -0.2705
 8189TIP3   OH245981   0.592   3.626   5.203 -0.3750  0.4872 -0.3370
 8189TIP3    H145982   0.632   3.663   5.282 -2.2326 -0.7366  1.2608
 8189TIP3    H245983   0.560   3.702   5.155 -0.8367  1.1936  1.0290
 8190TIP3   OH245984   1.681   0.120  16.556 -0.3590  1.1858 -0.0726
 8190TIP3    H145985   1.727   0.190  16.509 -1.5790  1.4391 -0.9315
 8190TIP3    H245986   1.751   0.059  16.582  0.4069  1.1653 -2.0129
 8191TIP3   OH245987   1.525   2.606  14.843 -0.5963 -0.4104  0.3522
 8191TIP3    H145988   1.591   2.598  14.774  0.8360 -1.0949  1.7394
 8191TIP3    H245989   1.576   2.614  14.924 -2.2034 -1.7283  1.5568
 8192TIP3   OH245990   4.834   3.756  15.584 -0.0541 -0.3295  0.0076
 8192TIP3    H145991   4.798   3.844  15.580  1.0309  0.1147 -0.6158
 8192TIP3    H245992   4.925   3.767  15.556 -0.1748 -1.7958 -1.0750
 8193TIP3   OH245993   3.370   1.774  11.633  0.0764  0.4776  0.4105
 8193TIP3    H145994   3.345   1.691  11.593 -1.5586  0.7727  0.7510
 8193TIP3    H245995   3.361   1.838  11.562  0.5469  0.4952  0.3625
 8194TIP3   OH245996   6.018   1.734  15.585  0.2289 -0.1719  0.2429
 8194TIP3    H145997   6.009   1.654  15.534 -0.1320 -0.7264  1.1501
 8194TIP3    H245998   6.095   1.778  15.547  0.6661 -1.1302 -0.0199
 8195TIP3   OH245999   6.146   4.854   0.625  0.4006  0.7367 -0.0282
 8195TIP3    H146000   6.181   4.855   0.536  2.5452 -0.0355  0.7411
 8195TIP3    H246001   6.068   4.799   0.620  1.4802 -0.7700 -1.1270
 8196TIP3   OH246002   5.391   1.506  15.304 -0.2909 -0.1271 -0.6936
 8196TIP3    H146003   5.329   1.559  15.353  2.1054 -0.3744  2.9794
 8196TIP3    H246004   5.466   1.564  15.289  0.5020 -1.1278 -0.7725
 8197TIP3   OH246005   2.262   2.275   5.917  0.0106 -0.1219  0.4353
 8197TIP3    H146006   2.294   2.222   5.990  0.8230 -0.6832 -0.3061
 8197TIP3    H246007   2.292   2.364   5.936 -0.8561 -0.0094  1.3915
 8198TIP3   OH246008   6.246   5.072   1.760  0.1861  0.0797 -0.8499
 8198TIP3    H146009   6.205   5.083   1.674 -0.9799 -0.6968 -0.4241
 8198TIP3    H246010   6.219   4.984   1.788 -0.6166  0.8412  0.9150
 8199TIP3   OH246011   3.221   3.905   3.850 -0.0746 -0.3362 -0.0039
 8199TIP3    H146012   3.278   3.829   3.865  0.2444  0.0433  0.7856
 8199TIP3    H246013   3.274   3.979   3.878 -1.4275 -0.0798  2.0489
 8200TIP3   OH246014   0.404   3.484  17.261 -0.2451  0.2455 -0.1398
 8200TIP3    H146015   0.354   3.450  17.187  0.6807  0.0359 -0.6897
 8200TIP3    H246016   0.394   3.418  17.329 -1.4957  0.6635  0.1051
 8201TIP3   OH246017   5.881   0.998   1.780  1.0285 -0.4377 -0.7455
 8201TIP3    H146018   5.792   1.023   1.805  1.4115  1.2459 -0.9719
 8201TIP3    H246019   5.891   1.029   1.690  1.6199 -1.2563 -0.9770
 8202TIP3   OH246020   2.984   4.417  12.788 -0.3766 -0.5017 -0.2359
 8202TIP3    H146021   3.011   4.502  12.755  0.6966 -0.1711  1.3700
 8202TIP3    H246022   2.971   4.364  12.709 -2.0068  1.3641 -1.3264
 8203TIP3   OH246023   1.586   0.542   0.973 -0.4373  0.5305  0.0858
 8203TIP3    H146024   1.596   0.459   0.927 -0.6996  0.7723 -0.4255
 8203TIP3    H246025   1.612   0.608   0.908 -0.1704  0.8482  0.5028
 8204TIP3   OH246026   1.961   2.903  14.134  0.0014 -0.1328 -0.1174
 8204TIP3    H146027   1.889   2.874  14.079  0.3397 -0.0266 -0.6203
 8204TIP3    H246028   1.972   2.832  14.198 -1.7279  0.6529  1.1320
 8205TIP3   OH246029   5.739   6.010  11.958 -0.3355 -0.0835 -0.5786
 8205TIP3    H146030   5.683   6.048  11.891 -3.6381 -0.1006  1.9589
 8205TIP3    H246031   5.817   6.066  11.959 -0.3127  0.1336 -4.0342
 8206TIP3   OH246032   6.073   5.572  11.312 -0.0270  0.7806  0.0622
 8206TIP3    H146033   6.054   5.479  11.303 -1.4466  1.2446 -2.8523
 8206TIP3    H246034   6.014   5.601  11.382 -0.8758 -0.2050 -0.2157
 8207TIP3   OH246035   2.061   3.503  11.676  0.6475  0.5309 -0.1887
 8207TIP3    H146036   2.035   3.594  11.683 -1.4655 -0.0005 -0.4230
 8207TIP3    H246037   2.049   3.467  11.764  0.0428  0.1552 -0.4163
 8208TIP3   OH246038   3.757   6.029  11.876  0.4366  0.5127  0.0988
 8208TIP3    H146039   3.814   6.009  11.802 -0.6609  0.6499 -0.8089
 8208TIP3    H246040   3.777   5.962  11.941  1.2186  0.2260 -0.4318
 8209TIP3   OH246041   1.687   1.507  11.305  0.2113 -0.2633  0.0978
 8209TIP3    H146042   1.685   1.602  11.294  0.6355 -0.1576  0.8597
 8209TIP3    H246043   1.636   1.474  11.231 -1.4430  0.6327  0.7733
 8210TIP3   OH246044   0.749   0.448  17.168 -0.2793 -0.5317 -0.4285
 8210TIP3    H146045   0.804   0.460  17.091  1.3807  2.4332  1.0254
 8210TIP3    H246046   0.699   0.529  17.176 -1.0063 -1.0825  1.1607
 8211TIP3   OH246047   3.828   4.620   2.893  0.3216 -0.6280 -0.0149
 8211TIP3    H146048   3.904   4.574   2.857  0.5929 -0.0993 -0.1303
 8211TIP3    H246049   3.754   4.589   2.841  0.4573 -1.1204  0.0765
 8212TIP3   OH246050   5.835   2.981  11.283 -0.1631  0.0636  0.0918
 8212TIP3    H146051   5.828   3.077  11.286 -0.1353  0.1170 -1.2258
 8212TIP3    H246052   5.927   2.964  11.306  0.0124  0.4010 -0.3335
 8213TIP3   OH246053   5.696   0.652  12.038  0.7487  0.2920  0.1547
 8213TIP3    H146054   5.778   0.650  12.088  1.1357  1.3792 -0.4027
 8213TIP3    H246055   5.638   0.592  12.085  1.3362  0.7266  1.5007
 8214TIP3   OH246056   3.521   3.981   0.991  0.4052  0.1143  0.1408
 8214TIP3    H146057   3.557   3.904   0.949  1.6876  0.8137 -0.0896
 8214TIP3    H246058   3.597   4.028   1.026 -0.5594 -0.2911  3.0410
 8215TIP3   OH246059   4.074   4.436  11.377  0.4037 -0.2609  0.0634
 8215TIP3    H146060   4.116   4.353  11.355  1.5313  0.0114  1.1113
 8215TIP3    H246061   4.140   4.502  11.358 -0.2367  0.3543 -0.0796
 8216TIP3   OH246062   0.606   6.314  13.607  0.1821 -0.1055 -0.1674
 8216TIP3    H146063   0.590   6.303  13.701  1.8484 -1.2225  0.0143
 8216TIP3    H246064   0.621   6.226  13.574  0.1997  0.3341 -1.3946
 8217TIP3   OH246065   0.958   3.764   3.735 -0.2408 -0.3579  0.0246
 8217TIP3    H146066   1.036   3.727   3.777  0.5236  0.8950 -0.2330
 8217TIP3    H246067   0.884   3.730   3.786  0.5455 -0.5336  1.0692
 8218TIP3   OH246068   6.005   2.392   0.132  0.3850  0.1538 -0.1336
 8218TIP3    H146069   5.975   2.451   0.062  1.5180  0.2992 -0.5215
 8218TIP3    H246070   6.025   2.310   0.086  0.7712  0.1308  0.0734
 8219TIP3   OH246071   0.704   5.410   3.282  0.6745  0.0649 -0.5407
 8219TIP3    H146072   0.780   5.467   3.274 -0.6419  1.9414 -0.2089
 8219TIP3    H246073   0.639   5.462   3.329 -0.1956 -2.1408  0.8662
 8220TIP3   OH246074   4.403   2.919  10.664  0.9222 -0.1326 -0.7105
 8220TIP3    H146075   4.454   2.875  10.596  0.6440 -2.2881  0.3883
 8220TIP3    H246076   4.334   2.965  10.617  0.5840 -1.7839 -1.8903
 8221TIP3   OH246077   0.495   3.296   1.523  0.7217  0.1504  0.0644
 8221TIP3    H146078   0.559   3.347   1.473 -1.2475  2.2050 -0.5361
 8221TIP3    H246079   0.502   3.207   1.487  1.5329  0.8753 -1.6748
 8222TIP3   OH246080   0.557   0.967   3.957  0.1215  0.4666  0.2126
 8222TIP3    H146081   0.482   1.025   3.962 -0.9869 -0.6927 -1.7701
 8222TIP3    H246082   0.633   1.025   3.957 -0.8791  1.8172 -0.1968
 8223TIP3   OH246083   5.650   1.677   3.445 -0.3037  0.7514 -0.4277
 8223TIP3    H146084   5.561   1.685   3.479  0.1077  0.0596  0.8882
 8223TIP3    H246085   5.648   1.723   3.361 -1.2011  3.2108  0.8395
 8224TIP3   OH246086   6.773   3.614   0.016 -0.3921  0.1846  0.4339
 8224TIP3    H146087   6.739   3.524   0.014  2.2140 -0.8887 -1.6914
 8224TIP3    H246088   6.734   3.656  -0.060 -0.5862  0.4572  0.6808
 8225TIP3   OH246089   3.758   1.994  14.144  0.3428  0.3318  0.2113
 8225TIP3    H146090   3.774   1.901  14.159 -1.2219 -0.1956 -1.1294
 8225TIP3    H246091   3.830   2.021  14.086  0.0808 -0.3823 -0.4611
 8226TIP3   OH246092   2.000   3.145  14.788 -0.1787 -0.1950 -0.1498
 8226TIP3    H146093   1.928   3.099  14.831  0.5415 -0.5069  0.7497
 8226TIP3    H246094   1.961   3.227  14.759 -0.9283 -0.4027  0.2285
 8227TIP3   OH246095   4.100   6.309   2.341  0.0546 -0.7656  0.3942
 8227TIP3    H146096   4.034   6.356   2.289  1.2297  0.2300 -0.2517
 8227TIP3    H246097   4.076   6.217   2.331 -0.2474 -0.5536 -1.2785
 8228TIP3   OH246098   3.241   5.281  12.361  0.1614 -0.3033  0.2173
 8228TIP3    H146099   3.240   5.193  12.400  0.1989 -0.0191  0.8696
 8228TIP3    H246100   3.149   5.302  12.349  0.0509  0.3354  1.8592
 8229TIP3   OH246101   4.547   0.740   3.346 -0.0500 -0.3651  0.4159
 8229TIP3    H146102   4.587   0.786   3.419 -0.9874  0.7903  0.2321
 8229TIP3    H246103   4.571   0.792   3.269  0.0441 -0.9724  0.0294
 8230TIP3   OH246104   0.068   1.616  15.552  0.0291  0.1019  0.0827
 8230TIP3    H146105   0.031   1.621  15.640  1.3063 -0.6248  0.7000
 8230TIP3    H246106   0.156   1.653  15.561  0.0147  0.4408 -0.9996
 8231TIP3   OH246107   5.986   3.310   2.096 -0.4302  0.2299  0.6698
 8231TIP3    H146108   6.048   3.267   2.155  0.0216  0.0896  0.0965
 8231TIP3    H246109   5.900   3.280   2.127 -0.0977 -2.0628 -0.4150
 8232TIP3   OH246110   4.835   4.673   5.153 -0.1308 -0.3213 -0.0389
 8232TIP3    H146111   4.804   4.596   5.106 -0.6023  0.0823 -0.3881
 8232TIP3    H246112   4.880   4.725   5.087 -1.5558  0.6718 -0.2610
 8233TIP3   OH246113   2.968   2.657  12.464 -0.2840  0.0075  0.2045
 8233TIP3    H146114   2.885   2.616  12.438 -0.2928  0.7647 -1.0010
 8233TIP3    H246115   3.035   2.594  12.439 -0.4507 -0.4312  0.8213
 8234TIP3   OH246116   0.688   4.646   1.069  0.7111  0.1872  0.0912
 8234TIP3    H146117   0.689   4.732   1.111  0.9820  0.4806 -0.5028
 8234TIP3    H246118   0.710   4.664   0.978  0.5353 -0.4880 -0.0892
 8235TIP3   OH246119   0.112   0.368  12.177 -0.7267  0.0508  0.2273
 8235TIP3    H146120   0.119   0.365  12.272  0.1158  1.9996  0.2716
 8235TIP3    H246121   0.030   0.414  12.160  0.4453  2.2731  0.1250
 8236TIP3   OH246122   5.777   6.348   3.893  0.1271 -0.4079  0.4698
 8236TIP3    H146123   5.711   6.356   3.961  0.2694  0.7417  0.4946
 8236TIP3    H246124   5.775   6.256   3.868 -0.7841 -0.5873  1.1606
 8237TIP3   OH246125   3.991   3.196   5.511 -0.3693  0.0719  0.0510
 8237TIP3    H146126   3.941   3.157   5.582 -0.8669 -2.4173 -1.5438
 8237TIP3    H246127   4.082   3.170   5.527 -0.5240 -0.7416 -0.3482
 8238TIP3   OH246128   1.030   6.385   3.472  0.0061 -0.3261 -0.2626
 8238TIP3    H146129   1.028   6.478   3.493  1.0933 -0.0182 -1.4022
 8238TIP3    H246130   0.957   6.372   3.412  0.7157  0.1295 -1.2651
 8239TIP3   OH246131   1.450   4.574  12.294  0.0916 -0.3701  0.4055
 8239TIP3    H146132   1.366   4.547  12.332 -0.9169  1.3647 -0.4214
 8239TIP3    H246133   1.485   4.638  12.355  0.6493 -0.8145  0.5619
 8240TIP3   OH246134   3.452   2.833   1.118 -0.3168 -0.0088  0.0792
 8240TIP3    H146135   3.429   2.747   1.153  0.4468 -0.7255 -1.0886
 8240TIP3    H246136   3.545   2.826   1.098 -0.0501  1.3918  0.7502
 8241TIP3   OH246137   6.492   5.124  13.462 -0.5074 -0.3364 -0.5132
 8241TIP3    H146138   6.461   5.084  13.381  0.0935  0.1408 -0.9873
 8241TIP3    H246139   6.466   5.215  13.456 -0.2868 -0.2528 -0.2555
 8242TIP3   OH246140   1.651   3.648   1.268 -0.4411  0.2463  0.4331
 8242TIP3    H146141   1.575   3.621   1.217  1.1574 -0.7694 -1.5183
 8242TIP3    H246142   1.625   3.732   1.307 -2.8163 -0.4502  0.5153
 8243TIP3   OH246143   3.705   0.444   2.332 -0.4505  0.4436 -0.0593
 8243TIP3    H146144   3.782   0.401   2.296 -0.5511  0.1924  0.0235
 8243TIP3    H246145   3.677   0.387   2.404 -1.2006  0.0913 -0.6122
 8244TIP3   OH246146   3.053   6.113   0.466 -0.4332  0.2754 -0.2702
 8244TIP3    H146147   3.101   6.089   0.545  1.8641 -1.2547 -1.9685
 8244TIP3    H246148   3.019   6.200   0.484  1.7762  0.8659  1.6623
 8245TIP3   OH246149   2.596   2.404  12.903  0.2836  0.1125  0.2569
 8245TIP3    H146150   2.658   2.417  12.976 -1.2058 -2.3927  2.1266
 8245TIP3    H246151   2.520   2.362  12.943 -0.9629 -0.6570 -2.6408
 8246TIP3   OH246152   4.386   1.608  15.431  0.1917  0.3345  0.1820
 8246TIP3    H146153   4.329   1.645  15.498 -0.8575 -2.5014  1.0090
 8246TIP3    H246154   4.431   1.683  15.393 -0.5418  2.2288  2.7914
 8247TIP3   OH246155   1.543   4.631  16.128  0.5460 -0.4841 -0.2770
 8247TIP3    H146156   1.514   4.558  16.073  0.5919 -0.0064 -0.9380
 8247TIP3    H246157   1.618   4.668  16.082 -0.0727  0.5855 -0.4421
 8248TIP3   OH246158   1.903   0.144   0.529 -0.1895 -0.1586  0.2149
 8248TIP3    H146159   1.926   0.203   0.458 -1.1475  0.0254  0.0533
 8248TIP3    H246160   1.985   0.098   0.549 -0.0246 -0.5692 -1.3295
 8249TIP3   OH246161   4.230   3.763   4.646 -0.8689 -0.1771 -0.6691
 8249TIP3    H146162   4.215   3.856   4.627  0.2378  0.2540  0.4724
 8249TIP3    H246163   4.311   3.743   4.600 -1.4879 -0.7992 -1.5221
 8250TIP3   OH246164   4.599   6.077  15.326 -0.1973 -0.0387 -0.5183
 8250TIP3    H146165   4.551   6.078  15.409  0.1478 -0.3142 -0.3120
 8250TIP3    H246166   4.579   6.162  15.286  0.5604  0.5884  0.3902
 8251TIP3   OH246167   6.454   1.666  10.218  0.0180 -0.6208 -0.6753
 8251TIP3    H146168   6.547   1.663  10.239 -0.2157 -2.7366  0.3676
 8251TIP3    H246169   6.414   1.713  10.292 -0.0815 -2.7747  0.7479
 8252TIP3   OH246170   4.255   3.857   0.610 -0.3215 -0.2525 -0.1091
 8252TIP3    H146171   4.272   3.763   0.616 -0.8689 -0.3226  0.4401
 8252TIP3    H246172   4.161   3.865   0.625 -0.4614  0.2959 -1.2120
 8253TIP3   OH246173   4.967   2.980   4.289  0.5770 -0.0093 -0.2645
 8253TIP3    H146174   4.914   2.942   4.359  1.2203 -0.1900  0.1365
 8253TIP3    H246175   5.058   2.968   4.318  0.8464  0.1851 -0.9880
 8254TIP3   OH246176   3.443   2.428  17.030 -0.1083  0.1476  0.2125
 8254TIP3    H146177   3.407   2.400  17.114 -1.4090  2.0003  0.3294
 8254TIP3    H246178   3.513   2.365  17.011 -0.5162 -0.9406  2.1383
 8255TIP3   OH246179   0.411   1.750  15.192 -0.2807  0.1621 -0.0063
 8255TIP3    H146180   0.413   1.743  15.287  0.5534 -0.4678 -0.0596
 8255TIP3    H246181   0.379   1.665  15.161  0.6143 -0.0782 -0.3185
 8256TIP3   OH246182   0.919   6.191   4.984 -0.1213 -0.3177  0.1006
 8256TIP3    H146183   0.995   6.199   5.041  0.8835 -2.8805 -0.7107
 8256TIP3    H246184   0.863   6.126   5.027 -0.6429 -0.2704 -0.4916
 8257TIP3   OH246185   0.110   2.330   6.258  0.7977  0.4957  0.0409
 8257TIP3    H146186   0.140   2.346   6.347  0.4020 -1.4890  0.5799
 8257TIP3    H246187   0.157   2.394   6.205  2.3557  0.5997  1.4641
 8258TIP3   OH246188   3.078   5.547  15.467 -0.8106 -0.4922  0.5158
 8258TIP3    H146189   3.109   5.461  15.437 -1.3948 -0.0735 -1.4348
 8258TIP3    H246190   3.129   5.565  15.546 -0.5695 -2.5531  0.8750
 8259TIP3   OH246191   6.401   4.249  11.584  0.2226 -0.0767 -0.0104
 8259TIP3    H146192   6.423   4.323  11.527  1.7665 -0.8288 -0.4497
 8259TIP3    H246193   6.476   4.242  11.643  0.3360 -1.6016 -0.3102
 8260TIP3   OH246194   1.249   1.359  13.351 -0.1067 -0.3699  0.6027
 8260TIP3    H146195   1.292   1.442  13.329  1.7532 -1.8776 -1.9467
 8260TIP3    H246196   1.165   1.364  13.305  0.7283 -0.5560 -0.9871
 8261TIP3   OH246197   3.218   0.808  11.390 -0.2492  0.2951  0.2423
 8261TIP3    H146198   3.251   0.820  11.301 -1.6294 -2.7427 -0.8090
 8261TIP3    H246199   3.294   0.777  11.440 -0.0315 -0.5562 -0.5871
 8262TIP3   OH246200   2.238   2.878   0.307 -0.1773  0.0940 -0.2267
 8262TIP3    H146201   2.261   2.911   0.393  1.2143  0.9179 -0.8769
 8262TIP3    H246202   2.290   2.931   0.246 -2.5422  0.8671 -1.7154
 8263TIP3   OH246203   1.270   5.086  14.058 -0.2005  0.0771 -0.1717
 8263TIP3    H146204   1.304   5.141  13.988  0.3830  1.2211  0.9621
 8263TIP3    H246205   1.187   5.127  14.083 -0.5343 -0.4730 -0.3386
 8264TIP3   OH246206   2.947   1.911   2.228  0.5243  0.3037  0.1443
 8264TIP3    H146207   2.877   1.921   2.292 -0.3772  0.6815 -0.8831
 8264TIP3    H246208   3.026   1.935   2.277 -0.0864  0.2179  1.2165
 8265TIP3   OH246209   5.317   0.531  11.832 -0.5662 -0.0904 -0.0743
 8265TIP3    H146210   5.253   0.487  11.776 -0.0061  0.5869 -1.2836
 8265TIP3    H246211   5.386   0.559  11.772  1.0562 -1.1066  1.2392
 8266TIP3   OH246212   1.346   0.465   3.103  0.5831 -0.0698  0.5002
 8266TIP3    H146213   1.250   0.472   3.104  0.6682  3.6796 -1.3457
 8266TIP3    H246214   1.366   0.430   3.016  0.9764 -2.0219  1.3109
 8267TIP3   OH246215   5.017   5.159  12.357 -0.6022  0.5884 -0.0353
 8267TIP3    H146216   5.105   5.196  12.346 -0.4062  0.7024  1.6408
 8267TIP3    H246217   5.017   5.081  12.301  0.5173  0.6529 -0.1523
 8268TIP3   OH246218   6.301   1.535   2.954 -0.0029  0.2418 -0.0199
 8268TIP3    H146219   6.342   1.578   3.029 -0.1212 -1.6981  1.1946
 8268TIP3    H246220   6.364   1.470   2.926 -1.2291 -1.1812  0.3931
 8269TIP3   OH246221   5.283   6.501  12.804 -0.3458 -0.1061  0.2160
 8269TIP3    H146222   5.245   6.422  12.765  0.5781 -0.2794 -0.3785
 8269TIP3    H246223   5.368   6.511  12.759 -0.7212  1.5880 -0.1808
 8270TIP3   OH246224   1.922   1.361  11.595 -0.1363  0.5084  0.2282
 8270TIP3    H146225   1.995   1.379  11.655 -0.0645 -1.2472  0.7309
 8270TIP3    H246226   1.864   1.437  11.604  0.0055  0.4286  2.3249
 8271TIP3   OH246227   1.407   0.196  13.813  0.4775  0.1622 -0.0668
 8271TIP3    H146228   1.443   0.281  13.839  0.4761  0.5603 -1.3200
 8271TIP3    H246229   1.420   0.140  13.890  0.5159  1.2732  0.7680
 8272TIP3   OH246230   2.811   2.582   1.967 -0.1858 -0.5432 -0.1886
 8272TIP3    H146231   2.781   2.502   1.922 -1.0954 -0.4985  0.3007
 8272TIP3    H246232   2.829   2.644   1.897 -1.0195 -0.6684 -0.5323
 8273TIP3   OH246233   1.046   0.292  11.243 -0.4961 -0.3715  0.4537
 8273TIP3    H146234   1.095   0.217  11.210  0.3866  0.5108 -0.3138
 8273TIP3    H246235   1.068   0.296  11.336  0.8221 -0.0557  0.1454
 8274TIP3   OH246236   1.360   5.392   1.231  0.0520  0.0473  0.4022
 8274TIP3    H146237   1.347   5.487   1.238  1.3864  0.1632  1.5811
 8274TIP3    H246238   1.440   5.383   1.178  0.8176 -0.3588  1.5960
 8275TIP3   OH246239   6.327   3.826   3.800 -0.3900 -0.6118 -0.3304
 8275TIP3    H146240   6.400   3.837   3.861  1.2960 -3.1200 -1.7095
 8275TIP3    H246241   6.250   3.816   3.856  0.8525 -1.2768  1.3360
 8276TIP3   OH246242   2.755   2.773   1.530  0.7634 -0.2470 -0.2540
 8276TIP3    H146243   2.731   2.699   1.473 -0.5791 -0.0515  0.0113
 8276TIP3    H246244   2.804   2.832   1.473  1.8677 -1.3420 -0.4612
 8277TIP3   OH246245   1.958   6.635   5.150  0.1580 -0.4289 -0.1404
 8277TIP3    H146246   1.868   6.652   5.177  0.8593  1.1052  1.3971
 8277TIP3    H246247   2.011   6.659   5.226  1.9002 -1.0403 -1.1061
 8278TIP3   OH246248   2.822   5.329   5.580 -0.0252 -0.0222  0.2061
 8278TIP3    H146249   2.773   5.399   5.538 -1.0482 -0.8682 -0.0450
 8278TIP3    H246250   2.804   5.339   5.673  1.9665  1.6413  0.4939
 8279TIP3   OH246251   2.672   1.637   1.586  0.1155  0.1013 -0.3149
 8279TIP3    H146252   2.604   1.664   1.648  0.0471  0.6061 -0.6019
 8279TIP3    H246253   2.744   1.699   1.601 -0.5734  1.3422 -1.9337
 8280TIP3   OH246254   0.862   4.139   1.598  0.0760 -0.1662 -0.3119
 8280TIP3    H146255   0.830   4.205   1.536  0.5817 -1.0928 -1.5882
 8280TIP3    H246256   0.814   4.059   1.575 -0.5116 -0.2931  1.2028
 8281TIP3   OH246257   6.048   6.277   4.042 -0.1562 -0.2404 -0.2824
 8281TIP3    H146258   6.039   6.353   3.984  0.9713 -0.2237 -0.4555
 8281TIP3    H246259   6.079   6.207   3.986 -0.4161 -0.6147  0.0351
 8282TIP3   OH246260   4.984   5.219   4.221 -0.5666  0.0529  0.5678
 8282TIP3    H146261   5.017   5.309   4.223  1.1287 -0.5304  1.3927
 8282TIP3    H246262   5.062   5.165   4.236 -1.7144 -1.5177  1.1829
 8283TIP3   OH246263   2.825   0.279  15.239  0.1853 -0.6688 -0.5240
 8283TIP3    H146264   2.759   0.214  15.218 -1.0695  0.5588 -0.5102
 8283TIP3    H246265   2.793   0.322  15.318  1.3109 -0.4493 -0.1581
 8284TIP3   OH246266   2.540   4.693   5.302  0.4768 -0.3434  0.3228
 8284TIP3    H146267   2.609   4.740   5.254  0.4166  0.3511  0.9065
 8284TIP3    H246268   2.556   4.600   5.281  2.7710 -0.3922  1.9445
 8285TIP3   OH246269   5.111   5.538  12.712 -0.5146  0.5944  0.1789
 8285TIP3    H146270   5.154   5.455  12.693  0.5013  1.3238 -0.8617
 8285TIP3    H246271   5.065   5.523  12.794  0.2229 -0.7802  0.3707
 8286TIP3   OH246272   5.620   6.592  11.336  0.1733 -0.3730 -0.3312
 8286TIP3    H146273   5.700   6.619  11.290 -0.4159  2.7053  0.2077
 8286TIP3    H246274   5.550   6.610  11.273 -0.3172  0.0787  0.3267
 8287TIP3   OH246275   5.769   6.130   4.157 -0.1659 -0.1458  0.7285
 8287TIP3    H146276   5.826   6.128   4.080  0.1182 -1.4700  0.9534
 8287TIP3    H246277   5.685   6.095   4.126 -0.4006  0.3700  0.7653
 8288TIP3   OH246278   2.027   4.117  13.812  0.2772  0.6070  0.3249
 8288TIP3    H146279   2.117   4.145  13.829  0.1103  2.1349 -1.1063
 8288TIP3    H246280   2.030   4.078  13.725 -0.3845  0.3160  0.4239
 8289TIP3   OH246281   2.408   4.571   3.836 -0.1931  0.8118 -0.3548
 8289TIP3    H146282   2.367   4.559   3.922 -0.1588  0.2112 -0.4198
 8289TIP3    H246283   2.337   4.601   3.780 -1.3903 -3.0975 -1.2276
 8290TIP3   OH246284   0.661   0.839  16.881  0.0342  0.6068  0.7007
 8290TIP3    H146285   0.663   0.893  16.802 -0.6007  1.2918  1.1322
 8290TIP3    H246286   0.676   0.901  16.952  0.3618  0.0375  1.1352
 8291TIP3   OH246287   1.525   2.832   1.175 -0.3253 -0.0293 -0.1976
 8291TIP3    H146288   1.604   2.867   1.134  0.2883 -0.0030  0.9805
 8291TIP3    H246289   1.526   2.739   1.154  0.1049 -0.0567 -0.0610
 8292TIP3   OH246290   4.353   1.466   3.503 -0.2622 -0.4844  0.0061
 8292TIP3    H146291   4.435   1.505   3.474 -0.6646  0.0680 -0.4138
 8292TIP3    H246292   4.371   1.372   3.509  0.9071 -0.1936  1.6597
 8293TIP3   OH246293   2.115   4.001  13.300  0.0865 -0.3777 -0.8259
 8293TIP3    H146294   2.125   4.085  13.345 -0.8343 -0.4722 -0.4053
 8293TIP3    H246295   2.199   3.986  13.257  1.2287 -0.5420  1.2985
 8294TIP3   OH246296   6.433   2.809  12.129 -0.3621  0.0994 -0.3278
 8294TIP3    H146297   6.366   2.877  12.120 -0.4153  0.2233  0.7632
 8294TIP3    H246298   6.389   2.740  12.179  0.8585  1.0517  2.2564
 8295TIP3   OH246299   4.281   6.051  14.288  0.0463 -0.2506 -0.0019
 8295TIP3    H146300   4.325   6.125  14.246  1.3431  0.6979  2.7905
 8295TIP3    H246301   4.189   6.060  14.262  0.5542  1.0057 -1.5107
 8296TIP3   OH246302   5.993   1.937   5.837  0.7207  0.4260  0.1417
 8296TIP3    H146303   6.075   1.957   5.792  0.3340 -0.0419 -0.8114
 8296TIP3    H246304   5.926   1.950   5.770  0.0564  0.3742  0.7856
 8297TIP3   OH246305   1.399   0.657   2.018  0.7665 -0.4630  0.4407
 8297TIP3    H146306   1.331   0.723   2.032  0.5730 -0.9401  1.9619
 8297TIP3    H246307   1.446   0.653   2.102  1.0817 -1.9063  0.2181
 8298TIP3   OH246308   1.006   4.352  15.113 -0.3910  0.3744  0.3031
 8298TIP3    H146309   1.090   4.392  15.088 -1.5141  1.7802 -1.4755
 8298TIP3    H246310   1.005   4.269  15.067  0.4205 -0.1096  1.1235
 8299TIP3   OH246311   1.859   4.707   2.756 -0.0015 -0.2593  0.3484
 8299TIP3    H146312   1.800   4.751   2.818  0.9681  0.9570  0.4529
 8299TIP3    H246313   1.802   4.681   2.684 -0.6947  0.8233  0.4708
 8300TIP3   OH246314   6.775   2.023   3.506 -0.2222 -0.1477  0.0549
 8300TIP3    H146315   6.754   1.972   3.583 -0.3268 -1.5133 -0.8497
 8300TIP3    H246316   6.871   2.025   3.504 -0.1316  2.2802  1.7039
 8301TIP3   OH246317   1.962   5.078  16.611 -0.0446 -0.0001 -0.3747
 8301TIP3    H146318   1.949   5.042  16.699 -2.1498  0.9368 -0.2426
 8301TIP3    H246319   1.954   5.002  16.553 -1.3010 -0.2753  0.1049
 8302TIP3   OH246320   1.462   1.756  11.586  0.1149  0.0774  0.2701
 8302TIP3    H146321   1.555   1.747  11.567  0.3299  0.3924  1.1321
 8302TIP3    H246322   1.456   1.752  11.682 -0.5985  1.4568  0.3008
 8303TIP3   OH246323   3.934   3.980  16.550 -0.5740 -0.5907  0.4341
 8303TIP3    H146324   3.995   4.025  16.491 -0.4074 -2.0231 -0.5427
 8303TIP3    H246325   3.847   3.997  16.513 -0.5380 -0.7607  0.2675
 8304TIP3   OH246326   5.735   2.448  11.187 -0.4883 -0.0145  0.0186
 8304TIP3    H146327   5.791   2.480  11.258 -2.1472 -1.1006  1.9525
 8304TIP3    H246328   5.666   2.514  11.179 -1.7380 -1.0911  1.2981
 8305TIP3   OH246329   1.243   1.961  16.730  0.0894 -0.5346 -0.2966
 8305TIP3    H146330   1.326   1.989  16.691  0.8204  1.1031  2.1838
 8305TIP3    H246331   1.177   1.991  16.667  1.2405  0.8427 -0.9216
 8306TIP3   OH246332   6.110   1.295  13.362 -0.4156  0.0576 -0.7683
 8306TIP3    H146333   6.090   1.373  13.310  1.1998  0.4107 -0.8833
 8306TIP3    H246334   6.073   1.314  13.448  0.2720  1.1226 -0.6889
 8307TIP3   OH246335   6.670   1.287   3.755 -0.2984 -0.1055 -0.1874
 8307TIP3    H146336   6.682   1.192   3.756 -1.2002 -0.2254  0.1893
 8307TIP3    H246337   6.578   1.300   3.779 -0.5988  0.7973 -1.6524
 8308TIP3   OH246338   0.055   0.035  10.590  0.7454  0.0701  0.1404
 8308TIP3    H146339   0.045  -0.032  10.522 -1.7732 -0.5078  0.9739
 8308TIP3    H246340   0.126   0.002  10.645  0.1792 -1.5008 -0.0008
 8309TIP3   OH246341   3.594   1.648   0.987 -0.6362 -0.0510  0.1867
 8309TIP3    H146342   3.683   1.632   1.018 -0.6691  0.5690  0.6348
 8309TIP3    H246343   3.553   1.698   1.059 -0.4348  2.2892 -1.2231
 8310TIP3   OH246344   2.780   6.178  11.364 -0.0225  0.7447 -0.1861
 8310TIP3    H146345   2.787   6.152  11.456 -0.3112 -0.7314 -0.5723
 8310TIP3    H246346   2.864   6.155  11.326 -0.0345  1.0198 -0.3854
 8311TIP3   OH246347   5.204   0.031   3.061  0.3993 -0.5096  0.3968
 8311TIP3    H146348   5.141   0.035   3.134  0.9577  0.0372  0.8567
 8311TIP3    H246349   5.169  -0.037   3.004 -1.5409  0.8976 -0.2246
 8312TIP3   OH246350   0.532   6.392   1.478 -0.5875  0.5407  0.5581
 8312TIP3    H146351   0.500   6.304   1.499 -0.6247  0.1250 -1.0853
 8312TIP3    H246352   0.490   6.413   1.395  0.0403  1.7995  0.5446
 8313TIP3   OH246353   5.722   3.686   3.892 -0.1177  0.3717 -0.0087
 8313TIP3    H146354   5.794   3.655   3.837 -0.2964 -0.2569  0.1019
 8313TIP3    H246355   5.757   3.683   3.981 -1.0276 -2.3700  0.3626
 8314TIP3   OH246356   6.744   2.341   2.867 -0.3148 -0.1074  0.1178
 8314TIP3    H146357   6.838   2.328   2.881 -0.0105  2.3304  0.7440
 8314TIP3    H246358   6.734   2.339   2.771  0.0654 -1.9816  0.0812
 8315TIP3   OH246359   4.604   4.862  11.596  0.3679 -0.3309 -0.4744
 8315TIP3    H146360   4.533   4.816  11.639 -0.3120  0.8140 -0.3403
 8315TIP3    H246361   4.672   4.871  11.663  0.5643 -1.2243 -0.5395
 8316TIP3   OH246362   0.763   6.703  15.561  0.4333 -0.0346 -0.0561
 8316TIP3    H146363   0.671   6.677  15.571  0.2761  0.7561  0.7293
 8316TIP3    H246364   0.769   6.735  15.471 -0.0899 -0.0138 -0.0910
 8317TIP3   OH246365   4.258   0.084   5.656 -0.1776 -0.6061 -0.0130
 8317TIP3    H146366   4.301   0.164   5.685  2.6798 -2.0434  0.0886
 8317TIP3    H246367   4.260   0.088   5.560  3.4151 -2.0348 -0.1635
 8318TIP3   OH246368   6.063   2.530   2.502  0.5192  0.1322 -0.0064
 8318TIP3    H146369   6.118   2.580   2.442  1.4644  0.1576  0.8612
 8318TIP3    H246370   6.124   2.490   2.564 -0.3115 -1.1125  0.0572
 8319TIP3   OH246371   1.083   2.343  16.995  0.1877  0.9544  0.0324
 8319TIP3    H146372   1.175   2.327  16.975  0.2099  2.4637 -1.2761
 8319TIP3    H246373   1.084   2.394  17.075  0.4897  1.0638 -0.0403
 8320TIP3   OH246374   1.167   6.734   2.838 -0.3701  0.1082  0.8610
 8320TIP3    H146375   1.216   6.669   2.888 -0.2570  0.1204  0.7661
 8320TIP3    H246376   1.230   6.768   2.774 -0.3089  0.6067  1.1782
 8321TIP3   OH246377   5.907   5.912  12.997 -0.3206 -0.8436  0.2084
 8321TIP3    H146378   5.881   5.955  12.916 -1.2497 -0.2404  0.8115
 8321TIP3    H246379   5.858   5.957  13.065 -0.9395 -2.5233  0.9215
 8322TIP3   OH246380   2.243   2.210  12.740  0.3885  0.0443  0.1076
 8322TIP3    H146381   2.207   2.137  12.689  0.7377 -1.5182  1.9615
 8322TIP3    H246382   2.178   2.280  12.731 -0.4093 -0.8104 -1.0190
 8323TIP3   OH246383   0.803   3.690  14.447  0.0586 -0.1214 -0.0490
 8323TIP3    H146384   0.845   3.761  14.398  0.6367 -0.0992  0.4545
 8323TIP3    H246385   0.711   3.694  14.421  0.3213 -0.0349 -1.0305
 8324TIP3   OH246386   3.220   6.133   4.546 -0.4149  0.0596 -0.3645
 8324TIP3    H146387   3.165   6.194   4.595  0.7271 -0.9613  2.3757
 8324TIP3    H246388   3.306   6.174   4.545  0.1633 -1.0297  0.7742
 8325TIP3   OH246389   1.454   2.049   3.086  0.2239  0.2024  1.0034
 8325TIP3    H146390   1.471   2.142   3.074 -0.5987  0.7973  3.7278
 8325TIP3    H246391   1.394   2.026   3.015  2.8444  0.8994 -1.6095
 8326TIP3   OH246392   1.146   0.553   4.910  0.4438 -0.7613  0.3701
 8326TIP3    H146393   1.134   0.534   4.817  2.7512 -0.6825 -0.0109
 8326TIP3    H246394   1.190   0.639   4.911 -0.8580 -0.0765  1.6224
 8327TIP3   OH246395   0.755   4.735   6.265  0.1845  0.5676 -0.1360
 8327TIP3    H146396   0.724   4.663   6.319 -1.9156  1.0271 -0.6397
 8327TIP3    H246397   0.713   4.813   6.302  1.7352  1.4534 -0.1290
 8328TIP3   OH246398   1.114   5.095  13.158  0.6066 -0.0272 -0.5042
 8328TIP3    H146399   1.071   5.104  13.073  0.6244 -0.0012 -0.5101
 8328TIP3    H246400   1.070   5.020  13.199  0.4528  0.0929 -0.4486
 8329TIP3   OH246401   4.000   6.058  16.989  0.2781 -0.3797  0.0965
 8329TIP3    H146402   4.041   6.042  17.074 -0.1953 -0.1153  0.3803
 8329TIP3    H246403   3.911   6.088  17.011  0.2264 -0.0995 -0.4838
 8330TIP3   OH246404   5.434   3.538   6.152 -0.3019  0.1179 -0.0201
 8330TIP3    H146405   5.433   3.633   6.166 -1.1412  0.1744 -0.4055
 8330TIP3    H246406   5.525   3.519   6.128  0.4317  0.4746  2.2200
 8331TIP3   OH246407   6.768   0.233  16.828 -0.2023 -0.1452 -0.0041
 8331TIP3    H146408   6.711   0.287  16.773 -2.9650 -2.5654  0.2630
 8331TIP3    H246409   6.722   0.227  16.912  0.7473 -1.7156  0.4438
 8332TIP3   OH246410   4.769   2.491   4.814 -0.1296 -0.4413 -0.3628
 8332TIP3    H146411   4.757   2.499   4.719  0.7104 -0.9558 -0.5262
 8332TIP3    H246412   4.863   2.503   4.827 -0.2585 -0.2604  0.4188
 8333TIP3   OH246413   5.405   3.126  14.539  0.0224 -0.5145  0.5652
 8333TIP3    H146414   5.363   3.118  14.454  0.9699  2.1471 -0.2695
 8333TIP3    H246415   5.349   3.078  14.599 -1.7916 -0.7227 -1.2099
 8334TIP3   OH246416   1.906   6.291  17.154 -0.3691 -0.0759 -0.2911
 8334TIP3    H146417   1.878   6.383  17.158 -0.8909 -0.2780  2.1826
 8334TIP3    H246418   1.866   6.258  17.074 -0.9455  1.6118 -0.7528
 8335TIP3   OH246419   0.865   4.458  11.166 -0.6028  0.0959 -0.0958
 8335TIP3    H146420   0.809   4.470  11.089 -1.7613 -0.0605  0.6869
 8335TIP3    H246421   0.841   4.371  11.199 -1.1146  0.7050  1.1921
 8336TIP3   OH246422   3.100   2.441  11.603 -0.4050 -0.1293 -0.4217
 8336TIP3    H146423   3.168   2.414  11.541 -1.0716  0.1652 -1.3157
 8336TIP3    H246424   3.129   2.525  11.637 -0.0856 -0.2380 -0.4291
 8337TIP3   OH246425   2.953   1.041  12.382  0.3257 -0.3847  0.3966
 8337TIP3    H146426   2.972   1.047  12.476  0.6330  0.2855  0.3005
 8337TIP3    H246427   2.979   1.127  12.348 -0.6828 -0.2869 -0.1390
 8338TIP3   OH246428   1.321   0.783   3.840  0.7373  0.5189  0.1724
 8338TIP3    H146429   1.336   0.694   3.809  2.5936  0.2987  1.5364
 8338TIP3    H246430   1.233   0.805   3.808  0.0771 -1.9210  0.1098
 8339TIP3   OH246431   2.367   2.710  13.772 -0.4423  0.0463  0.2133
 8339TIP3    H146432   2.404   2.622  13.764 -0.4471 -0.1858  2.3238
 8339TIP3    H246433   2.353   2.722  13.866 -0.5801  2.2473 -0.0373
 8340TIP3   OH246434   1.074   1.947   5.117  0.2167 -0.3280 -0.0118
 8340TIP3    H146435   1.051   1.854   5.113  0.1530 -0.3007 -0.2772
 8340TIP3    H246436   1.164   1.951   5.085  0.3568 -0.3463  0.3716
 8341TIP3   OH246437   3.326   5.747   3.401  0.1581 -0.0349 -0.0594
 8341TIP3    H146438   3.369   5.797   3.332  0.2661 -0.5304 -0.3604
 8341TIP3    H246439   3.397   5.711   3.454  0.0958 -0.1489 -0.0504
 8342TIP3   OH246440   2.985   0.431  16.472 -0.1467  0.5294  0.2766
 8342TIP3    H146441   3.006   0.476  16.390  0.9299 -1.5084 -0.6551
 8342TIP3    H246442   3.069   0.425  16.518 -0.1665 -0.8446  0.1712
 8343TIP3   OH246443   6.034   2.467  15.003 -0.2134 -0.4114 -0.5260
 8343TIP3    H146444   6.121   2.454  15.040 -1.1034 -1.5054  1.2945
 8343TIP3    H246445   5.998   2.379  14.995 -2.6981  0.1347  2.7745
 8344TIP3   OH246446   2.423   1.690   5.576 -0.0485 -0.9886  0.0376
 8344TIP3    H146447   2.493   1.711   5.515 -0.2530  0.7814  0.3466
 8344TIP3    H246448   2.468   1.668   5.657  0.1877 -0.5030  0.0452
 8345TIP3   OH246449   5.023   1.714   1.086 -0.3652  0.0070  0.2382
 8345TIP3    H146450   5.064   1.719   1.000  0.7894 -0.5760  0.7437
 8345TIP3    H246451   4.996   1.622   1.094 -0.5869  0.0908  0.4451
 8346TIP3   OH246452   0.624   3.151  14.594  0.3658  0.5110 -0.0529
 8346TIP3    H146453   0.632   3.226  14.535 -2.0505  0.5223 -0.4533
 8346TIP3    H246454   0.610   3.076  14.536  1.8497 -0.1539  0.3871
 8347TIP3   OH246455   4.170   1.902   3.106 -0.1672 -0.4437  0.1775
 8347TIP3    H146456   4.230   1.974   3.086  0.2908 -0.6552  0.7595
 8347TIP3    H246457   4.164   1.853   3.025  0.9963 -0.8042  0.2884
 8348TIP3   OH246458   3.907   3.130   0.745 -0.0279  0.4029 -0.5565
 8348TIP3    H146459   3.943   3.047   0.777  0.8199  0.3035 -1.6938
 8348TIP3    H246460   3.895   3.183   0.823  0.7483 -0.2910  0.0471
 8349TIP3   OH246461   2.387   5.120   0.097  0.3921  0.9136  0.8857
 8349TIP3    H146462   2.329   5.117   0.173  1.2209 -0.2442  1.4979
 8349TIP3    H246463   2.474   5.136   0.134  1.1277 -1.6297  0.4126
 8350TIP3   OH246464   2.342   3.580   1.959  0.4277  0.0162 -0.2262
 8350TIP3    H146465   2.433   3.551   1.946 -0.0108 -1.2916 -0.5459
 8350TIP3    H246466   2.292   3.530   1.895 -0.3119  2.1264 -1.3757
 8351TIP3   OH246467   5.586   5.132   6.434 -0.8969  0.3894 -0.8757
 8351TIP3    H146468   5.600   5.088   6.350 -0.6634 -0.6659 -0.3052
 8351TIP3    H246469   5.582   5.061   6.498  0.0828  1.2361  0.1688
 8352TIP3   OH246470   2.940   0.920   2.061 -0.0852 -0.6861  0.2317
 8352TIP3    H146471   2.977   0.832   2.060 -2.6306 -1.9327  2.7924
 8352TIP3    H246472   2.879   0.922   1.988 -0.1586 -1.1336  0.2814
 8353TIP3   OH246473   3.785   1.803   1.910 -0.2884 -0.9293 -0.0384
 8353TIP3    H146474   3.878   1.804   1.889  0.0583 -0.7417  1.4331
 8353TIP3    H246475   3.752   1.888   1.880 -0.1138 -1.1748 -0.9820
 8354TIP3   OH246476   2.574   4.376   2.045 -0.3508  0.8009 -0.3831
 8354TIP3    H146477   2.599   4.290   2.010  0.2742  1.2280 -1.0061
 8354TIP3    H246478   2.483   4.386   2.018 -0.9016 -0.2760  0.9305
 8355TIP3   OH246479   3.948   3.898   0.970  0.2157 -0.1688 -0.3979
 8355TIP3    H146480   3.988   3.877   1.054 -2.4432 -0.4663  0.8977
 8355TIP3    H246481   3.952   3.994   0.965 -1.5731  0.0600  1.2214
 8356TIP3   OH246482   2.435   5.104  14.495  0.0456  0.0823 -0.1504
 8356TIP3    H146483   2.484   5.025  14.514  0.8965  0.5609 -0.2898
 8356TIP3    H246484   2.403   5.134  14.580 -0.2149 -0.3630 -0.0901
 8357TIP3   OH246485   3.329   2.405   4.506 -0.0992  0.0253  0.0451
 8357TIP3    H146486   3.384   2.481   4.488 -0.3052  0.4169  0.9796
 8357TIP3    H246487   3.263   2.406   4.437 -0.7104  1.3027  0.6206
 8358TIP3   OH246488   4.258   6.149  13.673  0.1215  0.1013 -0.7390
 8358TIP3    H146489   4.281   6.070  13.625  0.8542  0.6143 -1.2576
 8358TIP3    H246490   4.310   6.218  13.632 -0.0696  0.7507  0.0792
 8359TIP3   OH246491   5.160   0.377  11.604  0.0008  0.9658 -0.1010
 8359TIP3    H146492   5.114   0.378  11.519  0.0681  2.2440 -0.1406
 8359TIP3    H246493   5.240   0.327  11.587 -0.1234  0.9641 -0.7131
 8360TIP3   OH246494   4.010   5.446   0.012  0.2520 -0.0914  0.4201
 8360TIP3    H146495   4.075   5.470   0.078 -0.1333  1.5940  0.2363
 8360TIP3    H246496   3.999   5.352   0.022  1.7057 -0.1890  1.3738
 8361TIP3   OH246497   6.754   1.658  14.238  0.4427 -0.7624  0.8007
 8361TIP3    H146498   6.785   1.671  14.328 -0.6341  1.1149  0.9542
 8361TIP3    H246499   6.682   1.596  14.246  0.4986 -0.7830  1.1910
 8362TIP3   OH246500   0.922   3.653   2.635 -0.2216 -0.2722 -0.0696
 8362TIP3    H146501   0.990   3.589   2.613  0.4258 -0.2366  1.6968
 8362TIP3    H246502   0.952   3.693   2.716 -1.9208  0.3920  0.2758
 8363TIP3   OH246503   0.049   5.192   1.842  0.4234  0.0274  0.3595
 8363TIP3    H146504   0.025   5.238   1.922  0.3877 -2.4070  1.8196
 8363TIP3    H246505   0.008   5.243   1.772 -1.1055  1.1870  2.0184
 8364TIP3   OH246506   6.154   0.260  11.773 -0.1335 -0.2344 -0.2163
 8364TIP3    H146507   6.179   0.229  11.860 -2.3010  0.6925  0.8105
 8364TIP3    H246508   6.166   0.355  11.778 -3.2339  0.2295  0.2370
 8365TIP3   OH246509   2.603   5.956   5.903  0.1511 -0.2812 -0.2518
 8365TIP3    H146510   2.546   5.880   5.914 -0.1461 -0.1880 -1.0879
 8365TIP3    H246511   2.557   6.012   5.841  0.1886  0.7725  0.6523
 8366TIP3   OH246512   3.253   3.264  14.266 -0.0560  0.5647  0.0319
 8366TIP3    H146513   3.202   3.337  14.233  0.3688  0.7499 -0.2155
 8366TIP3    H246514   3.329   3.304  14.309 -0.9027  0.3690  1.7943
 8367TIP3   OH246515   6.517   6.200  12.056  0.4139  0.2356 -0.0250
 8367TIP3    H146516   6.549   6.290  12.055  0.6471  0.1915  1.4233
 8367TIP3    H246517   6.593   6.147  12.035  0.4127  0.3508 -0.3144
 8368TIP3   OH246518   4.945   0.024  16.399 -0.1427 -0.2039  0.2783
 8368TIP3    H146519   4.918   0.086  16.331  0.3826 -2.4194 -2.1167
 8368TIP3    H246520   4.882  -0.047  16.394 -1.1701  0.3300  3.4670
 8369TIP3   OH246521   1.447   5.977  14.754  0.2588 -0.0203  0.4922
 8369TIP3    H146522   1.366   6.014  14.789 -0.2513 -0.1007 -0.5771
 8369TIP3    H246523   1.482   6.045  14.697  1.9118  0.7455  2.2770
 8370TIP3   OH246524   4.804   1.426  13.332 -0.7599 -0.2689  0.0145
 8370TIP3    H146525   4.722   1.455  13.293 -0.6858  0.7929  0.6066
 8370TIP3    H246526   4.854   1.389  13.259 -2.3535 -2.3818 -0.0939
 8371TIP3   OH246527   4.117   4.225   4.880  0.1700 -0.1689 -0.1539
 8371TIP3    H146528   4.039   4.266   4.845  1.5841  0.6530 -2.5958
 8371TIP3    H246529   4.095   4.132   4.885 -1.4224  0.2143  0.7108
 8372TIP3   OH246530   4.891   6.236   3.330 -0.5888  0.9115 -0.2043
 8372TIP3    H146531   4.879   6.307   3.393 -0.4548  0.0757  0.7908
 8372TIP3    H246532   4.974   6.256   3.287 -1.1699  2.0257 -0.8595
 8373TIP3   OH246533   0.151   6.285  14.824 -0.4755 -0.2309 -0.1717
 8373TIP3    H146534   0.232   6.335  14.819 -0.4380 -0.3563 -0.9277
 8373TIP3    H246535   0.144   6.242  14.738 -2.2131  1.1235 -0.7531
 8374TIP3   OH246536   2.267   1.144   4.173 -0.3229 -0.6735  0.3132
 8374TIP3    H146537   2.331   1.135   4.102 -0.3525 -0.0419  0.2012
 8374TIP3    H246538   2.320   1.153   4.252  0.0987  4.9074 -0.1778
 8375TIP3   OH246539   1.421   0.710   4.916 -0.1777 -0.3318  0.0964
 8375TIP3    H146540   1.421   0.784   4.975  1.4537  0.2672 -0.5854
 8375TIP3    H246541   1.455   0.637   4.969  2.0008  0.3742 -0.2203
 8376TIP3   OH246542   3.181   3.748  10.314 -0.0352  0.2002 -0.2302
 8376TIP3    H146543   3.133   3.812  10.367 -0.5471  2.3653 -3.0544
 8376TIP3    H246544   3.145   3.663  10.339 -0.1328  1.0472  2.8731
 8377TIP3   OH246545   3.956   4.782   5.846 -0.1760  0.0419  1.2988
 8377TIP3    H146546   3.925   4.712   5.902 -0.1817  0.0561  1.3135
 8377TIP3    H246547   3.998   4.844   5.905  1.0869 -0.6210  1.1385
 8378TIP3   OH246548   2.498   3.175   3.188  0.3611  0.5953  0.0766
 8378TIP3    H146549   2.426   3.168   3.251  1.4189  0.1777  1.2881
 8378TIP3    H246550   2.575   3.143   3.236  0.7910 -2.2455 -2.2332
 8379TIP3   OH246551   3.610   0.519   3.662 -0.0028 -0.1253  0.3866
 8379TIP3    H146552   3.656   0.556   3.586 -0.5759  1.7149  0.8659
 8379TIP3    H246553   3.676   0.518   3.731  0.7950 -2.7066 -0.3075
 8380TIP3   OH246554   0.716   5.621  16.465 -0.3199  0.4746  0.0205
 8380TIP3    H146555   0.725   5.635  16.559 -0.1396  0.2203  0.0428
 8380TIP3    H246556   0.722   5.708  16.427 -0.4067  0.5790  0.2484
 8381TIP3   OH246557   1.483   2.270   3.621  0.3961 -0.1241  0.2273
 8381TIP3    H146558   1.572   2.273   3.584  0.2884 -2.1580 -0.2637
 8381TIP3    H246559   1.452   2.361   3.614  1.5241  0.1702 -1.8478
 8382TIP3   OH246560   5.434   5.680   0.552 -0.5053  0.0093 -0.0461
 8382TIP3    H146561   5.487   5.603   0.530 -1.0206  0.0408 -1.5222
 8382TIP3    H246562   5.464   5.748   0.491  1.7216  1.8678  2.7954
 8383TIP3   OH246563   5.351   3.199  13.466 -0.7104  0.3657  0.2301
 8383TIP3    H146564   5.353   3.108  13.497 -1.0906  0.6131  1.0092
 8383TIP3    H246565   5.283   3.241  13.518  0.6569  1.5429  1.1745
 8384TIP3   OH246566   0.057   3.871   2.019  0.1895  0.4342 -0.0148
 8384TIP3    H146567   0.076   3.961   2.045  0.9895  0.1592  0.3937
 8384TIP3    H246568   0.106   3.859   1.938 -0.6764  0.6563 -0.5797
 8385TIP3   OH246569   0.363   2.360  11.535  0.3739 -0.1341  0.0314
 8385TIP3    H146570   0.300   2.400  11.594  0.2466 -1.0643  0.5445
 8385TIP3    H246571   0.383   2.275  11.574  0.3923 -0.7159 -1.1771
 8386TIP3   OH246572   4.429   0.659   0.384 -1.0064 -0.4639 -0.3753
 8386TIP3    H146573   4.335   0.645   0.384 -0.9485 -1.4051 -2.8975
 8386TIP3    H246574   4.459   0.620   0.301  1.2103  2.3140 -1.0309
 8387TIP3   OH246575   1.268   6.280   4.078  0.2603  0.0463 -0.1887
 8387TIP3    H146576   1.193   6.332   4.050 -0.1059  0.2822  1.1829
 8387TIP3    H246577   1.289   6.312   4.165  0.1907 -1.9040  0.5944
 8388TIP3   OH246578   1.221   5.692  13.980  0.1420  0.0155  0.6134
 8388TIP3    H146579   1.293   5.633  13.958  0.4539  0.8617 -0.7972
 8388TIP3    H246580   1.263   5.777  13.993 -0.5644  0.4984 -0.1485
 8389TIP3   OH246581   3.393   1.741  16.174 -0.2704  0.2046  0.4707
 8389TIP3    H146582   3.428   1.659  16.208 -0.5325  0.1374  0.5821
 8389TIP3    H246583   3.341   1.717  16.098  2.5306  0.6186 -1.7061
 8390TIP3   OH246584   4.824   5.812   5.222 -0.3523  0.5867  0.6630
 8390TIP3    H146585   4.805   5.853   5.138 -0.1196  0.7551  0.6932
 8390TIP3    H246586   4.821   5.883   5.285  0.3931  0.6159  0.6656
 8391TIP3   OH246587   2.960   4.936   4.734 -0.0595 -0.6387 -0.0214
 8391TIP3    H146588   2.938   4.849   4.768  0.6618 -0.4764  0.8938
 8391TIP3    H246589   2.875   4.978   4.722 -0.4595 -1.7263 -1.2295
 8392TIP3   OH246590   6.472   2.873  15.690  0.0108  0.0301 -0.8496
 8392TIP3    H146591   6.518   2.801  15.646 -1.4094 -0.0705 -2.2646
 8392TIP3    H246592   6.520   2.951  15.664  0.7421 -0.2724 -0.4303
 8393TIP3   OH246593   5.807   6.024  12.775 -0.6608  0.2773 -0.4458
 8393TIP3    H146594   5.730   6.079  12.789 -0.4927  0.6037 -0.7826
 8393TIP3    H246595   5.776   5.955  12.716 -0.9985 -0.2820  0.3653
 8394TIP3   OH246596   3.032   5.029  16.228 -0.3446  0.0561 -0.5789
 8394TIP3    H146597   3.119   5.048  16.264  0.5035 -2.0784 -1.3597
 8394TIP3    H246598   3.047   5.020  16.134 -1.3776 -0.5285 -0.6915
 8395TIP3   OH246599   2.022   3.418   6.539  0.0556 -0.3450  0.0894
 8395TIP3    H146600   1.976   3.484   6.487  1.1520  0.4533  0.1056
 8395TIP3    H246601   2.114   3.445   6.536  0.2582 -0.7865  1.7145
 8396TIP3   OH246602   4.002   2.116   1.676  0.1883 -0.0957  0.0999
 8396TIP3    H146603   4.063   2.122   1.749 -0.2676  0.9606  0.4219
 8396TIP3    H246604   4.056   2.127   1.598  0.6274 -0.8576  0.2886
 8397TIP3   OH246605   6.512   5.275   1.561 -0.4160  0.2437 -0.4300
 8397TIP3    H146606   6.538   5.189   1.529 -0.9593  0.1655 -0.6786
 8397TIP3    H246607   6.593   5.316   1.590 -0.1906 -0.4473 -0.0810
 8398TIP3   OH246608   6.408   0.161   3.636  0.8651 -0.3935 -0.1907
 8398TIP3    H146609   6.397   0.254   3.614 -1.1020 -0.9087 -1.6782
 8398TIP3    H246610   6.503   0.148   3.637  1.1707  1.3626 -1.1769
 8399TIP3   OH246611   3.434   3.332   0.102  0.8525 -0.5514  0.4025
 8399TIP3    H146612   3.418   3.287   0.020 -0.0502  0.5175 -0.0291
 8399TIP3    H246613   3.511   3.289   0.139 -0.2802 -2.8032  0.2864
 8400TIP3   OH246614   1.872   0.070  15.172  0.1999 -0.0669 -0.0934
 8400TIP3    H146615   1.859   0.107  15.259 -2.6440  2.8077 -1.5431
 8400TIP3    H246616   1.941   0.124  15.133 -0.6953  0.7015 -0.6378
 8401TIP3   OH246617   1.010   4.690   1.466 -0.2594 -0.4875  0.2232
 8401TIP3    H146618   0.975   4.651   1.386 -2.4064  0.7769  0.4742
 8401TIP3    H246619   0.933   4.723   1.512  1.2361  2.6237  0.7523
 8402TIP3   OH246620   0.229   3.180  11.889  0.4192  0.2214  0.7591
 8402TIP3    H146621   0.151   3.217  11.929  0.0981  0.6316 -0.2089
 8402TIP3    H246622   0.269   3.127  11.958 -1.4686 -1.1496  0.8664
 8403TIP3   OH246623   4.761   1.574   2.457  0.3079 -0.1586 -0.3297
 8403TIP3    H146624   4.838   1.526   2.426 -0.0996  0.6400 -2.8709
 8403TIP3    H246625   4.704   1.507   2.492  0.3946 -1.4104 -2.3880
 8404TIP3   OH246626   0.877   2.424  16.149  0.8039  0.4945 -0.0717
 8404TIP3    H146627   0.903   2.516  16.149  1.0220  0.4472  0.8388
 8404TIP3    H246628   0.959   2.375  16.151  0.6935  0.2714 -0.7756
 8405TIP3   OH246629   1.238   3.434  12.795 -0.1537  0.2936 -0.3976
 8405TIP3    H146630   1.160   3.490  12.798  0.7756  1.6276  0.6011
 8405TIP3    H246631   1.206   3.347  12.816 -1.3687  0.8382  0.1520
 8406TIP3   OH246632   5.206   2.956  11.258 -0.3465 -0.2166  0.0986
 8406TIP3    H146633   5.224   2.882  11.198  1.2809  1.7399 -2.0294
 8406TIP3    H246634   5.111   2.953  11.271 -0.3228 -2.7964  0.3110
 8407TIP3   OH246635   0.025   4.450  16.942  0.2502  0.3610 -0.2687
 8407TIP3    H146636   0.040   4.516  17.010 -0.3753  1.6282 -1.3230
 8407TIP3    H246637  -0.063   4.468  16.909 -0.2024 -1.4208 -0.1669
 8408TIP3   OH246638   5.095   4.028  16.321 -0.0341  0.5188  0.1776
 8408TIP3    H146639   5.112   4.052  16.230  0.0124  2.4535  0.6602
 8408TIP3    H246640   5.016   4.075  16.344 -0.0315  0.0643  1.1611
 8409TIP3   OH246641   4.952   3.447   4.009 -0.6506  0.0240 -0.4590
 8409TIP3    H146642   4.865   3.474   3.980 -1.6318 -0.3015  1.9459
 8409TIP3    H246643   4.990   3.402   3.933 -1.5342  2.3199 -2.4070
 8410TIP3   OH246644   0.466   1.072   4.663  0.2908  0.0821 -0.0325
 8410TIP3    H146645   0.525   1.005   4.700  0.5587 -0.7542 -1.8502
 8410TIP3    H246646   0.525   1.142   4.636  0.4264 -0.4700 -1.2484
 8411TIP3   OH246647   4.513   6.768  10.939  0.1093 -0.2868  0.1179
 8411TIP3    H146648   4.594   6.738  10.897 -0.7447 -1.0276 -1.1003
 8411TIP3    H246649   4.446   6.753  10.872 -0.9564  0.7735  0.9220
 8412TIP3   OH246650   1.732   1.317  17.199  0.2836  0.2309 -0.3400
 8412TIP3    H146651   1.678   1.397  17.205  1.0916  0.7360  0.6353
 8412TIP3    H246652   1.822   1.348  17.210  0.5204 -0.9360  1.6796
 8413TIP3   OH246653   4.608   2.906   0.322 -0.3136  0.2131  0.5949
 8413TIP3    H146654   4.551   2.945   0.255  0.2811  1.5455  0.8384
 8413TIP3    H246655   4.695   2.937   0.299 -0.1364  0.9750  2.1776
 8414TIP3   OH246656   1.987   0.768   2.676 -0.5079 -0.6823 -0.8343
 8414TIP3    H146657   1.920   0.701   2.690 -1.1719 -0.5863 -3.0954
 8414TIP3    H246658   2.051   0.727   2.617  1.7068 -0.8908  1.5216
 8415TIP3   OH246659   3.073   0.166  16.261  0.3492  0.0730  0.3583
 8415TIP3    H146660   2.991   0.215  16.257 -0.7557 -1.6110  1.0960
 8415TIP3    H246661   3.092   0.144  16.169 -0.2188  0.1824  0.2101
 8416TIP3   OH246662   6.512   5.303   3.840 -0.2058  0.1195 -0.6012
 8416TIP3    H146663   6.475   5.284   3.926  0.5925  1.2072  0.0060
 8416TIP3    H246664   6.437   5.333   3.788 -0.4076  1.1864  0.2659
 8417TIP3   OH246665   2.323   6.620  12.981  0.2275  0.4341 -0.8098
 8417TIP3    H146666   2.403   6.644  12.935 -0.5294  1.0733 -1.8528
 8417TIP3    H246667   2.350   6.607  13.071  1.8009 -1.0277 -1.4384
 8418TIP3   OH246668   6.423   5.405   5.087  0.7007 -0.1802 -0.0135
 8418TIP3    H146669   6.464   5.364   5.012 -0.0250 -1.8807  0.4623
 8418TIP3    H246670   6.338   5.436   5.054  0.9191  0.2344 -0.1892
 8419TIP3   OH246671   5.360   1.773  15.748 -0.0260 -0.2632 -0.1592
 8419TIP3    H146672   5.454   1.774  15.732  0.3031 -0.2464  1.5846
 8419TIP3    H246673   5.337   1.680  15.752  0.0169 -0.2702 -0.0724
 8420TIP3   OH246674   1.952   2.445   0.029 -0.2763 -0.6027 -0.2730
 8420TIP3    H146675   1.896   2.500   0.084 -1.2324 -0.6845 -1.1399
 8420TIP3    H246676   1.960   2.492  -0.053  1.3747 -0.3534 -0.0045
 8421TIP3   OH246677   2.322   5.468   3.068  0.6734  0.1421  0.2451
 8421TIP3    H146678   2.281   5.393   3.026  1.4338 -0.2203  0.1399
 8421TIP3    H246679   2.339   5.529   2.996 -0.4634  0.6867  0.4016
 8422TIP3   OH246680   5.395   0.779   4.529  0.4692  0.2363 -0.5241
 8422TIP3    H146681   5.324   0.820   4.579  2.3264  2.1437  0.7061
 8422TIP3    H246682   5.354   0.702   4.489 -1.4649 -0.6899  2.8693
 8423TIP3   OH246683   3.937   1.386  11.264 -0.4071  0.1300  0.1968
 8423TIP3    H146684   3.877   1.426  11.327 -1.0480  0.2265 -0.4565
 8423TIP3    H246685   3.881   1.360  11.191 -0.1668 -2.7466  0.9334
 8424TIP3   OH246686   6.557   0.730  14.206 -0.3958 -0.0377 -0.4921
 8424TIP3    H146687   6.623   0.684  14.257 -0.0477  0.4815 -0.4745
 8424TIP3    H246688   6.551   0.817  14.245 -1.3132 -0.1730 -0.2995
 8425TIP3   OH246689   0.301   2.100   4.411 -0.6245 -0.3643 -0.0591
 8425TIP3    H146690   0.246   2.054   4.475  0.3116 -0.7496  0.4867
 8425TIP3    H246691   0.313   2.188   4.448 -3.0300  0.6630 -1.4565
 8426TIP3   OH246692   1.049   1.686  11.388 -0.1514 -0.1661  0.2465
 8426TIP3    H146693   1.017   1.606  11.348  0.9922 -0.8637  0.6898
 8426TIP3    H246694   1.074   1.741  11.313 -0.1852 -0.5370 -0.0435
 8427TIP3   OH246695   1.088   4.713  16.274  0.0466  0.1425  0.5667
 8427TIP3    H146696   1.119   4.630  16.311 -1.6940  0.1763  2.2379
 8427TIP3    H246697   1.158   4.775  16.292  1.0133 -0.7691  0.0382
 8428TIP3   OH246698   3.885   3.021  15.815  0.2370  0.1467 -0.2988
 8428TIP3    H146699   3.826   2.955  15.778  1.3212 -1.5412  0.8572
 8428TIP3    H246700   3.940   3.048  15.741  1.3598 -2.0390 -0.3412
 8429TIP3   OH246701   1.395   0.527   4.712  0.3080  0.5530  0.7376
 8429TIP3    H146702   1.411   0.600   4.772  1.5496  1.4188 -0.5962
 8429TIP3    H246703   1.304   0.540   4.684  0.5124  1.6078  0.5031
 8430TIP3   OH246704   2.003   4.004  14.596 -0.2654 -0.0055  0.4214
 8430TIP3    H146705   1.977   3.916  14.625 -1.1822 -0.0235 -0.3823
 8430TIP3    H246706   1.970   4.062  14.664 -0.2891 -0.2370  0.6088
 8431TIP3   OH246707   1.953   5.314  15.976 -0.5523 -0.0810 -0.7364
 8431TIP3    H146708   1.934   5.242  15.916  0.9324 -0.4914 -0.7374
 8431TIP3    H246709   1.940   5.275  16.063  3.1615 -1.3456 -0.5976
 8432TIP3   OH246710   0.303   2.603   2.180  0.6050 -0.3117  0.6539
 8432TIP3    H146711   0.304   2.606   2.084  0.1690 -0.7579  0.6304
 8432TIP3    H246712   0.305   2.695   2.207  0.5114 -0.1772  0.2127
 8433TIP3   OH246713   3.874   1.657   0.799  0.4960 -0.0838 -0.0356
 8433TIP3    H146714   3.909   1.691   0.717 -0.8419 -0.0227 -0.6094
 8433TIP3    H246715   3.779   1.662   0.788  0.1878 -3.6483 -0.0508
 8434TIP3   OH246716   6.627   6.397   4.711  0.5411 -0.0709 -0.2775
 8434TIP3    H146717   6.662   6.352   4.787 -0.6291  0.8450  0.8468
 8434TIP3    H246718   6.687   6.471   4.698  0.1053  0.4268  0.4786
 8435TIP3   OH246719   4.764   1.059  11.999  0.0247 -0.3777 -0.1959
 8435TIP3    H146720   4.781   1.143  12.042 -0.2284  0.7977 -2.2731
 8435TIP3    H246721   4.671   1.060  11.980 -0.0891 -1.4030  0.2584
 8436TIP3   OH246722   0.306   2.135  15.732  0.1878  0.5294 -0.2358
 8436TIP3    H146723   0.318   2.220  15.775 -1.3009  1.5134 -1.6069
 8436TIP3    H246724   0.312   2.156  15.638 -1.2742 -0.6599 -0.6327
 8437TIP3   OH246725   0.461   0.597  14.703  0.4102 -0.4668 -0.3620
 8437TIP3    H146726   0.529   0.665  14.698  0.0722 -0.1316 -0.4743
 8437TIP3    H246727   0.386   0.636  14.658 -0.7273  0.2189  1.9474
 8438TIP3   OH246728   0.525   0.586  16.926 -0.1751  0.3728  0.1888
 8438TIP3    H146729   0.577   0.665  16.907 -0.5011  0.5049 -0.1690
 8438TIP3    H246730   0.438   0.607  16.894 -0.9285  0.8477  2.3806
 8439TIP3   OH246731   2.471   3.583   5.374 -0.1231 -0.1251  0.2374
 8439TIP3    H146732   2.506   3.646   5.311 -0.8458 -0.4069 -0.4579
 8439TIP3    H246733   2.449   3.506   5.321  1.3899 -1.2520  1.1579
 8440TIP3   OH246734   1.569   3.161   0.614 -0.0464  0.0376 -0.0057
 8440TIP3    H146735   1.593   3.146   0.522 -0.9399  1.5484 -0.5282
 8440TIP3    H246736   1.637   3.219   0.647 -0.6405  0.9088 -0.2570
 8441TIP3   OH246737   1.298   1.180   5.251  0.2779 -0.0317 -0.4064
 8441TIP3    H146738   1.385   1.209   5.226  1.5273 -1.4341  1.9771
 8441TIP3    H246739   1.312   1.097   5.296 -2.2870 -0.3218  0.0132
 8442TIP3   OH246740   1.534   2.403  16.413  0.1934  0.2320 -0.5772
 8442TIP3    H146741   1.445   2.437  16.400 -0.0634  0.3447  1.1943
 8442TIP3    H246742   1.554   2.423  16.505  2.0861  0.2656 -0.9601
 8443TIP3   OH246743   5.964   0.500  15.366 -0.4648  0.0302 -0.9246
 8443TIP3    H146744   5.901   0.537  15.428  0.5863 -1.9080  1.4769
 8443TIP3    H246745   6.041   0.556  15.373  0.7261 -1.7140  1.8919
 8444TIP3   OH246746   4.413   6.558  15.386  0.7744 -0.1580  0.1838
 8444TIP3    H146747   4.501   6.584  15.358  0.0552  0.4800 -1.6157
 8444TIP3    H246748   4.367   6.641  15.401  0.1241 -0.4711 -0.0559
 8445TIP3   OH246749   6.716   2.374  12.364 -0.0199  0.5672  0.5489
 8445TIP3    H146750   6.764   2.389  12.446  0.0510 -1.3829  0.9153
 8445TIP3    H246751   6.768   2.307  12.319 -1.2922 -0.0512 -0.0274
 8446TIP3   OH246752   1.744   3.784   1.662 -0.1625 -0.8497  0.0351
 8446TIP3    H146753   1.692   3.864   1.662  2.2758  0.8492 -1.3498
 8446TIP3    H246754   1.751   3.760   1.754 -2.3381 -0.5289  0.3509
 8447TIP3   OH246755   1.812   2.381  15.289 -0.2355 -0.0744  0.0221
 8447TIP3    H146756   1.872   2.453  15.272 -1.7283  1.1877 -0.0814
 8447TIP3    H246757   1.797   2.384  15.384  1.3133 -1.6245  0.3774
 8448TIP3   OH246758   2.164   4.881   1.881 -0.1375  0.3975  0.1158
 8448TIP3    H146759   2.200   4.961   1.841  2.1955  0.8475  2.8237
 8448TIP3    H246760   2.201   4.810   1.830 -1.8502  0.9135 -2.0215
 8449TIP3   OH246761   5.285   3.583   1.836 -0.2587 -0.1086  1.0407
 8449TIP3    H146762   5.291   3.515   1.769 -2.1279  1.0765 -0.4364
 8449TIP3    H246763   5.223   3.548   1.900  1.6587 -1.3156  2.3582
 8450TIP3   OH246764   5.047   3.704   4.087  0.0465 -0.5516  0.1629
 8450TIP3    H146765   5.032   3.611   4.068  1.5662 -0.6985 -0.4219
 8450TIP3    H246766   4.960   3.744   4.080 -0.8008 -2.0570  1.3375
 8451TIP3   OH246767   3.934   3.358  13.041 -0.3169  0.1940 -0.0887
 8451TIP3    H146768   4.016   3.373  13.088  0.7628 -1.4644 -1.3362
 8451TIP3    H246769   3.892   3.287  13.089 -1.4702  1.5492  1.0099
 8452TIP3   OH246770   2.903   2.965   5.116  0.4359 -0.6029  0.6250
 8452TIP3    H146771   2.907   2.920   5.031  0.0050 -1.4900  1.0611
 8452TIP3    H246772   2.847   3.041   5.101  0.7761 -0.4654 -0.0047
 8453TIP3   OH246773   4.792   1.686  15.720 -0.2072  0.0335  0.0958
 8453TIP3    H146774   4.815   1.729  15.638 -1.3137  0.5935  0.0556
 8453TIP3    H246775   4.876   1.665  15.761  0.3541  1.5559 -0.2282
 8454TIP3   OH246776   3.770   5.523  10.937 -0.2352  0.3955 -0.1364
 8454TIP3    H146777   3.788   5.596  10.879  1.5603  0.7728  0.8507
 8454TIP3    H246778   3.850   5.470  10.935  0.2103  0.8403  2.5614
 8455TIP3   OH246779   5.134   3.230   4.643  0.1971 -0.0182 -0.5756
 8455TIP3    H146780   5.050   3.266   4.671 -0.3035 -1.1751 -0.5551
 8455TIP3    H246781   5.192   3.243   4.718 -0.9815 -2.5816  0.9343
 8456TIP3   OH246782   6.275   5.259   0.397 -0.3188  0.1182 -0.0965
 8456TIP3    H146783   6.228   5.236   0.318 -0.7348  0.7526 -0.0359
 8456TIP3    H246784   6.367   5.259   0.371 -0.3732 -0.7109 -0.3136
 8457TIP3   OH246785   0.850   5.077  13.837 -0.3071  0.1233 -0.6819
 8457TIP3    H146786   0.867   4.983  13.842  0.5156  0.3177  0.6715
 8457TIP3    H246787   0.755   5.084  13.828 -0.4761 -0.8318  0.1475
 8458TIP3   OH246788   5.342   4.361   0.008 -0.0045  0.8047  0.3942
 8458TIP3    H146789   5.343   4.282  -0.045  1.1795  1.5956 -0.8235
 8458TIP3    H246790   5.263   4.408  -0.019 -0.3526  0.3756  0.6456
 8459TIP3   OH246791   3.688   1.796   3.977  0.8931  0.4743  0.1826
 8459TIP3    H146792   3.761   1.751   3.935  0.1035 -0.6484 -0.0378
 8459TIP3    H246793   3.725   1.832   4.057  1.5796 -0.5045  0.3264
 8460TIP3   OH246794   1.001   3.459   4.436  0.2658 -0.1774  0.6228
 8460TIP3    H146795   0.997   3.443   4.342 -1.5608 -1.1696  0.8095
 8460TIP3    H246796   1.074   3.519   4.448  0.2573  0.3100 -1.4710
 8461TIP3   OH246797   2.943   4.147   4.425 -0.5374  0.7379  0.1643
 8461TIP3    H146798   3.024   4.129   4.472  0.1657 -1.1348 -1.6447
 8461TIP3    H246799   2.886   4.072   4.446  0.0879 -0.5680 -2.5037
 8462TIP3   OH246800   4.761   0.695   2.858  0.0003  0.7973  0.1730
 8462TIP3    H146801   4.721   0.769   2.904  1.1475  1.3780  0.2811
 8462TIP3    H246802   4.835   0.670   2.913  1.4087  1.5005 -1.3175
 8463TIP3   OH246803   5.563   2.053  16.730 -0.0270 -0.2871 -0.2154
 8463TIP3    H146804   5.636   2.084  16.783  2.0134 -0.2140 -2.8674
 8463TIP3    H246805   5.538   1.969  16.769  0.6520  0.2322  1.4341
 8464TIP3   OH246806   4.592   2.759   1.236  0.4382  0.5168  0.3107
 8464TIP3    H146807   4.518   2.802   1.278 -0.1284 -1.1202  1.1006
 8464TIP3    H246808   4.615   2.688   1.296  1.2936 -0.2816 -0.9196
 8465TIP3   OH246809   3.252   5.572  10.544 -0.0705 -0.3660 -0.1176
 8465TIP3    H146810   3.278   5.494  10.593 -2.6351 -1.7795 -0.8157
 8465TIP3    H246811   3.190   5.617  10.600  0.2691  0.3848 -0.3316
 8466TIP3   OH246812   5.113   3.360   5.789 -0.2037 -0.7325 -0.0195
 8466TIP3    H146813   5.051   3.393   5.854  0.4688  0.6455 -0.0507
 8466TIP3    H246814   5.104   3.264   5.794  1.5985 -0.8520  3.8782
 8467TIP3   OH246815   4.759   3.510   0.335  0.1059  0.1788 -0.4791
 8467TIP3    H146816   4.853   3.517   0.346 -0.0779  2.2918  0.2310
 8467TIP3    H246817   4.726   3.486   0.422 -0.1755  2.1778  0.0214
 8468TIP3   OH246818   0.754   3.384  11.479 -0.1982 -0.1465 -0.3333
 8468TIP3    H146819   0.806   3.366  11.557  0.3668 -0.4730 -0.7834
 8468TIP3    H246820   0.805   3.348  11.407 -0.7206  0.1456 -0.8573
 8469TIP3   OH246821   3.027   1.149   0.674 -0.5798  0.4339  0.0382
 8469TIP3    H146822   3.095   1.193   0.726 -0.4154 -2.0309  2.1076
 8469TIP3    H246823   3.074   1.116   0.598 -0.3249  2.0757 -0.5655
 8470TIP3   OH246824   3.708   4.795  15.628 -0.1939 -0.3112  0.1296
 8470TIP3    H146825   3.741   4.862  15.568  1.2130 -1.4355 -0.3959
 8470TIP3    H246826   3.784   4.766  15.678 -0.7920 -1.4302  0.4403
 8471TIP3   OH246827   1.013   0.034   5.280  0.1747  0.2376  0.4185
 8471TIP3    H146828   0.918   0.022   5.288  0.2898 -1.3305 -0.0762
 8471TIP3    H246829   1.050  -0.020   5.350  0.7350 -1.4808 -1.1096
 8472TIP3   OH246830   6.597   0.280  11.328  0.1642 -0.2090 -0.4353
 8472TIP3    H146831   6.532   0.346  11.350  0.8384  0.2974  0.0715
 8472TIP3    H246832   6.600   0.223  11.405  1.0142  0.3452 -0.0384
 8473TIP3   OH246833   3.735   2.435  12.466  0.2948  0.3700 -0.0207
 8473TIP3    H146834   3.786   2.507  12.504 -0.1323  1.7627 -1.9375
 8473TIP3    H246835   3.791   2.358  12.477  1.5409  1.3211  0.5524
 8474TIP3   OH246836   3.290   6.086   0.003  0.6712 -0.1830  0.3719
 8474TIP3    H146837   3.237   6.151  -0.044 -0.8172 -0.4729  1.5630
 8474TIP3    H246838   3.331   6.136   0.074  0.8060 -0.2296  0.3257
 8475TIP3   OH246839   3.754   0.337   1.677 -0.0344 -0.2804  0.2031
 8475TIP3    H146840   3.813   0.348   1.603  0.0110 -0.1911  0.2526
 8475TIP3    H246841   3.813   0.315   1.750  0.1890  2.0296  0.7927
 8476TIP3   OH246842   6.756   1.404   1.044  0.0711 -0.6136 -0.1884
 8476TIP3    H146843   6.705   1.408   0.963 -1.4157 -1.6516  0.6343
 8476TIP3    H246844   6.728   1.482   1.093  1.1904  0.1729 -0.7718
 8477TIP3   OH246845   4.970   0.019   2.186  0.3497  0.0461 -0.1737
 8477TIP3    H146846   5.005  -0.063   2.150  0.6046 -0.0546  0.2988
 8477TIP3    H246847   5.048   0.072   2.202  0.5031 -0.8992  2.6905
 8478TIP3   OH246848   2.767   6.174   1.214  0.0355 -0.2881  0.2524
 8478TIP3    H146849   2.812   6.152   1.296  1.7482  0.3872 -0.4449
 8478TIP3    H246850   2.692   6.228   1.241  1.3130  1.0481  1.3264
 8479TIP3   OH246851   6.455   1.753   3.643 -0.5591 -0.4071  0.3565
 8479TIP3    H146852   6.467   1.846   3.622 -0.0851 -0.4401  0.4788
 8479TIP3    H246853   6.528   1.709   3.599 -0.5258 -0.6694  0.6697
 8480TIP3   OH246854   6.124   1.275  11.201  0.0406  0.5055 -0.4134
 8480TIP3    H146855   6.200   1.327  11.228 -0.4115 -0.0320  2.1737
 8480TIP3    H246856   6.050   1.335  11.207 -0.1826  0.1580  0.4290
 8481TIP3   OH246857   2.147   6.373  14.913 -0.3876 -0.2620 -0.2284
 8481TIP3    H146858   2.234   6.413  14.901 -0.4897  0.3717  1.0288
 8481TIP3    H246859   2.151   6.334  15.000 -1.3045 -0.4249 -0.2570
 8482TIP3   OH246860   4.155   5.200  13.086  0.4831 -0.5753  0.0388
 8482TIP3    H146861   4.215   5.202  13.012  1.7958 -0.7410  1.0634
 8482TIP3    H246862   4.189   5.130  13.143 -1.4872 -1.6334  0.0075
 8483TIP3   OH246863   3.596   2.215  15.460 -0.0998  0.3014  0.3400
 8483TIP3    H146864   3.570   2.214  15.552  3.6417 -1.3866  1.5332
 8483TIP3    H246865   3.633   2.302  15.447 -0.6223  0.5388  0.4195
 8484TIP3   OH246866   4.515   3.618   5.840 -0.2023  0.0092 -0.2872
 8484TIP3    H146867   4.430   3.631   5.883  0.0356 -1.2488  0.6258
 8484TIP3    H246868   4.549   3.706   5.826 -1.5297  0.5209 -0.3975
 8485TIP3   OH246869   1.977   5.679   5.169  0.1012  0.0569  0.0394
 8485TIP3    H146870   1.912   5.633   5.222  0.5577 -0.8516 -0.1646
 8485TIP3    H246871   1.928   5.750   5.127 -0.1767  1.0438  1.9683
 8486TIP3   OH246872   5.524   1.826   0.606 -0.3702  0.2537  0.5546
 8486TIP3    H146873   5.596   1.826   0.670  1.0287 -0.4771 -0.9485
 8486TIP3    H246874   5.472   1.749   0.629  1.1332 -1.0496 -0.2116
 8487TIP3   OH246875   1.945   6.313   4.167  0.0982  0.7374 -0.6494
 8487TIP3    H146876   2.040   6.326   4.171  0.2572 -0.0336 -1.6109
 8487TIP3    H246877   1.931   6.260   4.089 -1.1888  1.3603 -0.8699
 8488TIP3   OH246878   4.147   1.904  13.797 -0.0482 -0.1303  0.3397
 8488TIP3    H146879   4.126   1.824  13.749  0.8556  0.1879 -0.6260
 8488TIP3    H246880   4.076   1.913  13.861 -0.3456 -1.5082  0.2390
 8489TIP3   OH246881   5.117   4.844   3.955 -0.9564 -0.1557  0.2283
 8489TIP3    H146882   5.082   4.924   3.915 -2.1411  0.0192  1.5407
 8489TIP3    H246883   5.172   4.874   4.027  1.3442 -0.4646 -1.2915
 8490TIP3   OH246884   0.458   2.827   0.470 -0.0019  0.8241 -0.1972
 8490TIP3    H146885   0.427   2.906   0.426  0.8330  0.5191 -1.4009
 8490TIP3    H246886   0.550   2.820   0.443  0.6409  0.7784  1.8605
 8491TIP3   OH246887   5.508   1.711  13.366  0.0174 -0.0146  0.3156
 8491TIP3    H146888   5.494   1.791  13.314  0.3912 -0.0839  0.0995
 8491TIP3    H246889   5.532   1.645  13.302  0.7759 -0.0284  0.5979
 8492TIP3   OH246890   0.682   2.227   1.368 -0.0039  0.0668 -0.3944
 8492TIP3    H146891   0.674   2.322   1.361 -1.0384  0.0314  0.1760
 8492TIP3    H246892   0.627   2.203   1.443 -1.6963 -1.2341 -1.9665
 8493TIP3   OH246893   4.747   4.993  12.245 -0.9566  0.2307  0.6576
 8493TIP3    H146894   4.835   5.024  12.225  0.5821 -1.6921  3.6199
 8493TIP3    H246895   4.706   4.978  12.160  1.6330  1.0340 -0.8230
 8494TIP3   OH246896   3.877   2.183  14.802  0.5140  0.2743  0.4801
 8494TIP3    H146897   3.903   2.251  14.864 -1.5582  1.3465  0.2696
 8494TIP3    H246898   3.921   2.104  14.833 -1.9067  0.2520  4.6122
 8495TIP3   OH246899   6.490   1.987  13.115 -0.1561  0.0618 -0.5806
 8495TIP3    H146900   6.522   2.069  13.078  0.7175 -0.7028 -1.5712
 8495TIP3    H246901   6.412   2.013  13.165  0.8275  1.6600  0.2010
 8496TIP3   OH246902   3.638   3.925  16.811  0.3953  0.0633  0.1868
 8496TIP3    H146903   3.591   3.962  16.737 -0.3342  1.4273  1.2759
 8496TIP3    H246904   3.574   3.925  16.882  1.6505  0.7952  1.3705
 8497TIP3   OH246905   3.302   1.387  13.016 -0.2518 -0.2285 -0.2669
 8497TIP3    H146906   3.263   1.471  13.037  1.1675  0.1777  0.9225
 8497TIP3    H246907   3.233   1.338  12.971 -1.3101  1.3061 -0.3693
 8498TIP3   OH246908   4.119   3.711   5.914  0.4972  0.3871 -0.1460
 8498TIP3    H146909   4.084   3.624   5.931  0.5923  0.5098  0.7164
 8498TIP3    H246910   4.070   3.769   5.973  1.4764  0.7005  0.3805
 8499TIP3   OH246911   1.564   1.884   4.315  0.8530  0.2445  0.2228
 8499TIP3    H146912   1.629   1.820   4.343  0.9547  0.8199  1.3696
 8499TIP3    H246913   1.503   1.889   4.389 -0.7556 -0.5857 -0.9754
 8500TIP3   OH246914   2.955   4.484  15.268  0.4225 -0.3156  0.3218
 8500TIP3    H146915   2.942   4.528  15.352 -0.2029  0.1168  0.0048
 8500TIP3    H246916   3.005   4.546  15.215  2.3004 -1.2364  0.9017
 8501TIP3   OH246917   6.462   2.301  16.148  0.1548  0.0914  0.0247
 8501TIP3    H146918   6.474   2.347  16.065 -2.0133  1.1024  0.2135
 8501TIP3    H246919   6.416   2.221  16.126 -1.4660  0.8985  0.3140
 8502TIP3   OH246920   5.078   0.187  15.703 -0.4117 -0.0974  0.5476
 8502TIP3    H146921   5.131   0.143  15.770  1.1208  1.1028  0.1760
 8502TIP3    H246922   5.086   0.131  15.626 -0.8643 -0.6590  0.9057
 8503TIP3   OH246923   2.343   6.740  16.794  1.0720  0.2829 -0.3251
 8503TIP3    H146924   2.284   6.683  16.745  0.9190 -0.3048  0.5191
 8503TIP3    H246925   2.371   6.687  16.868  1.4165  1.0974  0.1385
 8504TIP3   OH246926   5.996   5.211  13.884  0.2508 -0.0332 -0.2110
 8504TIP3    H146927   6.003   5.268  13.808 -0.7871 -0.0635 -0.3443
 8504TIP3    H246928   5.914   5.164  13.871 -0.4659  0.7013  1.4200
 8505TIP3   OH246929   1.942   1.197  10.658  0.0552  0.1820 -0.2310
 8505TIP3    H146930   1.884   1.231  10.590  2.2043  2.3550 -1.1578
 8505TIP3    H246931   1.965   1.109  10.628 -1.3573 -0.0254 -0.7447
 8506TIP3   OH246932   3.371   4.107   1.361  0.1378 -0.5780  0.1797
 8506TIP3    H146933   3.351   4.184   1.308 -1.5256  0.0095  1.5468
 8506TIP3    H246934   3.403   4.042   1.298  3.6514  1.7948 -0.7630
 8507TIP3   OH246935   0.979   3.086   3.881 -0.8962  0.0321  0.1913
 8507TIP3    H146936   1.021   3.038   3.953  0.7113  0.8441 -0.1667
 8507TIP3    H246937   0.885   3.068   3.892 -0.5790 -0.8731  1.7375
 8508TIP3   OH246938   5.524   3.107   1.059  0.0029 -0.1477 -0.0586
 8508TIP3    H146939   5.580   3.037   1.026 -1.3310 -1.0890 -0.4099
 8508TIP3    H246940   5.580   3.184   1.062  0.6690 -0.4315 -2.8427
 8509TIP3   OH246941   0.055   0.351  12.919  0.1219 -0.2634 -0.5782
 8509TIP3    H146942   0.102   0.309  12.991  1.6116 -1.1235 -1.9832
 8509TIP3    H246943   0.117   0.414  12.883  0.0330 -1.0252 -2.1431
 8510TIP3   OH246944   4.391   0.937  11.744  0.6153 -0.0986 -0.5039
 8510TIP3    H146945   4.437   0.957  11.826  0.8860 -0.7869 -0.4845
 8510TIP3    H246946   4.315   0.995  11.745  0.4351 -0.3372  0.4009
 8511TIP3   OH246947   5.937   6.687  15.854 -0.6112  0.0682  0.2254
 8511TIP3    H146948   5.988   6.652  15.927 -2.1427 -1.6374  0.5756
 8511TIP3    H246949   5.979   6.650  15.776 -0.7506 -0.5610  0.4442
 8512TIP3   OH246950   4.025   0.969  12.941  0.0087 -0.4330 -0.1318
 8512TIP3    H146951   4.079   0.956  12.863  0.3654  1.2914 -0.2201
 8512TIP3    H246952   3.946   1.013  12.909 -0.0620 -0.1523  0.4080
 8513TIP3   OH246953   2.904   0.240  14.246  0.5592  0.0417 -0.2553
 8513TIP3    H146954   2.892   0.226  14.340  0.9653  0.0994 -0.1914
 8513TIP3    H246955   2.887   0.155  14.206  1.9519 -0.3951  0.0239
 8514TIP3   OH246956   6.114   1.030   2.103  0.4210 -0.3333 -0.2644
 8514TIP3    H146957   6.111   0.939   2.073 -1.3379 -1.6706  3.3821
 8514TIP3    H246958   6.046   1.074   2.053  0.0962 -1.4604 -0.8580
 8515TIP3   OH246959   5.380   2.262  14.327  0.9156 -0.1355  0.1829
 8515TIP3    H146960   5.441   2.218  14.386  0.7705  1.8864  1.9707
 8515TIP3    H246961   5.424   2.262  14.242  1.1313 -3.1472  0.1949
 8516TIP3   OH246962   6.567   5.613   2.927 -0.1700  0.4317  0.3905
 8516TIP3    H146963   6.615   5.558   2.864  0.3023  1.3817 -0.0939
 8516TIP3    H246964   6.631   5.630   2.996 -0.2995  0.4280  0.5118
 8517TIP3   OH246965   5.484   6.272  13.066  0.0002 -0.5347 -0.0376
 8517TIP3    H146966   5.551   6.268  13.134 -1.0651  1.9850  1.2872
 8517TIP3    H246967   5.404   6.245  13.111 -0.3636 -0.8056 -0.8454
 8518TIP3   OH246968   4.648   0.647   2.067 -0.5712  0.2100 -0.2340
 8518TIP3    H146969   4.668   0.614   1.979 -0.5461 -0.1201 -0.1071
 8518TIP3    H246970   4.566   0.604   2.091  0.6419 -1.6381  0.8804
 8519TIP3   OH246971   6.415   3.337  11.428 -0.1254 -0.0939  0.1626
 8519TIP3    H146972   6.379   3.251  11.406 -0.0397 -0.3948  1.1102
 8519TIP3    H246973   6.359   3.368  11.500  0.7607 -0.0279  0.8336
 8520TIP3   OH246974   1.627   1.363  16.776 -0.1068  0.4898 -0.2564
 8520TIP3    H146975   1.675   1.288  16.811 -1.3850  0.1620  0.8715
 8520TIP3    H246976   1.686   1.437  16.787  0.5627 -0.0857  0.0825
 8521TIP3   OH246977   0.615   3.054   1.559  0.4919 -0.0398 -0.3103
 8521TIP3    H146978   0.655   3.013   1.635 -0.7337 -1.3731 -0.3357
 8521TIP3    H246979   0.580   2.980   1.508 -1.4677  1.0096 -0.5521
 8522TIP3   OH246980   0.789   1.846   1.274 -0.7500  0.2971 -0.1999
 8522TIP3    H146981   0.877   1.876   1.253 -0.2503 -0.7257  0.3433
 8522TIP3    H246982   0.731   1.911   1.235  0.2636  1.9958  0.9916
 8523TIP3   OH246983   5.624   2.131   4.158 -0.1519 -0.0638  0.0078
 8523TIP3    H146984   5.602   2.042   4.185  0.5722 -0.5782 -1.0353
 8523TIP3    H246985   5.596   2.186   4.231 -3.1598 -0.8310 -0.4481
 8524TIP3   OH246986   2.488   3.113   1.567  0.2168  0.1678  0.6610
 8524TIP3    H146987   2.425   3.056   1.524 -0.3793  0.0625  1.6396
 8524TIP3    H246988   2.439   3.152   1.640  1.3873 -0.2081  1.6768
 8525TIP3   OH246989   5.881   3.851   2.680  0.0944 -0.1539  0.1117
 8525TIP3    H146990   5.947   3.820   2.619  1.0136  0.0474  0.9759
 8525TIP3    H246991   5.827   3.775   2.699  0.5394 -0.5031 -0.0249
 8526TIP3   OH246992   2.966   5.009  12.991  0.4621 -0.5686  0.0326
 8526TIP3    H146993   2.903   5.004  13.064  2.7784  0.2805  2.2479
 8526TIP3    H246994   2.913   4.992  12.913 -2.3552 -0.6148  1.7890
 8527TIP3   OH246995   5.698   6.727   3.675  0.1401 -0.4702  0.5222
 8527TIP3    H146996   5.635   6.753   3.742 -0.1770  1.4942 -0.4447
 8527TIP3    H246997   5.665   6.644   3.641 -0.4572 -0.7890  1.8096
 8528TIP3   OH246998   5.246   6.571  15.038  0.4631 -0.2830 -0.1453
 8528TIP3    H146999   5.169   6.540  14.990 -0.2789  0.9242  0.2289
 8528TIP3    H247000   5.276   6.494  15.086  0.5413 -1.2278 -1.6231
 8529TIP3   OH247001   4.788   1.681   2.713  0.4275  0.4233 -0.2530
 8529TIP3    H147002   4.799   1.642   2.627  0.7887 -1.1716  0.4760
 8529TIP3    H247003   4.847   1.631   2.770 -2.0585 -0.7112  1.5242
 8530TIP3   OH247004   1.465   4.342  16.705  0.8510  0.2440 -0.7564
 8530TIP3    H147005   1.451   4.409  16.772  1.4063 -1.1165  0.7843
 8530TIP3    H247006   1.559   4.322  16.710  0.5963 -1.0432 -0.7814
 8531TIP3   OH247007   6.691   2.461   0.426 -0.3802  1.0965 -0.8831
 8531TIP3    H147008   6.711   2.368   0.418  0.9124  1.4808 -2.7614
 8531TIP3    H247009   6.742   2.490   0.502  1.1444  0.7358 -1.7412
 8532TIP3   OH247010   5.051   5.922  14.603 -0.2329  0.0323  0.0709
 8532TIP3    H147011   5.110   5.930  14.678 -0.5683 -1.1891  0.4972
 8532TIP3    H247012   5.081   5.989  14.541  0.1138  0.9876  1.2404
 8533TIP3   OH247013   5.865   2.422   1.890 -0.0391  0.1826 -0.0510
 8533TIP3    H147014   5.823   2.508   1.887  3.1815  1.9017 -0.4001
 8533TIP3    H247015   5.911   2.421   1.974  1.0042 -0.6292 -0.6114
 8534TIP3   OH247016   0.415   2.773  12.023  0.5602 -0.4764 -0.1531
 8534TIP3    H147017   0.333   2.800  12.064  0.6953  0.9370 -0.7851
 8534TIP3    H247018   0.483   2.806  12.082  0.7151  0.0159 -0.6061
 8535TIP3   OH247019   2.976   4.786   0.391 -0.7373 -0.5365  0.8615
 8535TIP3    H147020   2.882   4.790   0.407 -0.6641  0.3014  1.0855
 8535TIP3    H247021   2.985   4.807   0.298 -0.7363 -0.2580  0.9263
 8536TIP3   OH247022   1.077   6.345   4.511 -0.1664 -0.3525 -0.3757
 8536TIP3    H147023   1.108   6.350   4.601 -0.0246 -0.3939 -0.4221
 8536TIP3    H247024   1.111   6.262   4.478  0.1841 -0.1161 -0.6171
 8537TIP3   OH247025   5.229   3.638   3.891  0.4320 -0.0912  0.0867
 8537TIP3    H147026   5.186   3.695   3.955 -0.4362  0.1886 -0.7215
 8537TIP3    H247027   5.166   3.630   3.819  1.7697  0.4007 -1.1904
 8538TIP3   OH247028   1.822   2.657  16.028 -0.2992 -0.6186 -0.1745
 8538TIP3    H147029   1.908   2.641  15.989  0.0533  2.6730 -1.1096
 8538TIP3    H247030   1.833   2.635  16.121  1.7332  0.0755 -0.1922
 8539TIP3   OH247031   5.708   6.249   3.154 -0.1951  0.3315 -0.3615
 8539TIP3    H147032   5.732   6.260   3.246 -2.2699  1.6512  0.0740
 8539TIP3    H247033   5.772   6.302   3.107 -0.7209  1.8413  0.5630
 8540TIP3   OH247034   5.785   1.709   4.162  0.0801  0.3413  0.3563
 8540TIP3    H147035   5.713   1.652   4.132 -0.7403  1.2617  0.5293
 8540TIP3    H247036   5.849   1.648   4.201 -0.5405 -0.5081  0.0858
 8541TIP3   OH247037   3.046   6.607   4.408 -0.1248  0.3078 -0.0718
 8541TIP3    H147038   3.086   6.585   4.323  2.4390 -0.5869  1.2435
 8541TIP3    H247039   3.115   6.654   4.455 -2.7113  4.1723  0.2883
 8542TIP3   OH247040   5.444   0.150   2.330  0.2508  0.2877  0.3139
 8542TIP3    H147041   5.475   0.061   2.311  0.5093  0.8536 -2.2602
 8542TIP3    H247042   5.432   0.151   2.425  0.7293 -2.3276  0.4870
 8543TIP3   OH247043   3.542   6.586   2.118  0.2194  0.3032  0.7825
 8543TIP3    H147044   3.580   6.612   2.202  0.1029  0.1724  0.8773
 8543TIP3    H247045   3.572   6.496   2.105  0.7023  0.5129  0.4095
 8544TIP3   OH247046   0.343   6.438   3.698 -0.1728  0.6014  0.2447
 8544TIP3    H147047   0.405   6.366   3.694 -1.1659 -0.2246 -1.2615
 8544TIP3    H247048   0.333   6.456   3.791 -0.1458 -1.4138  0.6772
 8545TIP3   OH247049   4.594   5.027  13.242 -0.3464 -0.4022 -0.2693
 8545TIP3    H147050   4.664   5.022  13.307 -1.2563  0.2346  0.7888
 8545TIP3    H247051   4.518   4.987  13.284 -0.9899  0.1222 -0.8965
 8546TIP3   OH247052   1.761   4.805   1.313 -0.2425  0.7768 -0.1670
 8546TIP3    H147053   1.747   4.739   1.381 -2.5728 -0.1307 -1.4246
 8546TIP3    H247054   1.757   4.889   1.360  1.4909  0.1092  1.2581
 8547TIP3   OH247055   6.214   5.130  14.958 -0.0978  0.4138  0.5093
 8547TIP3    H147056   6.221   5.171  14.871 -1.6049  2.9530  1.4727
 8547TIP3    H247057   6.121   5.115  14.971 -0.3309  3.0706  2.8633
 8548TIP3   OH247058   6.029   0.496  12.421 -0.0561 -0.5870 -0.4772
 8548TIP3    H147059   5.943   0.534  12.406 -0.1469 -0.3126  0.6502
 8548TIP3    H247060   6.086   0.571  12.438  0.2162 -0.8236 -0.3378
 8549TIP3   OH247061   1.067   0.146  16.071  0.0270  0.6152 -0.0687
 8549TIP3    H147062   1.046   0.176  16.160  0.2106  0.2006  0.1195
 8549TIP3    H247063   1.032   0.214  16.014 -1.3534  0.2051  0.2556
 8550TIP3   OH247064   6.137   2.352  14.442 -0.3785 -0.0009  0.6783
 8550TIP3    H147065   6.187   2.271  14.453 -0.5742  0.1595  4.0102
 8550TIP3    H247066   6.181   2.399  14.371  1.5068 -1.7673  0.6001
 8551TIP3   OH247067   6.475   0.060  11.000  0.4494  0.2333  0.3613
 8551TIP3    H147068   6.544   0.030  10.940 -0.1886  0.2214 -0.3801
 8551TIP3    H247069   6.394   0.025  10.964 -0.0423  0.8876  0.7924
 8552TIP3   OH247070   0.644   5.544  13.635 -0.2664 -0.5675 -0.1610
 8552TIP3    H147071   0.689   5.622  13.605 -1.7143  0.0641 -0.8125
 8552TIP3    H247072   0.713   5.485  13.663  0.8585  0.9670  0.4065
 8553TIP3   OH247073   5.641   4.180  15.079  0.3655 -0.3454 -0.3119
 8553TIP3    H147074   5.679   4.103  15.121 -0.3189 -1.8034 -2.2073
 8553TIP3    H247075   5.550   4.181  15.108  0.6515  0.4542  0.6084
 8554TIP3   OH247076   5.774   0.736   2.088  0.0979  0.0986 -0.4345
 8554TIP3    H147077   5.762   0.739   1.993 -0.3753 -0.5375 -0.4006
 8554TIP3    H247078   5.855   0.785   2.104 -0.4190  1.1949 -1.0504
 8555TIP3   OH247079   0.940   5.975  15.631  0.4608  0.7378  0.8220
 8555TIP3    H147080   0.965   5.889  15.665  0.6002 -0.0847 -1.2347
 8555TIP3    H247081   0.880   6.011  15.697  1.2280 -0.4649  2.2193
 8556TIP3   OH247082   3.757   1.154   3.501  0.1635  0.5955  0.3689
 8556TIP3    H147083   3.759   1.150   3.406  1.1241  0.6349  0.3835
 8556TIP3    H247084   3.666   1.180   3.522  0.1244  1.2547 -0.5516
 8557TIP3   OH247085   5.478   4.887   5.841 -0.0550 -0.5988  0.6508
 8557TIP3    H147086   5.533   4.820   5.880  0.4607 -0.8974 -0.5179
 8557TIP3    H247087   5.483   4.870   5.747 -2.3965 -0.8054  0.5049
 8558TIP3   OH247088   6.680   1.577  11.921 -0.2937  0.0172  0.4686
 8558TIP3    H147089   6.729   1.592  12.002 -0.5301 -0.3634  0.6853
 8558TIP3    H247090   6.601   1.630  11.931 -0.8711 -0.9058  0.9990
 8559TIP3   OH247091   4.574   3.250   5.503 -0.1109 -0.4453 -0.0684
 8559TIP3    H147092   4.604   3.313   5.438 -1.6710  1.8518  1.2791
 8559TIP3    H247093   4.600   3.288   5.587 -0.3268 -2.0720  0.7766
 8560TIP3   OH247094   2.959   3.260   5.196 -0.3897 -0.6189  0.3635
 8560TIP3    H147095   2.985   3.193   5.260 -0.1955 -0.5800  0.3247
 8560TIP3    H247096   2.901   3.318   5.246  1.1258  0.4033  0.9889
 8561TIP3   OH247097   2.920   4.889   2.987  0.1336 -0.2574 -0.4664
 8561TIP3    H147098   2.835   4.914   3.024  0.1200 -0.7971 -0.1255
 8561TIP3    H247099   2.957   4.829   3.052  0.2189 -1.0213 -1.2174
 8562TIP3   OH247100   3.642   0.593  11.734 -0.1014  0.0198  0.1609
 8562TIP3    H147101   3.733   0.584  11.708 -0.2733 -0.1278 -0.3907
 8562TIP3    H247102   3.606   0.505  11.725 -0.1545 -0.0489  0.9413
 8563TIP3   OH247103   1.521   6.376   1.763  0.0447  0.0519 -0.2330
 8563TIP3    H147104   1.556   6.461   1.790 -1.2252  0.1411  1.2747
 8563TIP3    H247105   1.482   6.392   1.678 -0.4269  1.0661  0.1638
 8564TIP3   OH247106   5.154   2.960   5.656 -0.5231  1.0188  0.3356
 8564TIP3    H147107   5.105   3.042   5.666 -4.3982 -0.7300 -1.9035
 8564TIP3    H247108   5.087   2.891   5.659  2.1454 -1.8747 -0.6904
 8565TIP3   OH247109   0.409   2.171  12.664  0.3733 -0.0305  0.1652
 8565TIP3    H147110   0.354   2.181  12.586  2.0534 -1.0024 -1.2169
 8565TIP3    H247111   0.362   2.218  12.732 -1.3377  0.5811 -1.3452
 8566TIP3   OH247112   3.166   0.748  11.844  0.4359  0.1719  0.3821
 8566TIP3    H147113   3.238   0.692  11.815  1.1265  0.3149  1.7385
 8566TIP3    H247114   3.206   0.807  11.909 -0.1109  2.6592 -1.3858
 8567TIP3   OH247115   2.051   2.091   0.845 -0.5595  0.0952 -0.2072
 8567TIP3    H147116   2.116   2.100   0.914 -2.9105 -0.5121  2.3022
 8567TIP3    H247117   2.078   2.153   0.778  2.2625  0.2286  0.9055
 8568TIP3   OH247118   1.213   4.171  16.928 -0.0490  0.8973  0.1436
 8568TIP3    H147119   1.285   4.114  16.955 -0.0807  0.2027 -1.1680
 8568TIP3    H247120   1.254   4.239  16.875  0.1061  2.6571  2.3517
 8569TIP3   OH247121   3.403   4.165   6.746 -0.2241 -0.4284 -0.1726
 8569TIP3    H147122   3.490   4.145   6.710  0.0020 -2.1190  1.1800
 8569TIP3    H247123   3.361   4.080   6.755 -1.8164  0.3226 -0.2535
 8570TIP3   OH247124   5.178   0.728  16.483  0.3127  0.0218  0.8727
 8570TIP3    H147125   5.112   0.660  16.474  0.7567 -0.2783 -0.2619
 8570TIP3    H247126   5.261   0.681  16.495  0.9030  0.2509 -1.7063
 8571TIP3   OH247127   0.076   2.321   5.725 -0.6985 -0.0321 -0.0126
 8571TIP3    H147128   0.146   2.378   5.757 -1.2236  1.2595 -1.0739
 8571TIP3    H247129   0.101   2.233   5.756  1.4085  0.3673 -0.4014
 8572TIP3   OH247130   5.450   2.714  12.836  0.1896  0.1614 -0.0551
 8572TIP3    H147131   5.447   2.807  12.858  0.9832 -0.3951  2.9184
 8572TIP3    H247132   5.487   2.711  12.749 -0.0165  2.6235 -0.3068
 8573TIP3   OH247133   0.030   1.362  14.431 -0.0698 -0.0156 -0.2484
 8573TIP3    H147134   0.114   1.360  14.386 -0.6770  0.1800 -1.4440
 8573TIP3    H247135  -0.031   1.398  14.366 -0.8874  0.7798  0.9145
 8574TIP3   OH247136   0.908   1.116  16.779 -0.0818  0.0104 -0.1635
 8574TIP3    H147137   0.902   1.068  16.862  1.9779  0.0897  0.0728
 8574TIP3    H247138   0.866   1.201  16.798  2.5160  1.0075  1.6233
 8575TIP3   OH247139   4.063   6.614   4.327 -0.0887 -0.7334 -0.6369
 8575TIP3    H147140   4.018   6.555   4.266 -0.8663 -1.4290  0.5739
 8575TIP3    H247141   4.050   6.574   4.413 -0.7053  1.2471  0.2314
 8576TIP3   OH247142   0.699   1.751  14.360  0.7544 -0.2237 -0.0559
 8576TIP3    H147143   0.658   1.800  14.288  2.2515  0.8215 -0.2538
 8576TIP3    H247144   0.789   1.786  14.365 -0.0811  2.0840  4.3249
 8577TIP3   OH247145   1.677   0.973  10.603 -0.0323 -0.2490 -0.1821
 8577TIP3    H147146   1.771   0.968  10.585 -0.4019  0.9080 -2.9683
 8577TIP3    H247147   1.669   0.956  10.697  3.0375  0.4844  0.2994
 8578TIP3   OH247148   1.437   0.707  11.527 -0.0962 -0.2572 -0.1725
 8578TIP3    H147149   1.446   0.666  11.441 -1.2448 -0.8812 -0.0144
 8578TIP3    H247150   1.513   0.765  11.534 -0.3437  0.3048 -1.8641
 8579TIP3   OH247151   4.319   4.866  16.593 -0.3497 -0.0601  0.0724
 8579TIP3    H147152   4.362   4.786  16.563 -0.4475  0.8758 -2.9652
 8579TIP3    H247153   4.230   4.838  16.615 -0.1705 -0.9171 -0.2331
 8580TIP3   OH247154   1.423   5.887  10.970  0.5496  0.2382 -0.2559
 8580TIP3    H147155   1.431   5.959  10.908 -0.7395  0.5286 -0.1150
 8580TIP3    H247156   1.506   5.886  11.017  1.2878  0.4412 -1.5137
 8581TIP3   OH247157   3.750   3.636  10.690 -0.4274 -0.2881  0.4128
 8581TIP3    H147158   3.772   3.558  10.740 -1.2455  1.0015  2.9456
 8581TIP3    H247159   3.673   3.611  10.638 -0.1486 -1.3809  0.5066
 8582TIP3   OH247160   3.842   4.965  11.479  0.4997 -0.2051  0.0839
 8582TIP3    H147161   3.858   5.032  11.412  1.9046 -0.3270  0.2662
 8582TIP3    H247162   3.899   4.989  11.552 -1.9615  0.6626  1.8377
 8583TIP3   OH247163   0.883   1.844  16.724 -0.5600  0.6451  0.3849
 8583TIP3    H147164   0.885   1.923  16.670  2.3907  0.5077  0.1287
 8583TIP3    H247165   0.862   1.874  16.812 -0.7216  1.5347  0.0438
 8584TIP3   OH247166   0.909   5.122  12.000 -0.1295  0.4366  0.2111
 8584TIP3    H147167   0.881   5.065  12.071 -0.7233  0.6174  0.1297
 8584TIP3    H247168   0.966   5.187  12.041  0.0711  0.1436  0.4017
 8585TIP3   OH247169   5.138   0.884   1.699 -0.8878 -0.0369  0.2727
 8585TIP3    H147170   5.175   0.896   1.611  0.5582 -1.6620  0.6020
 8585TIP3    H247171   5.154   0.967   1.743  0.9516 -0.1269 -0.1367
 8586TIP3   OH247172   5.015   0.997   5.959  0.0358 -0.3947 -0.4422
 8586TIP3    H147173   5.030   1.091   5.950  0.9484 -0.6184 -1.5389
 8586TIP3    H247174   4.922   0.985   5.939 -0.3863  0.4029  0.9407
 8587TIP3   OH247175   1.778   0.452  13.494 -0.1298 -0.1379 -0.3694
 8587TIP3    H147176   1.859   0.413  13.460 -0.0357  0.4668 -0.8569
 8587TIP3    H247177   1.778   0.431  13.587  1.7641  1.8224  0.1556
 8588TIP3   OH247178   3.508   1.367  17.076  0.2484  0.0349 -0.0905
 8588TIP3    H147179   3.551   1.288  17.107  0.2855 -0.4074 -1.2072
 8588TIP3    H247180   3.574   1.409  17.021 -0.6981 -0.6438 -1.8155
 8589TIP3   OH247181   1.018   4.018  15.941 -0.6945 -0.0127 -0.0992
 8589TIP3    H147182   0.951   3.950  15.928 -1.2855  0.7256 -1.0917
 8589TIP3    H247183   1.099   3.969  15.953 -1.2453 -0.9131  0.1151
 8590TIP3   OH247184   3.380   4.130   3.841  0.0970  0.5915 -0.1677
 8590TIP3    H147185   3.316   4.200   3.849 -0.5282 -0.0855  0.9881
 8590TIP3    H247186   3.407   4.132   3.749 -1.0902  1.3028 -0.5154
 8591TIP3   OH247187   1.442   2.623   6.479 -0.5950  0.0622 -0.0007
 8591TIP3    H147188   1.383   2.603   6.406  0.0180 -4.0035  0.3674
 8591TIP3    H247189   1.529   2.597   6.447  0.1832  1.0908  1.1841
 8592TIP3   OH247190   6.607   0.645  14.568 -0.7131 -0.0583  0.1775
 8592TIP3    H147191   6.690   0.651  14.522  0.0166 -2.2680  1.0210
 8592TIP3    H247192   6.605   0.722  14.625  0.5313  0.2889 -0.2128
 8593TIP3   OH247193   6.513   0.206  10.700 -0.1117 -0.1735 -0.4748
 8593TIP3    H147194   6.548   0.138  10.757  0.8006 -0.3523 -1.2105
 8593TIP3    H247195   6.445   0.163  10.649 -0.8212 -0.0514  0.3587
 8594TIP3   OH247196   4.826   0.813   3.819  0.1081  0.1914 -0.6006
 8594TIP3    H147197   4.811   0.731   3.866  1.5363 -0.0596 -0.5457
 8594TIP3    H247198   4.846   0.785   3.729 -1.6869  0.6212 -1.1892
 8595TIP3   OH247199   5.686   5.158   6.056 -0.4503  0.0545  1.0609
 8595TIP3    H147200   5.740   5.219   6.107  1.4409 -1.1510  0.5983
 8595TIP3    H247201   5.618   5.129   6.117  1.2013 -0.6417  2.6726
 8596TIP3   OH247202   6.518   6.347   0.801 -0.7628  0.4935  0.1104
 8596TIP3    H147203   6.549   6.287   0.733 -1.1814 -0.9459  1.1546
 8596TIP3    H247204   6.476   6.418   0.752  0.5115  0.4113 -1.1796
 8597TIP3   OH247205   5.367   6.607   1.506  0.1175  0.1767 -0.3916
 8597TIP3    H147206   5.326   6.524   1.479  0.6844  0.2289 -1.4704
 8597TIP3    H247207   5.461   6.591   1.497  0.2169  1.2006 -1.4723
 8598TIP3   OH247208   2.990   5.835   2.444 -0.1090  0.3927  0.2522
 8598TIP3    H147209   3.013   5.911   2.390 -0.1695 -0.2839 -0.7385
 8598TIP3    H247210   3.048   5.841   2.519  0.4630  0.9594 -0.2211
 8599TIP3   OH247211   6.644   6.435  12.493 -0.3248  0.2032  0.2862
 8599TIP3    H147212   6.615   6.407  12.580  0.0673  0.0507  0.3669
 8599TIP3    H247213   6.666   6.354  12.447  3.6539  0.3813  1.4970
 8600TIP3   OH247214   2.307   2.254  11.508  0.0511 -0.1164 -0.0571
 8600TIP3    H147215   2.257   2.282  11.585 -2.3466  0.1413 -1.5765
 8600TIP3    H247216   2.396   2.285  11.523 -0.7664  1.4944  1.8035
 8601TIP3   OH247217   2.926   0.673  11.152 -0.0629 -0.4536  0.0512
 8601TIP3    H147218   2.865   0.631  11.092  0.1467  1.1376 -1.3487
 8601TIP3    H247219   3.012   0.664  11.110  0.2339 -0.1743  0.5789
 8602TIP3   OH247220   0.452   5.527  16.503 -0.9791  0.5071 -0.2617
 8602TIP3    H147221   0.386   5.595  16.491 -1.2733  0.5672  1.4459
 8602TIP3    H247222   0.531   5.563  16.461 -1.4863  1.3077 -0.5550
 8603TIP3   OH247223   6.137   6.652  16.035  0.2470 -0.3423 -0.0650
 8603TIP3    H147224   6.213   6.596  16.053  1.2015  1.3923  1.6378
 8603TIP3    H247225   6.173   6.738  16.018 -1.3236  0.6464  1.2434
 8604TIP3   OH247226   3.961   6.699  11.666  0.3768  0.5037  0.1245
 8604TIP3    H147227   4.045   6.744  11.671 -0.0964  1.5620 -1.0457
 8604TIP3    H247228   3.958   6.663  11.578  0.2663 -0.9392  0.6761
 8605TIP3   OH247229   5.038   3.289   1.358 -0.0010 -0.5015  0.0047
 8605TIP3    H147230   5.037   3.320   1.449 -2.9180 -1.6679  0.4570
 8605TIP3    H247231   4.972   3.343   1.314  0.0505 -1.2184 -0.9681
 8606TIP3   OH247232   6.259   3.394  15.488 -0.1534  0.4645  0.4287
 8606TIP3    H147233   6.240   3.385  15.394  0.9539  1.4093  0.0913
 8606TIP3    H247234   6.188   3.448  15.522 -1.3768 -1.0856  0.4676
 8607TIP3   OH247235   5.726   1.438  15.083 -0.3915 -0.4113 -0.8213
 8607TIP3    H147236   5.666   1.510  15.062 -0.7464 -0.6326 -0.5815
 8607TIP3    H247237   5.813   1.477  15.076 -0.5625 -0.0694 -1.1173
 8608TIP3   OH247238   6.155   5.055   3.290 -0.1775  0.4376  0.2260
 8608TIP3    H147239   6.245   5.026   3.301  0.0478  1.4841  1.2659
 8608TIP3    H247240   6.114   5.041   3.375 -0.9715  0.1074 -0.1969
 8609TIP3   OH247241   3.907   0.754  15.521  0.0767 -0.3040  0.2883
 8609TIP3    H147242   3.880   0.715  15.438  0.6321 -2.1811  0.9400
 8609TIP3    H247243   3.997   0.723  15.534  0.2038  0.4430  1.3088
 8610TIP3   OH247244   1.830   2.716   1.275 -0.0354  0.2372 -0.1988
 8610TIP3    H147245   1.757   2.768   1.241 -0.3400 -0.7737 -1.1537
 8610TIP3    H247246   1.882   2.694   1.198  1.8273  1.7024  0.5619
 8611TIP3   OH247247   3.868   0.523   3.844 -0.2639  0.3008 -0.1790
 8611TIP3    H147248   3.937   0.458   3.858  1.6622  2.7299  2.8498
 8611TIP3    H247249   3.800   0.499   3.907 -1.1599 -0.6579 -1.4543
 8612TIP3   OH247250   2.962   5.074   6.348  0.3502  0.2404  0.5213
 8612TIP3    H147251   2.974   5.166   6.327 -1.0677  0.4864  0.7119
 8612TIP3    H247252   2.905   5.073   6.425  0.3407 -0.7942  0.5230
 8613TIP3   OH247253   6.626   1.449  11.288  0.4240  0.2325  0.5369
 8613TIP3    H147254   6.641   1.392  11.363  3.8764 -0.8809 -0.7904
 8613TIP3    H247255   6.573   1.396  11.228 -0.7920  0.4523  1.3766
 8614TIP3   OH247256   0.535   6.743  12.984  0.0133 -0.5917  0.0809
 8614TIP3    H147257   0.464   6.711  12.927 -0.7290  1.4444 -0.2065
 8614TIP3    H247258   0.517   6.703  13.069 -3.3368  2.0741  0.8564
 8615TIP3   OH247259   2.782   4.494  14.206 -0.0596  0.2801 -0.6488
 8615TIP3    H147260   2.736   4.578  14.216 -1.4129 -0.5202  0.1685
 8615TIP3    H247261   2.722   4.439  14.156 -0.1049 -0.8506  0.5968
 8616TIP3   OH247262   0.254   1.462  16.357 -0.0573  0.6086 -0.3849
 8616TIP3    H147263   0.201   1.388  16.326  1.8660 -0.7211 -0.6526
 8616TIP3    H247264   0.292   1.500  16.278  2.8253 -1.2183 -0.0403
 8617TIP3   OH247265   5.252   5.550   0.170  0.3144 -0.3633 -0.1858
 8617TIP3    H147266   5.229   5.542   0.263  4.7823 -0.0346  1.1893
 8617TIP3    H247267   5.219   5.636   0.144 -0.3034 -0.1078  1.3203
 8618TIP3   OH247268   0.631   1.033  12.163 -0.3220  0.3424 -0.1521
 8618TIP3    H147269   0.610   1.103  12.225  1.0693  1.1311 -0.5156
 8618TIP3    H247270   0.674   1.078  12.090 -0.2120 -0.7944 -0.8108
 8619TIP3   OH247271   4.613   2.942   5.481  0.2470  0.0783 -0.1775
 8619TIP3    H147272   4.593   3.035   5.492  0.2966  0.0762 -0.0610
 8619TIP3    H247273   4.594   2.924   5.389 -1.3898 -0.1944  0.1824
 8620TIP3   OH247274   1.091   3.933  10.885  0.1554  0.0368  0.5034
 8620TIP3    H147275   1.056   3.961  10.800  0.3193  1.5682  0.9187
 8620TIP3    H247276   1.183   3.912  10.867 -0.2198 -1.2719 -0.0136
 8621TIP3   OH247277   2.754   6.707  16.584  0.0676  0.2009  0.0854
 8621TIP3    H147278   2.760   6.742  16.495  0.0146  1.1387  0.4308
 8621TIP3    H247279   2.809   6.629  16.584  0.6015  0.5674 -0.5986
 8622TIP3   OH247280   3.772   4.474  12.303  0.2574  0.9883  0.0969
 8622TIP3    H147281   3.727   4.406  12.253 -0.1301  2.2412 -1.3077
 8622TIP3    H247282   3.823   4.425  12.369 -0.0122 -0.6477 -0.8520
 8623TIP3   OH247283   5.728   6.364  12.250  0.1270  0.1494  0.1594
 8623TIP3    H147284   5.654   6.304  12.257 -1.2188  1.7924  0.6189
 8623TIP3    H247285   5.725   6.395  12.160 -0.2480  0.8076  0.3903
 8624TIP3   OH247286   6.580   0.724   1.368 -0.4099 -0.1112  0.3959
 8624TIP3    H147287   6.665   0.725   1.412 -0.9118 -0.6225  1.4253
 8624TIP3    H247288   6.517   0.705   1.438 -1.1161 -2.4177 -0.7650
 8625TIP3   OH247289   4.241   6.720   3.204 -0.4878  0.1185 -0.3676
 8625TIP3    H147290   4.237   6.648   3.141  0.3065  0.0728 -0.3738
 8625TIP3    H247291   4.225   6.679   3.289 -0.9005  0.0743 -0.4661
 8626TIP3   OH247292   3.481   6.618  16.953  0.1411 -0.5608  0.0608
 8626TIP3    H147293   3.481   6.671  16.874 -1.4400  0.5038  0.7221
 8626TIP3    H247294   3.450   6.532  16.924  0.1296 -0.3510 -0.5702
 8627TIP3   OH247295   6.227   2.546   5.492 -0.5119  0.1720 -0.3754
 8627TIP3    H147296   6.202   2.629   5.534 -1.3095 -0.3684  0.2391
 8627TIP3    H247297   6.265   2.494   5.563  2.0871  0.8250 -1.2137
 8628TIP3   OH247298   4.805   2.013  16.365  0.3642 -0.5855  0.7422
 8628TIP3    H147299   4.801   2.105  16.342 -1.0945 -0.9203 -0.5500
 8628TIP3    H247300   4.774   1.967  16.287  0.3698 -2.1347  1.5969
 8629TIP3   OH247301   5.909   0.107  17.230 -0.0124 -0.2147 -0.1477
 8629TIP3    H147302   5.884   0.046  17.300 -0.9841 -2.1270 -2.0524
 8629TIP3    H247303   6.005   0.107  17.232 -0.0137 -0.9593  0.5901
 8630TIP3   OH247304   0.295   2.015   3.507 -0.2608  0.4897 -0.3777
 8630TIP3    H147305   0.316   1.971   3.589 -1.3874  0.9048  0.1436
 8630TIP3    H247306   0.373   2.067   3.488  1.3846 -2.1081 -1.3343
 8631TIP3   OH247307   3.776   6.242   1.136  0.2448  0.1602 -0.3200
 8631TIP3    H147308   3.773   6.307   1.066  0.7537 -0.4897 -0.9549
 8631TIP3    H247309   3.827   6.285   1.206  0.5830  0.4439 -0.7375
 8632TIP3   OH247310   4.693   2.873  10.445 -0.4608  0.0349 -0.6559
 8632TIP3    H147311   4.780   2.873  10.406 -0.4226 -0.5076 -0.5798
 8632TIP3    H247312   4.669   2.780  10.449 -0.2000  0.0152  1.2184
 8633TIP3   OH247313   1.749   1.966   2.797 -0.0368  0.1567 -0.0135
 8633TIP3    H147314   1.693   2.027   2.749 -0.4330  1.4481  1.9741
 8633TIP3    H247315   1.688   1.906   2.840  0.1221  0.8066  1.1613
 8634TIP3   OH247316   1.984   4.876   4.443 -0.3389 -0.9334  0.4517
 8634TIP3    H147317   1.978   4.949   4.504  1.9238  0.9285 -1.3091
 8634TIP3    H247318   2.063   4.829   4.470 -1.8947 -2.9994  1.7059
 8635TIP3   OH247319   0.710   1.085   3.370 -0.6960  0.3002  0.2405
 8635TIP3    H147320   0.806   1.082   3.371 -0.6394  1.5650 -0.0156
 8635TIP3    H247321   0.684   1.006   3.323  0.1272 -1.3785  2.4311
 8636TIP3   OH247322   2.783   4.008  13.776 -0.3814  0.5181  0.4078
 8636TIP3    H147323   2.820   4.068  13.711  0.5621 -0.9795 -0.4983
 8636TIP3    H247324   2.698   4.046  13.799 -0.2644  1.6417 -0.9037
 8637TIP3   OH247325   5.912   5.427  11.980  0.6445  0.1817 -0.0137
 8637TIP3    H147326   5.914   5.353  12.040  0.3481  0.5122  0.4101
 8637TIP3    H247327   5.937   5.502  12.033  1.5384  0.2998 -0.5781
 8638TIP3   OH247328   5.144   2.673  12.465  0.2299 -0.1310  0.2957
 8638TIP3    H147329   5.112   2.638  12.549 -1.2202  0.8935  0.2183
 8638TIP3    H247330   5.156   2.767  12.482  1.2357 -0.1545 -0.2786
 8639TIP3   OH247331   0.449   1.915   3.150  0.3528 -0.0130 -0.0748
 8639TIP3    H147332   0.403   1.847   3.200  0.3328 -0.3371 -0.5335
 8639TIP3    H247333   0.440   1.994   3.204  0.6155 -0.4286  0.5981
 8640TIP3   OH247334   0.931   2.624   5.072  0.1381  0.1273 -0.4239
 8640TIP3    H147335   0.870   2.551   5.063  0.3708 -0.1656  0.2532
 8640TIP3    H247336   0.907   2.666   5.155 -0.2863  1.1102 -1.0242
 8641TIP3   OH247337   3.506   2.356   1.843 -0.0511  0.5346 -0.0648
 8641TIP3    H147338   3.587   2.397   1.813 -1.8228  4.7602  0.0927
 8641TIP3    H247339   3.464   2.326   1.763  1.1401 -0.6938 -0.2571
 8642TIP3   OH247340   0.395   5.244  13.490 -0.1785  0.0510  0.0634
 8642TIP3    H147341   0.419   5.255  13.398  2.3398 -2.4537  0.2758
 8642TIP3    H247342   0.476   5.219  13.534 -1.2576  1.2438  3.0478
 8643TIP3   OH247343   5.390   3.188   4.387 -0.2411 -0.1275  0.4162
 8643TIP3    H147344   5.384   3.136   4.467 -0.1500 -1.1901 -0.2550
 8643TIP3    H247345   5.483   3.186   4.364 -0.5496 -1.6264 -0.8585
 8644TIP3   OH247346   5.954   6.601   3.075 -0.1409  0.5739  0.1127
 8644TIP3    H147347   5.982   6.666   3.139 -0.6828  0.6281  0.2956
 8644TIP3    H247348   5.878   6.640   3.032 -1.1024 -0.3561  0.9333
 8645TIP3   OH247349   1.853   1.407  13.166 -0.3910  0.2819  0.0194
 8645TIP3    H147350   1.866   1.489  13.214 -0.1815  0.6288 -0.6232
 8645TIP3    H247351   1.823   1.434  13.079 -0.6716 -0.3389 -0.0819
 8646TIP3   OH247352   0.464   1.172   2.325 -0.5721 -0.0251 -0.9229
 8646TIP3    H147353   0.398   1.110   2.356 -0.4277  0.0911 -0.3700
 8646TIP3    H247354   0.509   1.126   2.254 -0.5928 -0.4870 -0.6438
 8647TIP3   OH247355   4.936   6.517  13.293 -0.5289  0.2979 -0.5620
 8647TIP3    H147356   4.866   6.519  13.227 -1.9932 -2.6453  0.7084
 8647TIP3    H247357   4.897   6.562  13.369 -1.0364 -1.1877  0.0871
 8648TIP3   OH247358   6.722   5.134  15.242 -0.1566  0.3856  0.1403
 8648TIP3    H147359   6.789   5.156  15.178  0.1558 -1.6758 -0.2993
 8648TIP3    H247360   6.639   5.157  15.199 -0.2566 -3.9616 -2.6098
 8649TIP3   OH247361   2.092   6.080  13.396  0.3556  0.3686 -0.5537
 8649TIP3    H147362   2.034   6.149  13.428 -0.7943 -1.0826  0.6363
 8649TIP3    H247363   2.166   6.080  13.457 -0.7277 -0.8699  0.8427
 8650TIP3   OH247364   2.048   1.401   4.951 -0.4961  0.5252 -0.9192
 8650TIP3    H147365   2.133   1.386   4.992 -0.9922 -1.2617 -0.4422
 8650TIP3    H247366   2.023   1.316   4.914 -2.2264  0.8865 -0.7086
 8651TIP3   OH247367   4.350   3.878   1.704  0.3551 -0.4368 -0.1450
 8651TIP3    H147368   4.368   3.821   1.628 -1.6447  1.3476 -2.1156
 8651TIP3    H247369   4.258   3.903   1.693 -0.4361 -1.1172  3.6645
 8652TIP3   OH247370   0.106   0.995  15.206  0.3792  0.4817 -0.0726
 8652TIP3    H147371   0.039   1.002  15.138  1.7805 -0.4371 -1.6332
 8652TIP3    H247372   0.064   0.947  15.276 -0.7489  0.3616 -0.8085
 8653TIP3   OH247373   4.712   2.394   2.938 -0.0293 -0.5427 -0.3181
 8653TIP3    H147374   4.806   2.412   2.941 -0.2140  0.4297  0.0607
 8653TIP3    H247375   4.691   2.388   2.845  0.3376 -0.3611 -0.4135
 8654TIP3   OH247376   2.915   6.262   5.883 -0.3999 -0.2337  1.1173
 8654TIP3    H147377   2.984   6.329   5.881  0.3201 -0.9581 -0.0154
 8654TIP3    H247378   2.833   6.311   5.874  0.1016  0.5214  0.5165
 8655TIP3   OH247379   4.955   4.054   1.278  0.0625  0.4735  0.1018
 8655TIP3    H147380   4.927   4.143   1.255 -2.3085 -0.0655  0.5693
 8655TIP3    H247381   5.027   4.067   1.340 -1.5989  2.1539  1.8353
 8656TIP3   OH247382   3.369   2.389   4.796 -0.1796 -0.0850 -0.4559
 8656TIP3    H147383   3.464   2.383   4.793 -0.0911 -0.6967  1.6170
 8656TIP3    H247384   3.341   2.379   4.705  1.6869 -0.6911 -1.0126
 8657TIP3   OH247385   6.265   5.105   5.825 -0.3166 -0.2769  0.2996
 8657TIP3    H147386   6.295   5.192   5.799 -0.6414 -0.4279 -0.6114
 8657TIP3    H247387   6.304   5.046   5.761  0.0496 -0.8319  1.0223
 8658TIP3   OH247388   3.358   0.376   4.240 -0.1839 -0.5913 -0.2563
 8658TIP3    H147389   3.330   0.305   4.182  0.4632 -1.1510  0.0882
 8658TIP3    H247390   3.281   0.432   4.249 -0.7233 -1.2778 -0.4922
 8659TIP3   OH247391   4.866   0.685   2.216 -0.5653 -0.5653 -0.4579
 8659TIP3    H147392   4.789   0.671   2.162  0.2438 -0.2574 -1.7444
 8659TIP3    H247393   4.890   0.597   2.247 -0.9596 -0.7646 -0.7182
 8660TIP3   OH247394   2.230   2.682  16.258 -0.0701  0.0257  0.2972
 8660TIP3    H147395   2.267   2.708  16.174  0.5794  0.9788  0.8615
 8660TIP3    H247396   2.302   2.639  16.304 -0.0388  0.6820  0.8745
 8661TIP3   OH247397   3.306   6.112   1.887 -0.8611  0.1752 -0.0402
 8661TIP3    H147398   3.401   6.114   1.898 -0.5476  1.3554 -2.3700
 8661TIP3    H247399   3.276   6.192   1.932 -0.7139  0.0336  0.3154
 8662TIP3   OH247400   5.273   3.805  16.474 -0.0410 -0.4683 -0.1079
 8662TIP3    H147401   5.219   3.857  16.414  0.9099 -2.1388 -2.5705
 8662TIP3    H247402   5.362   3.840  16.462  0.1108 -0.5461  0.7089
 8663TIP3   OH247403   3.150   3.079   5.024  0.2141 -0.2811  0.2082
 8663TIP3    H147404   3.077   3.020   5.006 -0.0923  0.5852 -1.5290
 8663TIP3    H247405   3.111   3.167   5.024  1.0295  0.0978  0.6510
 8664TIP3   OH247406   1.824   2.687  16.309 -0.5188  0.4941  0.0483
 8664TIP3    H147407   1.885   2.617  16.332 -2.7647 -1.8495 -0.7078
 8664TIP3    H247408   1.866   2.767  16.342  2.1164 -1.1768  1.0429
 8665TIP3   OH247409   4.965   1.318  17.089 -0.1695  0.8387 -0.0595
 8665TIP3    H147410   5.004   1.392  17.137  0.0449  0.8426 -0.2343
 8665TIP3    H247411   5.033   1.251  17.090 -0.6126  0.3880  0.6746
 8666TIP3   OH247412   5.528   5.799   2.697  0.5788  0.4592 -0.1780
 8666TIP3    H147413   5.550   5.870   2.637  0.4062  0.7270  0.0803
 8666TIP3    H247414   5.433   5.791   2.692  0.4457  1.2477  0.9292
 8667TIP3   OH247415   3.047   5.520   6.772  0.8090 -0.3254  0.2120
 8667TIP3    H147416   3.116   5.472   6.727  0.2461 -0.1714 -0.8397
 8667TIP3    H247417   2.981   5.536   6.705 -0.1028 -0.1810  1.1161
 8668TIP3   OH247418   6.615   6.477   4.267  0.1370 -0.0432  0.2465
 8668TIP3    H147419   6.681   6.498   4.334 -0.3181  0.4524  0.5479
 8668TIP3    H247420   6.570   6.399   4.301 -2.0832  1.8652  2.0272
 8669TIP3   OH247421   4.465   2.654  13.125  0.1987 -0.1913  0.3485
 8669TIP3    H147422   4.395   2.670  13.061  0.7601  0.4761 -0.1221
 8669TIP3    H247423   4.534   2.612  13.074 -0.0288 -1.2729  0.9112
 8670TIP3   OH247424   0.206   5.964   0.859  0.0110 -0.2882 -0.0025
 8670TIP3    H147425   0.141   5.956   0.790 -0.2281  1.2119  0.0198
 8670TIP3    H247426   0.191   5.888   0.916 -0.5221 -0.9192 -0.9703
 8671TIP3   OH247427   6.161   5.363  12.345  0.6400 -0.2479  0.2429
 8671TIP3    H147428   6.134   5.424  12.414 -0.5932  0.6247 -0.9569
 8671TIP3    H247429   6.174   5.418  12.268 -1.0085 -1.5087 -1.0076
 8672TIP3   OH247430   5.950   2.314  13.729 -0.1037 -0.0406 -0.4210
 8672TIP3    H147431   5.919   2.364  13.805  0.7014 -1.3584  0.8243
 8672TIP3    H247432   5.952   2.378  13.658 -1.0611  1.1943  0.6101
 8673TIP3   OH247433   5.802   0.655  13.626 -0.3324 -0.1960 -0.3865
 8673TIP3    H147434   5.824   0.748  13.619 -3.7214  0.8252  0.6887
 8673TIP3    H247435   5.840   0.629  13.710  0.0193  0.4036 -0.3492
 8674TIP3   OH247436   6.551   2.111   4.723 -0.3430 -0.2120 -0.0041
 8674TIP3    H147437   6.573   2.153   4.806  1.3256 -0.1263 -0.4549
 8674TIP3    H247438   6.590   2.024   4.729  1.4338  0.4301 -1.3786
 8675TIP3   OH247439   0.823   5.863   3.485 -0.0029  0.2062 -0.3023
 8675TIP3    H147440   0.914   5.871   3.515  0.4871  0.3059 -1.7283
 8675TIP3    H247441   0.801   5.771   3.500 -0.0257  0.4025  0.9718
 8676TIP3   OH247442   5.495   4.285   1.164  0.5466  0.4211  0.1407
 8676TIP3    H147443   5.438   4.313   1.236 -0.7069  2.1314 -1.4043
 8676TIP3    H247444   5.434   4.256   1.096  1.6683 -0.4331 -0.5319
 8677TIP3   OH247445   6.343   5.145  11.386  0.2854  0.5458 -0.5750
 8677TIP3    H147446   6.300   5.133  11.301 -0.9958 -1.2121  0.2632
 8677TIP3    H247447   6.275   5.123  11.450  1.6170  0.5298  0.8723
 8678TIP3   OH247448   2.061   6.325   5.374 -0.0280 -0.2694 -0.2810
 8678TIP3    H147449   1.980   6.360   5.412 -0.4705 -1.1563 -0.3781
 8678TIP3    H247450   2.048   6.230   5.374  1.5752 -0.5310  0.9891
 8679TIP3   OH247451   2.162   4.395  11.313  0.7936 -0.0917 -0.3881
 8679TIP3    H147452   2.209   4.410  11.232 -0.0457  1.2011 -0.6658
 8679TIP3    H247453   2.071   4.384  11.287  0.5827 -0.1425  0.3312
 8680TIP3   OH247454   2.580   4.088   2.846 -0.2632  0.4852  0.1183
 8680TIP3    H147455   2.586   4.056   2.936  1.3451  0.7242  0.1280
 8680TIP3    H247456   2.653   4.149   2.837  0.6617 -0.7956 -1.8400
 8681TIP3   OH247457   6.134   0.392   1.854 -0.3002 -0.4516 -0.8516
 8681TIP3    H147458   6.074   0.448   1.805  0.3052 -0.8148 -2.0745
 8681TIP3    H247459   6.090   0.307   1.859 -0.1020 -0.5867 -1.3324
 8682TIP3   OH247460   1.700   2.752   6.075  0.4850 -0.5200  0.6466
 8682TIP3    H147461   1.701   2.839   6.116  2.7710  1.3561 -2.8370
 8682TIP3    H247462   1.774   2.706   6.114  0.6200 -0.0674  0.9313
 8683TIP3   OH247463   2.441   6.698   0.274  0.1867 -0.0713 -0.1085
 8683TIP3    H147464   2.382   6.772   0.260  1.4196  0.7480 -1.1349
 8683TIP3    H247465   2.455   6.662   0.186  0.5023 -0.8363  0.2431
 8684TIP3   OH247466   5.111   5.236   0.272 -0.0816  0.2180  0.0111
 8684TIP3    H147467   5.110   5.295   0.197  0.6071  0.0683 -0.1199
 8684TIP3    H247468   5.102   5.149   0.235 -0.1120  0.1703  0.1302
 8685TIP3   OH247469   1.393   1.783   5.541  0.1713 -0.2396  0.2808
 8685TIP3    H147470   1.315   1.727   5.533 -0.4772  0.5137  1.1412
 8685TIP3    H247471   1.461   1.736   5.493 -0.5367 -1.4282  0.3980
 8686TIP3   OH247472   0.634   5.072  14.264  0.6285 -0.4065  0.1598
 8686TIP3    H147473   0.665   5.146  14.211  0.8057  0.8590  1.9135
 8686TIP3    H247474   0.697   5.067  14.336  0.6579 -2.3540  0.0449
 8687TIP3   OH247475   1.423   3.427  14.752  0.9238  0.8395  0.5875
 8687TIP3    H147476   1.516   3.450  14.744  1.4706 -1.6322 -1.2577
 8687TIP3    H247477   1.384   3.459  14.671  0.7325 -0.4247  0.1712
 8688TIP3   OH247478   3.892   2.915   6.363 -0.2559 -0.0058 -0.3388
 8688TIP3    H147479   3.959   2.876   6.308  0.3208 -0.3342  0.5741
 8688TIP3    H247480   3.939   2.947   6.440 -1.0602  0.3173  0.0331
 8689TIP3   OH247481   3.122   6.564  15.359 -0.3681  0.5751 -0.4034
 8689TIP3    H147482   3.160   6.478  15.342  0.8140  0.2262  3.1087
 8689TIP3    H247483   3.176   6.625  15.309 -0.4428 -0.5779 -1.9624
 8690TIP3   OH247484   4.597   1.648  14.436 -0.4363  0.0797 -0.0424
 8690TIP3    H147485   4.524   1.610  14.388 -0.2314 -0.2057 -0.1332
 8690TIP3    H247486   4.564   1.661  14.525 -0.7390  0.3801 -0.1992
 8691TIP3   OH247487   0.443   4.407   2.472  0.5694 -0.3306 -0.0816
 8691TIP3    H147488   0.486   4.428   2.388  0.4701  1.0367  0.1844
 8691TIP3    H247489   0.508   4.430   2.538 -0.1341  0.6956  0.2845
 8692TIP3   OH247490   2.844   1.350   1.171 -0.1324  0.1134  0.4312
 8692TIP3    H147491   2.897   1.283   1.129 -0.5117  0.0412  0.0589
 8692TIP3    H247492   2.770   1.363   1.111 -0.3190  0.5036  0.7423
 8693TIP3   OH247493   3.738   6.205   2.926  0.2209  0.1675 -0.2547
 8693TIP3    H147494   3.803   6.269   2.897 -0.4325  0.6169 -0.7482
 8693TIP3    H247495   3.676   6.256   2.978  0.1532 -0.2245  0.0523
 8694TIP3   OH247496   0.342   6.568  12.850 -0.4967 -0.2571 -0.4707
 8694TIP3    H147497   0.302   6.570  12.936 -1.1029 -0.1341 -0.7524
 8694TIP3    H247498   0.376   6.479  12.841  1.3734  0.2731  0.6958
 8695TIP3   OH247499   1.100   5.160  13.756 -0.1392 -0.5605  0.7904
 8695TIP3    H147500   1.013   5.138  13.790 -0.4881 -0.8102 -0.2352
 8695TIP3    H247501   1.095   5.139  13.663  1.0568 -0.6749  0.7402
 8696TIP3   OH247502   2.781   2.098  12.990  0.3016 -0.1519 -0.5695
 8696TIP3    H147503   2.769   2.131  12.901  1.1076 -0.9337 -0.9861
 8696TIP3    H247504   2.807   2.007  12.978 -0.4615 -0.5364  0.5063
 8697TIP3   OH247505   4.073   3.202   5.945  0.0788  0.7594  0.3415
 8697TIP3    H147506   4.014   3.187   6.018 -0.0938  0.5090  0.1528
 8697TIP3    H247507   4.016   3.227   5.872  0.1146 -0.3067 -0.0752
 8698TIP3   OH247508   3.446   2.621  12.169 -0.9235 -0.2354  0.2158
 8698TIP3    H147509   3.528   2.666  12.192 -0.7425 -1.5725  2.5378
 8698TIP3    H247510   3.428   2.649  12.080  2.3256 -0.2839 -0.6051
 8699TIP3   OH247511   0.499   6.254   6.052  0.3066  0.1319  0.6505
 8699TIP3    H147512   0.436   6.212   6.111  1.7163  0.6316  2.6036
 8699TIP3    H247513   0.464   6.342   6.038 -0.1326 -0.0512  0.5712
 8700TIP3   OH247514   4.167   4.524  11.757 -0.2594  0.0068  0.2326
 8700TIP3    H147515   4.177   4.590  11.689  2.0559  1.7356  2.0704
 8700TIP3    H247516   4.092   4.554  11.809 -0.7200 -0.1646 -0.3264
 8701TIP3   OH247517   5.611   3.236  13.413  0.8738  0.0498  0.0917
 8701TIP3    H147518   5.619   3.203  13.502  0.8677  0.5676  0.2896
 8701TIP3    H247519   5.518   3.229  13.393  0.6213  1.3106  0.6857
 8702TIP3   OH247520   4.056   5.105  15.027  0.0203 -0.1807 -0.2021
 8702TIP3    H147521   4.069   5.156  14.947 -0.5752  0.3601  0.0313
 8702TIP3    H247522   4.037   5.170  15.095  0.7727 -0.6146  0.4389
 8703TIP3   OH247523   4.208   3.644   1.294  0.6243 -0.0353 -0.1266
 8703TIP3    H147524   4.146   3.636   1.367  0.9624  1.2362  0.3319
 8703TIP3    H247525   4.156   3.683   1.223  1.0087  1.6289  0.4633
 8704TIP3   OH247526   4.367   4.458  13.601  0.1497  0.3279 -0.2173
 8704TIP3    H147527   4.416   4.537  13.623 -1.0245  0.8471  0.6863
 8704TIP3    H247528   4.389   4.440  13.509  0.1960  1.8954 -0.5401
 8705TIP3   OH247529   3.599   5.222  14.338 -0.3420  0.0997 -0.0223
 8705TIP3    H147530   3.683   5.181  14.317 -0.5629  0.6560 -2.2949
 8705TIP3    H247531   3.622   5.305  14.380  0.1456 -0.9807  1.9736
 8706TIP3   OH247532   6.470   2.274   2.477 -0.3454  0.5514 -0.8861
 8706TIP3    H147533   6.470   2.184   2.444  2.0299 -0.1535  0.7744
 8706TIP3    H247534   6.489   2.327   2.400 -0.8091 -0.4305 -1.7143
 8707TIP3   OH247535   2.055   2.324   2.208 -0.2538  0.2067 -0.0634
 8707TIP3    H147536   2.035   2.303   2.117 -0.7723 -0.5629  0.2182
 8707TIP3    H247537   1.999   2.399   2.228  1.0994  1.4748 -0.8683
 8708TIP3   OH247538   3.449   4.448  16.084  0.1771  0.0651  0.1645
 8708TIP3    H147539   3.498   4.401  16.017  1.2485  0.3240  0.7567
 8708TIP3    H247540   3.495   4.531  16.094  1.3306 -0.7744  2.6818
 8709TIP3   OH247541   6.737   4.475   0.744  0.1919  0.2021 -0.4274
 8709TIP3    H147542   6.723   4.534   0.670  1.4253  0.5582 -0.3931
 8709TIP3    H247543   6.821   4.501   0.780  0.2770 -0.9159  0.2202
 8710TIP3   OH247544   4.886   5.434   5.585  0.1340  0.4771 -0.0009
 8710TIP3    H147545   4.825   5.504   5.563 -0.4588  0.1566  0.5970
 8710TIP3    H247546   4.899   5.387   5.502 -0.5159  0.4859 -0.1121
 8711TIP3   OH247547   0.189   0.015   0.465  0.4295  0.7614  0.1071
 8711TIP3    H147548   0.126   0.052   0.527  1.0014  1.1937  0.4492
 8711TIP3    H247549   0.153  -0.070   0.442  0.2262  0.5775  1.0657
 8712TIP3   OH247550   0.559   6.453  10.981 -0.1886 -0.3042 -0.0117
 8712TIP3    H147551   0.630   6.438  10.919  0.6656  2.3342  0.1940
 8712TIP3    H247552   0.483   6.409  10.943  1.1387 -1.7147 -1.1029
 8713TIP3   OH247553   3.766   0.211  17.189  0.2876  0.3910 -0.1948
 8713TIP3    H147554   3.702   0.144  17.166 -0.0744  0.5963  0.2132
 8713TIP3    H247555   3.816   0.173  17.261 -0.5713  0.9468  0.7059
 8714TIP3   OH247556   1.734   1.534   5.757  0.6654  0.4692  0.1288
 8714TIP3    H147557   1.660   1.594   5.768 -0.4907 -0.9925  0.7589
 8714TIP3    H247558   1.707   1.455   5.804  2.6354 -0.1244  0.3356
 8715TIP3   OH247559   3.263   5.459   3.231 -0.2476  0.4507  0.6989
 8715TIP3    H147560   3.348   5.428   3.263  0.2750  1.1510  0.0354
 8715TIP3    H247561   3.285   5.533   3.175 -1.2142 -0.0557 -0.3736
 8716TIP3   OH247562   0.516   0.238  11.595 -0.2790 -0.1149  0.3242
 8716TIP3    H147563   0.475   0.214  11.512 -0.5311  0.5983  0.2324
 8716TIP3    H247564   0.605   0.263  11.571  0.0527 -1.1336  0.4487
 8717TIP3   OH247565   5.760   2.465  13.856  0.5667 -0.2670  0.2102
 8717TIP3    H147566   5.666   2.448  13.866  0.4884 -0.7678 -1.1481
 8717TIP3    H247567   5.764   2.554  13.820  0.5615 -0.5283 -0.4519
 8718TIP3   OH247568   5.493   6.633   4.090 -0.1912 -0.0847 -0.2527
 8718TIP3    H147569   5.520   6.696   4.158  0.8298 -0.3902 -0.3495
 8718TIP3    H247570   5.570   6.577   4.079 -0.0594  0.4241 -2.1925
 8719TIP3   OH247571   1.361   0.966   2.718  0.0020 -0.5592  0.8474
 8719TIP3    H147572   1.319   1.051   2.733  0.4239  0.0866 -1.3376
 8719TIP3    H247573   1.293   0.911   2.681  0.0314 -0.8211  1.1756
 8720TIP3   OH247574   1.336   1.962   5.192  0.5252 -0.3937  0.2559
 8720TIP3    H147575   1.362   2.013   5.115  1.8016 -1.3387  0.0222
 8720TIP3    H247576   1.362   1.872   5.171 -0.0791 -0.8438  1.3660
 8721TIP3   OH247577   4.419   2.787   5.605  0.0653  0.1699  0.3469
 8721TIP3    H147578   4.500   2.832   5.582 -0.5344  0.7163 -0.7724
 8721TIP3    H247579   4.447   2.702   5.637  1.1182  0.6267  0.7005
 8722TIP3   OH247580   5.655   5.133  11.377 -0.5265 -0.2497 -0.7176
 8722TIP3    H147581   5.616   5.067  11.319 -1.1236  0.5183 -1.2141
 8722TIP3    H247582   5.590   5.204  11.379  0.6715  0.9040 -1.2600
 8723TIP3   OH247583   6.272   1.833   5.801  0.0498 -0.1275 -0.3437
 8723TIP3    H147584   6.240   1.827   5.890  0.4072 -0.5638 -0.2412
 8723TIP3    H247585   6.221   1.769   5.752  0.3376 -0.3892 -0.3050
 8724TIP3   OH247586   5.090   4.343   1.704  0.4691  0.2941  0.3584
 8724TIP3    H147587   4.998   4.365   1.724 -0.3891 -1.4614 -1.3508
 8724TIP3    H247588   5.123   4.420   1.658 -1.0032 -0.0471 -1.3779
 8725TIP3   OH247589   4.552   2.507  15.389 -0.3992  0.4225 -0.2792
 8725TIP3    H147590   4.488   2.516  15.318 -0.5046  2.1514 -0.0039
 8725TIP3    H247591   4.502   2.469  15.462 -0.7364  0.3574 -0.5445
 8726TIP3   OH247592   2.943   4.171   5.639  0.5875  0.1616 -0.0411
 8726TIP3    H147593   2.924   4.237   5.572 -0.1729  0.8633  0.8327
 8726TIP3    H247594   3.016   4.208   5.689  2.0329 -0.9486 -1.2386
 8727TIP3   OH247595   4.712   4.094  15.874  0.0874 -0.4806 -0.6289
 8727TIP3    H147596   4.760   4.086  15.792  0.3433  0.2505 -0.5613
 8727TIP3    H247597   4.695   4.188  15.883 -0.1000 -0.5723  0.0585
 8728TIP3   OH247598   0.467   1.106  16.119  0.7141 -0.7940 -0.2342
 8728TIP3    H147599   0.464   1.180  16.058  2.1649 -1.4102 -1.0974
 8728TIP3    H247600   0.411   1.040  16.078  1.1332 -0.9558 -0.5447
 8729TIP3   OH247601   0.501   1.150  14.638  0.1619  0.5713  0.0432
 8729TIP3    H147602   0.512   1.214  14.567  1.3227  0.0552 -0.2637
 8729TIP3    H247603   0.499   1.203  14.718 -2.9277  1.3393 -0.3953
 8730TIP3   OH247604   2.588   0.360  12.730  0.2528 -0.1003  0.2129
 8730TIP3    H147605   2.681   0.372  12.713  0.2939  0.3016  0.7341
 8730TIP3    H247606   2.545   0.426  12.675  0.1591 -1.4212 -1.4000
 8731TIP3   OH247607   0.270   0.994   1.056  0.6223  0.0479  0.2365
 8731TIP3    H147608   0.198   1.054   1.036  1.0121  0.3586 -0.2669
 8731TIP3    H247609   0.229   0.922   1.103 -0.1993 -0.2634 -0.8996
 8732TIP3   OH247610   2.881   3.628   5.088  0.3949  0.4017  0.5883
 8732TIP3    H147611   2.856   3.667   5.003  1.1911 -1.3364 -0.4836
 8732TIP3    H247612   2.806   3.573   5.111  1.6573 -2.1018 -0.9239
 8733TIP3   OH247613   3.175   1.915   3.631  0.1181 -0.4339 -0.1764
 8733TIP3    H147614   3.164   1.898   3.537  1.0720 -0.6785 -0.2479
 8733TIP3    H247615   3.130   1.998   3.645 -0.6005 -0.7082 -0.7176
 8734TIP3   OH247616   4.831   0.602   5.226 -0.8515 -0.0361 -0.4793
 8734TIP3    H147617   4.884   0.640   5.156 -1.0434  0.0286 -0.5928
 8734TIP3    H247618   4.741   0.628   5.204 -0.8422  0.6061  0.1832
 8735TIP3   OH247619   0.750   6.756   5.306  0.5274 -0.5001  0.0946
 8735TIP3    H147620   0.746   6.679   5.363 -2.3882 -0.7384 -0.2849
 8735TIP3    H247621   0.664   6.797   5.315  0.5388  0.3850 -2.8334
 8736TIP3   OH247622   5.521   6.255   1.955  0.0274 -0.4093 -0.6880
 8736TIP3    H147623   5.451   6.295   1.905 -0.2097 -0.0859 -0.1067
 8736TIP3    H247624   5.510   6.161   1.941 -0.4788 -0.3568 -0.6560
 8737TIP3   OH247625   6.047   4.042  12.890  0.1491 -0.1736  0.1323
 8737TIP3    H147626   5.969   3.986  12.889 -2.0137  2.6155  0.7503
 8737TIP3    H247627   6.113   3.990  12.936 -0.9980 -2.9733 -1.1166
 8738TIP3   OH247628   3.399   4.357   6.010  0.4331  0.4867  0.4824
 8738TIP3    H147629   3.308   4.329   6.002  0.3171  1.2610 -1.9800
 8738TIP3    H247630   3.399   4.419   6.082 -1.2095  1.1503 -0.0381
 8739TIP3   OH247631   6.542   1.561  16.825  0.6466 -0.2256  0.0191
 8739TIP3    H147632   6.484   1.487  16.806 -0.5669  0.4747  0.8832
 8739TIP3    H247633   6.613   1.524  16.877  0.3014 -0.8675  0.0380
 8740TIP3   OH247634   6.709   6.611  13.434 -0.8549 -0.6335  0.6847
 8740TIP3    H147635   6.622   6.616  13.394 -0.6726 -0.2671  0.3267
 8740TIP3    H247636   6.719   6.519  13.460  0.2132 -1.6415 -2.8257
 8741TIP3   OH247637   2.829   0.470  17.078  0.0344 -0.4809  0.2702
 8741TIP3    H147638   2.925   0.477  17.086  0.0023 -0.2245  0.4588
 8741TIP3    H247639   2.815   0.423  16.996  0.3476 -1.6639  0.8679
 8742TIP3   OH247640   3.602   6.045   0.044  0.3408  0.9463 -0.2292
 8742TIP3    H147641   3.561   6.027  -0.041  1.3135  1.2493 -0.7792
 8742TIP3    H247642   3.678   5.986   0.046  0.4807  1.1461  0.3130
 8743TIP3   OH247643   1.112   2.926  15.103  0.2222  0.1190 -0.1482
 8743TIP3    H147644   1.171   3.000  15.115  0.2076  0.2437 -0.8197
 8743TIP3    H247645   1.038   2.962  15.055 -0.2695 -0.1073  0.4219
 8744TIP3   OH247646   2.449   1.919  15.222 -0.9568 -0.5523  0.8525
 8744TIP3    H147647   2.434   1.856  15.152 -1.0121 -0.9453  1.2203
 8744TIP3    H247648   2.365   1.926  15.267 -0.8208 -0.5765  1.1089
 8745TIP3   OH247649   6.328   1.390  13.027  0.3838  0.2432  0.3087
 8745TIP3    H147650   6.411   1.407  12.982  0.3661 -1.1328 -0.2975
 8745TIP3    H247651   6.263   1.384  12.957  0.0784 -0.3629  0.6334
 8746TIP3   OH247652   1.028   2.882   1.449 -0.1820 -0.4291 -0.3949
 8746TIP3    H147653   1.016   2.811   1.512  0.1321  0.5135  0.7735
 8746TIP3    H247654   0.967   2.862   1.379 -1.3953 -0.9260  0.7554
 8747TIP3   OH247655   4.125   3.351   6.207 -0.4740  0.3171  0.1974
 8747TIP3    H147656   4.056   3.284   6.205  0.4032 -0.6165  0.5667
 8747TIP3    H247657   4.180   3.326   6.281 -0.5205  1.8642  0.7883
 8748TIP3   OH247658   2.614   1.637   3.335 -0.4649  0.2337  0.2133
 8748TIP3    H147659   2.641   1.667   3.248 -0.6146  1.5267  0.5990
 8748TIP3    H247660   2.531   1.593   3.320 -0.0172 -0.4244 -0.4293
 8749TIP3   OH247661   0.934   2.334  13.269 -0.2125  0.5511 -0.1942
 8749TIP3    H147662   0.979   2.290  13.197  1.1871 -0.1079  1.0186
 8749TIP3    H247663   0.844   2.342  13.239  0.1622 -0.3671 -1.7174
 8750TIP3   OH247664   4.559   5.818  12.633 -0.0006  0.1212  0.0033
 8750TIP3    H147665   4.464   5.814  12.623 -0.3701  1.4821  2.2273
 8750TIP3    H247666   4.584   5.903  12.596  0.1226  0.4131  0.7418
 8751TIP3   OH247667   5.885   0.367  14.800  0.0947  0.3056 -0.1269
 8751TIP3    H147668   5.950   0.305  14.766  0.3208  0.1609  0.5689
 8751TIP3    H247669   5.933   0.450  14.810  0.5930 -0.1726  1.8264
 8752TIP3   OH247670   0.198   0.387  16.173 -0.6072 -0.0429 -0.0671
 8752TIP3    H147671   0.259   0.460  16.182 -1.3705  0.6833 -0.6287
 8752TIP3    H247672   0.191   0.350  16.261  0.8906 -0.3551 -0.0622
 8753TIP3   OH247673   3.684   6.105  12.461 -0.0489 -0.3142  0.5568
 8753TIP3    H147674   3.759   6.129  12.406 -1.5599  1.0931 -0.9793
 8753TIP3    H247675   3.723   6.053  12.532  2.4023  0.5772 -0.0275
 8754TIP3   OH247676   5.660   0.855  11.440 -0.9340 -0.2298 -0.0741
 8754TIP3    H147677   5.588   0.877  11.499  1.8157  3.7263  2.2802
 8754TIP3    H247678   5.712   0.792  11.489 -0.0858  0.9799  0.6283
 8755TIP3   OH247679   3.607   0.660   5.514  0.4774  0.0680  0.0751
 8755TIP3    H147680   3.555   0.706   5.448  0.7296 -1.1048 -0.9840
 8755TIP3    H247681   3.688   0.637   5.468  0.3399 -1.4574  0.5512
 8756TIP3   OH247682   1.522   5.165  15.751 -0.1316  0.1129 -0.0174
 8756TIP3    H147683   1.555   5.239  15.701  1.0943 -1.2415 -1.3214
 8756TIP3    H247684   1.503   5.097  15.686 -2.0343 -0.4749  1.0477
 8757TIP3   OH247685   2.336   3.281  12.819  0.3322 -0.1105  0.2070
 8757TIP3    H147686   2.285   3.331  12.882  2.2293  1.6059  0.4827
 8757TIP3    H247687   2.345   3.195  12.858 -2.1103 -0.4200  0.2247
 8758TIP3   OH247688   4.217   5.094  12.649  0.2915  0.3791  0.1252
 8758TIP3    H147689   4.218   5.163  12.716  0.1774  0.5446 -0.0431
 8758TIP3    H247690   4.285   5.032  12.677  0.7930  0.8548 -0.0367
 8759TIP3   OH247691   5.932   3.865   0.803 -0.2696 -0.2597  0.8487
 8759TIP3    H147692   6.014   3.820   0.824 -0.3006 -2.3778 -2.7062
 8759TIP3    H247693   5.958   3.937   0.746 -0.7961 -0.1405  0.7565
 8760TIP3   OH247694   2.113   0.706   1.793 -0.0471 -0.2709  0.9095
 8760TIP3    H147695   2.031   0.700   1.744  0.4332  1.0155 -0.0966
 8760TIP3    H247696   2.140   0.798   1.785  0.2879 -0.0869  3.2183
 8761TIP3   OH247697   5.646   5.395   0.762  0.1249  0.0290 -0.0394
 8761TIP3    H147698   5.570   5.337   0.763 -0.4924  0.8218 -0.1322
 8761TIP3    H247699   5.651   5.429   0.852  1.4069 -1.3060  0.4522
 8762TIP3   OH247700   2.550   0.999   6.214  0.4864 -0.1030  1.0153
 8762TIP3    H147701   2.640   1.030   6.221  0.8918 -0.2414 -2.2071
 8762TIP3    H247702   2.501   1.075   6.183  0.0349 -0.6716  0.2938
 8763TIP3   OH247703   1.140   6.595   5.462  0.7748  0.1176 -0.7573
 8763TIP3    H147704   1.233   6.608   5.479  0.3772  0.3798  1.5420
 8763TIP3    H247705   1.101   6.585   5.548 -0.9051 -3.3913 -1.7499
 8764TIP3   OH247706   5.869   4.066   1.004 -0.1581 -0.0208 -0.4362
 8764TIP3    H147707   5.788   4.065   1.055  0.0808 -0.7943 -0.0555
 8764TIP3    H247708   5.859   3.995   0.941  0.3580 -0.3320 -0.1719
 8765TIP3   OH247709   0.186   0.485   1.451 -0.1627  0.0121  0.1405
 8765TIP3    H147710   0.178   0.532   1.534 -1.4563 -0.2453  0.1872
 8765TIP3    H247711   0.205   0.554   1.387 -1.6827  0.5935  0.2665
 8766TIP3   OH247712   2.677   6.246  12.802 -0.2207 -0.0484 -0.6779
 8766TIP3    H147713   2.713   6.332  12.780 -1.0531  0.4188 -0.2447
 8766TIP3    H247714   2.730   6.216  12.876 -1.7982  1.4456  1.1787
 8767TIP3   OH247715   2.810   5.184   0.334  0.6028 -0.5165 -0.9129
 8767TIP3    H147716   2.817   5.102   0.381  0.5642 -0.3763 -0.6629
 8767TIP3    H247717   2.877   5.240   0.372  0.8305 -0.5285 -1.2873
 8768TIP3   OH247718   4.869   0.773  12.336  0.1354 -0.4431 -0.5364
 8768TIP3    H147719   4.821   0.708  12.387 -1.3260 -0.1538 -1.4780
 8768TIP3    H247720   4.835   0.764  12.247  3.9236 -2.2429 -2.0174
 8769TIP3   OH247721   1.466   3.283   1.911  0.0051 -0.6342  0.0865
 8769TIP3    H147722   1.528   3.303   1.840 -0.5452 -0.6561 -0.4119
 8769TIP3    H247723   1.392   3.342   1.895  0.5927  0.5826  1.6431
 8770TIP3   OH247724   3.005   5.701  14.883 -0.2286 -0.6010 -0.0161
 8770TIP3    H147725   2.948   5.652  14.824 -0.3750  0.8599 -1.1679
 8770TIP3    H247726   3.022   5.783  14.837  1.1229 -0.1339  1.2188
 8771TIP3   OH247727   3.391   2.945  16.686 -0.2249  0.3595 -0.2329
 8771TIP3    H147728   3.456   2.879  16.662 -0.3433 -0.4791  1.6074
 8771TIP3    H247729   3.314   2.922  16.634  0.3958  0.3572 -1.1874
 8772TIP3   OH247730   2.762   3.201   1.669  0.7832  0.5268 -0.2798
 8772TIP3    H147731   2.738   3.208   1.762  0.2815  0.1000 -0.3729
 8772TIP3    H247732   2.681   3.175   1.626  0.9722  0.9119 -0.8679
 8773TIP3   OH247733   5.501   0.726  17.239  0.0019 -0.5696  0.2102
 8773TIP3    H147734   5.558   0.687  17.172  3.8088  2.2843  1.4549
 8773TIP3    H247735   5.451   0.792  17.192  0.8186 -0.2647 -0.2469
 8774TIP3   OH247736   0.763   1.411  12.335  0.1331  0.7418  0.3770
 8774TIP3    H147737   0.776   1.440  12.425 -1.2105  1.1811  0.4478
 8774TIP3    H247738   0.852   1.409  12.297  0.6386  1.1803  1.5069
 8775TIP3   OH247739   5.471   2.105  12.858 -0.6815 -0.2727 -0.0781
 8775TIP3    H147740   5.436   2.111  12.946 -0.6407 -2.3773  0.1276
 8775TIP3    H247741   5.505   2.193  12.840 -0.8668  0.2574  1.9038
 8776TIP3   OH247742   4.584   5.225  13.896  0.3245  0.0742  0.3364
 8776TIP3    H147743   4.610   5.298  13.952 -0.2283  0.6597 -0.1666
 8776TIP3    H247744   4.513   5.182  13.943  0.9429 -0.4246  0.8426
 8777TIP3   OH247745   6.097   5.742   2.202  0.2471  0.4559 -0.3970
 8777TIP3    H147746   6.100   5.676   2.132  1.2487 -1.1169  1.0506
 8777TIP3    H247747   6.004   5.749   2.224  0.0968 -0.3427 -0.7301
 8778TIP3   OH247748   0.984   4.220  16.729 -0.1304  0.3548 -0.2147
 8778TIP3    H147749   0.933   4.253  16.803  0.2073  1.0329 -0.2706
 8778TIP3    H247750   0.965   4.127  16.726 -1.4793  0.6124 -0.3227
 8779TIP3   OH247751   0.693   5.436   4.912 -0.1231 -0.2233 -0.1868
 8779TIP3    H147752   0.781   5.441   4.876  0.8166  0.4897  2.0027
 8779TIP3    H247753   0.682   5.520   4.958 -1.7841 -0.4711 -0.0835
 8780TIP3   OH247754   0.809   2.435   2.629 -0.2718 -0.0036 -0.5141
 8780TIP3    H147755   0.734   2.386   2.597  0.4900 -1.6917  0.1229
 8780TIP3    H247756   0.874   2.429   2.559 -0.1470  0.0060 -0.4017
 8781TIP3   OH247757   4.462   3.141   4.680  0.4640 -0.6703 -0.0788
 8781TIP3    H147758   4.522   3.125   4.608  0.0969  0.9780 -0.8047
 8781TIP3    H247759   4.384   3.090   4.659 -0.0115  0.5363 -1.3841
 8782TIP3   OH247760   4.529   3.846  11.350 -0.1808 -0.6178 -0.4467
 8782TIP3    H147761   4.566   3.776  11.404  0.6339  0.2668  0.1744
 8782TIP3    H247762   4.583   3.847  11.271  1.2218  0.6894  0.4702
 8783TIP3   OH247763   5.940   5.109   4.144 -0.1962 -0.1749  0.2553
 8783TIP3    H147764   5.877   5.180   4.137  0.5116  0.4549  0.1313
 8783TIP3    H247765   5.906   5.040   4.087 -1.0675 -0.0743  0.6499
 8784TIP3   OH247766   6.088   3.581   2.978  0.2136  0.3305  0.2122
 8784TIP3    H147767   6.104   3.658   2.922 -1.0229  0.9774  0.6986
 8784TIP3    H247768   6.013   3.538   2.938  0.0905  0.1043  0.6878
 8785TIP3   OH247769   1.258   5.575  16.975 -0.5271 -0.1488 -0.2024
 8785TIP3    H147770   1.315   5.518  17.026 -0.8132  0.5572  0.9524
 8785TIP3    H247771   1.307   5.657  16.968 -0.3245 -0.3578 -1.4248
 8786TIP3   OH247772   5.637   1.891   4.295 -0.3305 -0.4427 -0.5651
 8786TIP3    H147773   5.640   1.903   4.390 -1.2633 -0.5245 -0.5164
 8786TIP3    H247774   5.703   1.824   4.277 -0.1224 -0.3986  0.0173
 8787TIP3   OH247775   1.338   6.272   3.122  0.2754 -0.0910 -0.4338
 8787TIP3    H147776   1.372   6.184   3.107 -1.0009 -0.6726 -0.0756
 8787TIP3    H247777   1.288   6.265   3.204 -0.4234  0.7857 -0.7682
 8788TIP3   OH247778   2.532   2.172  13.810  0.6646  0.3112  0.1743
 8788TIP3    H147779   2.465   2.104  13.801  1.2480 -0.2208 -0.1540
 8788TIP3    H247780   2.613   2.131  13.779  0.9385  1.2902 -0.4284
 8789TIP3   OH247781   6.124   3.814   2.845  0.4977 -1.0904 -0.0101
 8789TIP3    H147782   6.095   3.906   2.841 -0.4621 -1.3773  0.2223
 8789TIP3    H247783   6.186   3.806   2.773  0.0672 -0.4283 -0.4668
 8790TIP3   OH247784   5.679   5.964   3.480  0.1956 -0.0007 -0.2633
 8790TIP3    H147785   5.719   5.992   3.397 -2.4600 -0.1853 -1.6959
 8790TIP3    H247786   5.687   5.869   3.479 -2.9432 -0.3646 -2.1485
 8791TIP3   OH247787   0.230   0.658   4.898  0.1351 -0.0858  0.1623
 8791TIP3    H147788   0.138   0.659   4.926  0.5400  0.6449  1.5572
 8791TIP3    H247789   0.270   0.731   4.946  1.7704 -1.3072  0.7111
 8792TIP3   OH247790   2.908   1.029   2.710  0.3159  0.3831 -0.6315
 8792TIP3    H147791   2.834   1.045   2.768  0.3110  0.8236 -0.7575
 8792TIP3    H247792   2.895   0.939   2.678 -0.5643  0.7219 -1.2415
 8793TIP3   OH247793   4.610   6.711   0.605 -0.1032 -0.9727  0.0331
 8793TIP3    H147794   4.518   6.690   0.588 -0.7827  0.6259  1.5112
 8793TIP3    H247795   4.640   6.756   0.526 -1.6208  1.4968  0.7544
 8794TIP3   OH247796   3.601   1.323  14.687  0.1510  0.0324  0.1929
 8794TIP3    H147797   3.675   1.294  14.634  0.3323 -0.1235  0.5306
 8794TIP3    H247798   3.577   1.408  14.650 -2.1317 -1.6554 -2.5914
 8795TIP3   OH247799   5.086   0.639  15.187 -0.1031  0.2487  0.2505
 8795TIP3    H147800   5.137   0.560  15.174 -0.6064 -0.2486  1.2244
 8795TIP3    H247801   5.023   0.617  15.255 -0.5877  1.3311  0.1835
 8796TIP3   OH247802   4.469   3.146  11.497 -0.1997  0.1662 -0.1459
 8796TIP3    H147803   4.535   3.098  11.447  0.0499  0.2905  0.0693
 8796TIP3    H247804   4.420   3.195  11.431  0.5469  0.8463 -0.2049
 8797TIP3   OH247805   0.365   4.432  15.189  0.1595  0.1551 -0.3278
 8797TIP3    H147806   0.360   4.380  15.269  1.1530  0.9265  0.2480
 8797TIP3    H247807   0.275   4.465  15.176 -0.1304 -0.4408  0.1403
 8798TIP3   OH247808   5.717   2.541  12.746  0.4900  0.2676 -0.0943
 8798TIP3    H147809   5.781   2.503  12.687  0.6320 -1.7912  1.2918
 8798TIP3    H247810   5.638   2.549  12.693  0.3277 -2.4207 -0.4046
 8799TIP3   OH247811   4.318   5.227   3.983 -0.4315 -0.7434 -0.5899
 8799TIP3    H147812   4.250   5.258   3.924 -0.8715 -0.4608  0.0585
 8799TIP3    H247813   4.299   5.134   3.994  0.7839 -1.2523 -2.3923
 8800TIP3   OH247814   4.244   6.006   1.849  0.0154 -0.0606  0.6363
 8800TIP3    H147815   4.297   6.050   1.916  1.9630  1.3913 -1.6812
 8800TIP3    H247816   4.213   6.077   1.793  0.7352 -1.3290 -1.5135
 8801TIP3   OH247817   2.691   2.746   3.889  0.5241  0.1654 -0.4928
 8801TIP3    H147818   2.624   2.777   3.828  0.9953  1.6704 -0.2775
 8801TIP3    H247819   2.768   2.798   3.868  1.6626 -1.5317 -0.7232
 8802TIP3   OH247820   5.558   4.977   1.138  0.5058 -0.0150  0.5534
 8802TIP3    H147821   5.579   5.056   1.088  1.4111 -0.4829  0.1751
 8802TIP3    H247822   5.639   4.926   1.138  0.0514 -0.7619  1.1388
 8803TIP3   OH247823   1.725   6.590  12.403  0.0635 -0.4204  0.1847
 8803TIP3    H147824   1.671   6.511  12.414 -1.0534  0.3019  0.0016
 8803TIP3    H247825   1.793   6.564  12.340 -0.2127 -1.2693  0.2204
 8804TIP3   OH247826   0.645   2.657   3.375 -0.4041  0.7987  0.3588
 8804TIP3    H147827   0.557   2.647   3.341 -0.1422  0.9621 -0.3792
 8804TIP3    H247828   0.688   2.573   3.355  0.0161  1.2171 -0.5243
 8805TIP3   OH247829   3.040   5.950   1.567 -0.0804  0.4345  0.0369
 8805TIP3    H147830   3.117   5.979   1.617  0.2034  0.1001 -0.1955
 8805TIP3    H247831   2.995   5.890   1.627 -1.0137  1.8032  0.7574
 8806TIP3   OH247832   0.282   1.291  14.332  0.2369 -0.1481 -0.6513
 8806TIP3    H147833   0.275   1.359  14.266  0.8314  0.8572  0.2925
 8806TIP3    H247834   0.320   1.216  14.285  1.0923  0.6971 -1.3481
 8807TIP3   OH247835   6.526   5.821  14.567 -0.2656 -0.1740 -0.0073
 8807TIP3    H147836   6.588   5.876  14.616 -2.5877  0.7125  2.1521
 8807TIP3    H247837   6.537   5.849  14.476  2.4932 -0.1352  0.2320
 8808TIP3   OH247838   2.152   0.740   3.872 -0.4592 -0.7495 -0.0488
 8808TIP3    H147839   2.102   0.667   3.908  1.9618 -2.1160  0.7470
 8808TIP3    H247840   2.143   0.809   3.937 -1.1602 -0.9982  0.1383
 8809TIP3   OH247841   4.722   5.109  17.171  0.7014  0.2428 -0.2238
 8809TIP3    H147842   4.639   5.092  17.128  0.2899  0.7067  0.3718
 8809TIP3    H247843   4.731   5.205  17.168  1.3855  0.1757 -0.6006
 8810TIP3   OH247844   0.629   1.967   0.243 -0.1601  0.4134 -0.1235
 8810TIP3    H147845   0.576   1.913   0.303 -0.8039  1.3696  0.2000
 8810TIP3    H247846   0.717   1.964   0.280 -0.3210  0.0875  0.2436
 8811TIP3   OH247847   4.972   4.515   1.026 -0.3892 -0.5386 -0.1319
 8811TIP3    H147848   4.974   4.595   0.974 -0.2704  0.0090  0.7030
 8811TIP3    H247849   4.887   4.517   1.070  0.5815  0.3807  1.7973
 8812TIP3   OH247850   2.926   3.035   0.080 -0.3308 -0.2697  0.4691
 8812TIP3    H147851   3.000   3.086   0.113  0.0685 -1.5066  1.5639
 8812TIP3    H247852   2.961   2.947   0.067 -1.6466 -0.9346  1.2123
 8813TIP3   OH247853   6.384   5.190  12.088 -0.3634 -0.3699 -0.1009
 8813TIP3    H147854   6.451   5.233  12.142  1.2045  0.8258 -2.7720
 8813TIP3    H247855   6.352   5.259  12.030 -1.7609 -1.6297 -0.9059
 8814TIP3   OH247856   2.943   0.508   3.112 -0.0660  0.7017 -0.4895
 8814TIP3    H147857   2.923   0.415   3.117 -1.3352  0.8326 -2.2150
 8814TIP3    H247858   3.013   0.514   3.047  0.4062  0.9178  0.0306
 8815TIP3   OH247859   0.993   1.356  14.705 -0.2750 -0.4161 -0.0651
 8815TIP3    H147860   0.990   1.405  14.623 -1.7378  0.2383  0.3434
 8815TIP3    H247861   0.930   1.400  14.762  0.0400 -1.4122  1.1070
 8816TIP3   OH247862   3.896   4.042  16.835 -0.2899  0.1726 -0.3319
 8816TIP3    H147863   3.825   3.978  16.834 -0.2401  0.1066 -0.0166
 8816TIP3    H247864   3.924   4.049  16.744 -1.8872  1.5531 -0.7579
 8817TIP3   OH247865   3.192   5.595  12.703  0.3771 -0.5446  0.2505
 8817TIP3    H147866   3.140   5.517  12.686 -0.5008  0.0352  0.1627
 8817TIP3    H247867   3.242   5.610  12.623 -0.4155 -0.3071 -0.2124
 8818TIP3   OH247868   1.170   1.538   5.782 -0.0208 -0.3530  0.2253
 8818TIP3    H147869   1.087   1.512   5.824 -1.1274  0.1089 -1.5701
 8818TIP3    H247870   1.205   1.606   5.839 -0.7523 -0.7281  1.1530
 8819TIP3   OH247871   2.543   3.210   2.728  0.0156 -0.4629  0.3674
 8819TIP3    H147872   2.521   3.145   2.662  0.1281  0.1516 -0.2859
 8819TIP3    H247873   2.591   3.277   2.680  2.0947 -1.0703  1.4578
 8820TIP3   OH247874   3.366   6.502  14.381  0.8956 -0.4954  0.3002
 8820TIP3    H147875   3.398   6.579  14.335  2.7829 -2.5077 -2.0682
 8820TIP3    H247876   3.420   6.496  14.460  2.6622 -0.8162 -0.8807
 8821TIP3   OH247877   3.545   2.345  13.548 -0.3123 -0.4310 -0.3209
 8821TIP3    H147878   3.480   2.288  13.589 -1.1705  0.6094 -0.2137
 8821TIP3    H247879   3.497   2.424  13.525  0.1393 -0.8451 -3.1591
 8822TIP3   OH247880   2.142   4.987  11.138  0.1093 -0.6846  0.7320
 8822TIP3    H147881   2.236   4.970  11.142  0.3851  0.8116  0.9345
 8822TIP3    H247882   2.133   5.056  11.073 -0.8894 -0.9965  0.5190
 8823TIP3   OH247883   0.991   1.141   5.373 -0.5402  0.5520  0.5054
 8823TIP3    H147884   0.995   1.067   5.434  1.8182  1.4302  1.5141
 8823TIP3    H247885   0.921   1.196   5.407 -2.0731 -0.9566 -0.0398
 8824TIP3   OH247886   6.067   2.538  13.026  0.0772 -0.8256 -0.2204
 8824TIP3    H147887   6.088   2.608  13.088 -2.0616  0.3670 -0.7191
 8824TIP3    H247888   5.979   2.560  12.994  0.0151 -2.8562 -1.6712
 8825TIP3   OH247889   0.705   3.279  15.603  0.1391 -0.7844  0.5847
 8825TIP3    H147890   0.691   3.267  15.697 -1.9686  0.1105  0.4561
 8825TIP3    H247891   0.716   3.373  15.593  1.3102 -0.9698  0.0097
 8826TIP3   OH247892   0.397   2.822  14.552 -0.0527  0.1510  0.6842
 8826TIP3    H147893   0.445   2.804  14.633  0.6913 -1.4334 -0.0503
 8826TIP3    H247894   0.462   2.860  14.493 -0.8553  2.3637  1.1410
 8827TIP3   OH247895   0.836   6.268   0.011  0.5098 -0.0806  0.3546
 8827TIP3    H147896   0.761   6.219   0.044  0.4428 -0.2703 -0.0814
 8827TIP3    H247897   0.838   6.347   0.065 -0.6613  0.4558 -0.3589
 8828TIP3   OH247898   5.166   6.612   3.590 -0.5400 -0.6235 -0.0407
 8828TIP3    H147899   5.242   6.668   3.572 -0.9025 -0.0882  0.0743
 8828TIP3    H247900   5.201   6.542   3.645 -0.4683  0.6047  1.5520
 8829TIP3   OH247901   4.708   2.943   2.285 -0.3337 -0.1942 -0.5728
 8829TIP3    H147902   4.619   2.923   2.255 -0.7628 -0.7630  0.9850
 8829TIP3    H247903   4.763   2.880   2.239 -0.1236  2.4127 -4.3993
 8830TIP3   OH247904   2.436   4.863  15.239  0.2025  0.3894  0.4109
 8830TIP3    H147905   2.345   4.880  15.262  0.2882  0.0057  1.0586
 8830TIP3    H247906   2.454   4.922  15.166 -0.9048 -0.3171 -0.4719
 8831TIP3   OH247907   2.613   6.116   0.637 -0.2080 -0.4075 -0.0563
 8831TIP3    H147908   2.610   6.122   0.732  0.3731 -0.1146 -0.0536
 8831TIP3    H247909   2.662   6.035   0.620  0.0240 -0.2569 -0.1055
 8832TIP3   OH247910   5.257   2.901  10.519 -0.3103  0.7366 -1.0205
 8832TIP3    H147911   5.269   2.837  10.448  0.9412  2.5070 -2.4915
 8832TIP3    H247912   5.163   2.903  10.534 -0.4565 -0.7755 -1.5544
 8833TIP3   OH247913   2.248   3.826  15.840  0.6676  0.0731 -0.1546
 8833TIP3    H147914   2.304   3.901  15.860 -0.1486  0.1983  1.8170
 8833TIP3    H247915   2.168   3.865  15.804  0.2321  0.1856  0.8958
 8834TIP3   OH247916   4.899   5.190  15.071  0.1294  0.7470 -0.1759
 8834TIP3    H147917   4.990   5.211  15.053  0.7062 -1.3569 -0.0277
 8834TIP3    H247918   4.898   5.164  15.163 -0.0965 -1.4722 -0.7382
 8835TIP3   OH247919   2.354   1.089   0.098 -0.1481 -0.3662  0.3002
 8835TIP3    H147920   2.387   1.079   0.187 -0.8815 -0.6137  0.5544
 8835TIP3    H247921   2.299   1.167   0.102 -0.4975 -0.6018  0.1647
 8836TIP3   OH247922   2.204   0.722   3.162  0.0736 -0.3844  0.6616
 8836TIP3    H147923   2.261   0.779   3.111  0.0483  0.2283  1.3045
 8836TIP3    H247924   2.156   0.671   3.097 -0.7374  1.1184  0.0338
 8837TIP3   OH247925   2.648   3.003  14.877  0.2466  0.1176 -0.0411
 8837TIP3    H147926   2.562   3.039  14.898  0.4951  0.3210  0.6567
 8837TIP3    H247927   2.691   2.991  14.962  1.3798  1.2214 -0.4120
 8838TIP3   OH247928   0.200   6.666   4.151  0.1193 -0.4453 -0.5748
 8838TIP3    H147929   0.129   6.727   4.133  0.2521  0.0995  0.6344
 8838TIP3    H247930   0.267   6.719   4.195  1.2953 -0.9354 -1.7033
 8839TIP3   OH247931   3.022   6.189   4.193  0.1503  0.6045  0.1678
 8839TIP3    H147932   3.096   6.229   4.238  0.1262  2.0659 -1.0299
 8839TIP3    H247933   3.062   6.125   4.134  0.4057  0.8501  0.0722
 8840TIP3   OH247934   4.565   6.705   3.191  0.4889 -0.3058  0.8951
 8840TIP3    H147935   4.657   6.689   3.213  0.8599 -1.3465 -1.1475
 8840TIP3    H247936   4.531   6.619   3.166 -0.4156  0.4202 -0.4714
 8841TIP3   OH247937   2.980   3.252  12.929  0.2457  0.0768 -0.5364
 8841TIP3    H147938   2.936   3.171  12.903  1.0209 -0.6166  0.2137
 8841TIP3    H247939   3.069   3.243  12.894  0.8057 -0.1246  0.8319
 8842TIP3   OH247940   4.930   5.148  12.838 -0.0501  0.1066  0.0770
 8842TIP3    H147941   4.873   5.145  12.914 -0.3758  0.3753 -0.1493
 8842TIP3    H247942   4.974   5.233  12.845 -0.9291  0.6433 -0.6238
 8843TIP3   OH247943   4.108   4.935  15.251  0.6456  0.6104 -0.4073
 8843TIP3    H147944   4.022   4.956  15.214 -0.1349  0.2353  1.1033
 8843TIP3    H247945   4.138   5.017  15.290  1.0241  0.7679 -1.0290
 8844TIP3   OH247946   0.032   4.349   2.252  0.0359  0.6708 -0.4037
 8844TIP3    H147947   0.042   4.434   2.210  0.6945  0.5691 -0.4504
 8844TIP3    H247948  -0.056   4.352   2.290  0.3640  1.6910  0.3099
 8845TIP3   OH247949   3.598   2.104  14.317 -0.1637  0.0286  0.2139
 8845TIP3    H147950   3.657   2.084  14.245  1.9090  1.4807  1.4187
 8845TIP3    H247951   3.623   2.042  14.386 -0.7338  0.0117  0.4107
 8846TIP3   OH247952   0.367   4.235  11.568  0.1878  0.1982  0.0370
 8846TIP3    H147953   0.328   4.225  11.655  1.7473 -1.1163  0.6488
 8846TIP3    H247954   0.300   4.280  11.516 -0.6254  1.3905  2.0122
 8847TIP3   OH247955   1.803   1.623  16.786 -0.1753  0.6532  0.1905
 8847TIP3    H147956   1.855   1.584  16.857  0.1668  0.6551 -0.0541
 8847TIP3    H247957   1.868   1.663  16.728 -0.5151  1.4506  0.3510
 8848TIP3   OH247958   1.639   0.299  16.799 -0.2298  0.2409 -0.1719
 8848TIP3    H147959   1.617   0.251  16.718 -0.2150  1.8417 -1.1614
 8848TIP3    H247960   1.572   0.272  16.861  0.8146 -2.4687 -0.0682
 8849TIP3   OH247961   2.676   6.692   5.451  0.5041  0.0309 -0.3754
 8849TIP3    H147962   2.667   6.634   5.527  1.1351  0.2452 -0.1318
 8849TIP3    H247963   2.687   6.632   5.377 -0.3219 -0.1817 -0.3341
 8850TIP3   OH247964   4.720   6.256  12.032  0.4377  0.2619  0.9296
 8850TIP3    H147965   4.803   6.297  12.055 -0.8514  4.0600 -0.4331
 8850TIP3    H247966   4.715   6.265  11.937 -2.2991  1.9777  1.1433
 8851TIP3   OH247967   5.334   1.760   5.567  0.2160 -0.3279 -0.4893
 8851TIP3    H147968   5.342   1.694   5.636 -0.2759  0.5819  0.4686
 8851TIP3    H247969   5.254   1.737   5.520 -1.4101  0.9871  1.4590
 8852TIP3   OH247970   0.828   4.804   3.051  0.0925 -0.0240  0.0494
 8852TIP3    H147971   0.887   4.864   3.097 -0.7858 -0.4125  1.7232
 8852TIP3    H247972   0.887   4.744   3.004  1.0670 -0.5331  1.8393
 8853TIP3   OH247973   1.486   4.991  14.683  0.3852  0.8799  0.3253
 8853TIP3    H147974   1.508   5.073  14.726 -1.8285  1.3408  0.7213
 8853TIP3    H247975   1.454   5.016  14.597 -0.1511  0.4361  0.3841
 8854TIP3   OH247976   0.827   6.653   1.634  0.1719 -0.2176 -0.0391
 8854TIP3    H147977   0.827   6.566   1.673 -0.7370  0.1617  0.8585
 8854TIP3    H247978   0.904   6.654   1.577  2.1472 -0.4972  2.4361
 8855TIP3   OH247979   1.531   0.801   3.469 -1.0569 -0.1492  0.1983
 8855TIP3    H147980   1.472   0.825   3.397  0.2260  2.0965 -0.1999
 8855TIP3    H247981   1.522   0.873   3.532  1.0832  0.1846  0.2005
 8856TIP3   OH247982   3.574   6.234   6.672  0.2457  0.0643  0.4794
 8856TIP3    H147983   3.648   6.205   6.726 -0.1541  1.0318  1.5885
 8856TIP3    H247984   3.555   6.322   6.704  0.4933  1.0137 -1.7894
 8857TIP3   OH247985   0.592   3.375   5.076 -0.5023 -0.4585  0.2505
 8857TIP3    H147986   0.509   3.363   5.029  0.5356 -1.3015 -1.4384
 8857TIP3    H247987   0.574   3.447   5.137 -2.3078 -0.2477 -0.4515
 8858TIP3   OH247988   4.631   0.994  15.418 -0.1582 -1.1040  0.3991
 8858TIP3    H147989   4.613   1.054  15.490 -1.7084  0.7534 -1.4189
 8858TIP3    H247990   4.701   1.036  15.368 -0.1108 -1.6307  0.0100
 8859TIP3   OH247991   0.662   2.330  16.919  0.2015 -0.2745  0.4024
 8859TIP3    H147992   0.656   2.304  17.011 -0.8716 -2.6164 -0.2505
 8859TIP3    H247993   0.575   2.367  16.899 -0.4115 -1.9738 -0.2299
 8860TIP3   OH247994   4.699   1.593   3.977 -0.3664  0.1605  0.4305
 8860TIP3    H147995   4.675   1.619   3.888 -0.8125  1.0103  0.7905
 8860TIP3    H247996   4.616   1.572   4.020 -0.2489  0.6531  0.9163
 8861TIP3   OH247997   5.936   2.250  13.175 -0.1242 -0.0977  0.2710
 8861TIP3    H147998   6.028   2.275  13.179 -0.4286  1.0047  3.6249
 8861TIP3    H247999   5.908   2.247  13.266 -2.7875 -3.0353 -0.4578
 8862TIP3   OH248000   6.580   4.350   5.942  0.0297  0.0014 -0.4888
 8862TIP3    H148001   6.490   4.335   5.970  0.3685  0.1488  0.7555
 8862TIP3    H248002   6.620   4.396   6.016  1.6757 -1.8322 -0.1520
 8863TIP3   OH248003   5.404   1.434  13.540  0.5166  0.1737 -0.3735
 8863TIP3    H148004   5.338   1.471  13.482  0.7878  1.2361 -0.0172
 8863TIP3    H248005   5.364   1.440  13.628  1.3673  1.5507 -0.0495
 8864TIP3   OH248006   1.805   5.114  14.652 -0.4610  0.0226  0.6120
 8864TIP3    H148007   1.790   5.157  14.737  0.2590 -1.1826  1.3778
 8864TIP3    H248008   1.877   5.162  14.613 -0.3946  0.2061  0.9540
 8865TIP3   OH248009   3.512   2.199   2.919  0.2821  0.0950 -0.2743
 8865TIP3    H148010   3.428   2.236   2.894 -0.1572 -0.5701  0.1721
 8865TIP3    H248011   3.495   2.154   3.003  1.2307  0.5323  0.1725
 8866TIP3   OH248012   2.803   4.836   1.797  0.2253 -0.5807  0.0816
 8866TIP3    H148013   2.750   4.906   1.835 -0.7768 -0.5033 -1.3734
 8866TIP3    H248014   2.763   4.755   1.829 -0.0984 -0.5091 -0.1405
 8867TIP3   OH248015   6.676   1.919  10.900 -0.6719  0.6178  0.4024
 8867TIP3    H148016   6.664   1.920  10.995 -0.5855 -0.7644  0.4464
 8867TIP3    H248017   6.636   1.837  10.872 -0.2044  0.7513 -0.6884
 8868TIP3   OH248018   5.408   6.230   5.703  0.2379 -0.0142  0.3378
 8868TIP3    H148019   5.391   6.161   5.639 -1.2300  0.3923  0.2415
 8868TIP3    H248020   5.354   6.303   5.673  1.7038  1.1620  0.4779
 8869TIP3   OH248021   2.655   1.132  12.271  0.0775 -0.8823  0.2514
 8869TIP3    H148022   2.592   1.122  12.342 -0.1367  0.1592  0.2347
 8869TIP3    H248023   2.735   1.092  12.304 -0.2720 -1.1896  0.7330
 8870TIP3   OH248024   1.245   0.873   1.954 -0.5552 -0.8985 -0.2770
 8870TIP3    H148025   1.235   0.921   1.872  0.0890 -0.6266 -0.2015
 8870TIP3    H248026   1.292   0.933   2.011 -0.1066 -1.4631 -0.0457
 8871TIP3   OH248027   6.226   0.765  11.705 -0.0067  0.1031 -0.0438
 8871TIP3    H148028   6.304   0.775  11.759  0.8788  0.7183 -1.3629
 8871TIP3    H248029   6.160   0.821  11.746  0.8666  1.1224  0.0270
 8872TIP3   OH248030   4.883   4.170  13.581 -0.2750 -0.3285 -0.4416
 8872TIP3    H148031   4.970   4.177  13.620 -0.3781  0.4849 -0.3468
 8872TIP3    H248032   4.830   4.235  13.627 -1.2520 -1.6196  0.3134
 8873TIP3   OH248033   1.696   6.255  13.438  0.3291  0.2141 -0.1723
 8873TIP3    H148034   1.782   6.286  13.470 -0.2334  1.9002 -0.1893
 8873TIP3    H248035   1.713   6.223  13.350  1.2023 -0.8580  0.3651
 8874TIP3   OH248036   4.087   2.194   6.711  0.2764  0.6048  0.0982
 8874TIP3    H148037   4.166   2.233   6.747 -0.2211  1.3291  0.4407
 8874TIP3    H248038   4.020   2.263   6.720 -0.7215 -0.4437  1.0565
 8875TIP3   OH248039   5.604   6.035  14.821  0.5771  0.4116  0.3702
 8875TIP3    H148040   5.550   5.993  14.887  1.0329  0.0031  0.4888
 8875TIP3    H248041   5.547   6.101  14.782 -0.3680 -0.7601 -0.2934
 8876TIP3   OH248042   5.909   2.434   1.190  0.3723  0.1804 -0.3301
 8876TIP3    H148043   5.823   2.467   1.215  0.3585 -0.5451  0.6379
 8876TIP3    H248044   5.967   2.464   1.259  1.2611  2.1122 -1.8204
 8877TIP3   OH248045   4.849   5.043   3.235  0.0162  0.1238 -0.0294
 8877TIP3    H148046   4.781   4.976   3.233 -0.8027  0.9621 -0.8706
 8877TIP3    H248047   4.927   4.996   3.264 -0.8773 -0.8787  0.8498
 8878TIP3   OH248048   0.173   0.813   2.672 -0.2996  0.7969  0.1779
 8878TIP3    H148049   0.200   0.894   2.715  0.3011  1.4153 -1.3001
 8878TIP3    H248050   0.211   0.819   2.584  1.2722 -1.8824  0.5797
 8879TIP3   OH248051   6.361   4.145   0.810  0.1759  0.4025  0.3669
 8879TIP3    H148052   6.272   4.150   0.846  0.6668  0.1742  1.6674
 8879TIP3    H248053   6.355   4.078   0.742 -0.4109 -0.4555  1.2243
 8880TIP3   OH248054   3.723   2.797  15.285 -0.5819  0.5243  0.5511
 8880TIP3    H148055   3.672   2.842  15.352 -1.1500  0.2308  0.3235
 8880TIP3    H248056   3.767   2.867  15.237 -1.3753  0.8475  0.2640
 8881TIP3   OH248057   0.866   1.591   0.680  0.2078 -0.2214 -0.1716
 8881TIP3    H148058   0.871   1.621   0.589 -0.7206  1.1549  0.2136
 8881TIP3    H248059   0.945   1.625   0.721 -0.0070  0.2401 -0.1458
 8882TIP3   OH248060   0.389   1.198  12.568 -0.1270 -0.0030  0.1106
 8882TIP3    H148061   0.466   1.156  12.608 -0.4975 -0.6626  0.1562
 8882TIP3    H248062   0.370   1.143  12.492  0.4721  1.1448 -0.8959
 8883TIP3   OH248063   4.939   5.358   4.620  0.0150 -0.4996 -0.4113
 8883TIP3    H148064   4.956   5.447   4.588 -1.8358 -0.8305 -2.5097
 8883TIP3    H248065   4.883   5.371   4.696 -1.6261  0.1271 -1.6819
 8884TIP3   OH248066   0.049   6.328  13.511  0.0784  0.1831 -0.5637
 8884TIP3    H148067   0.014   6.241  13.527 -0.6328  0.3565 -1.1452
 8884TIP3    H248068   0.131   6.313  13.464  0.7577 -0.2195  0.7194
 8885TIP3   OH248069   4.243   3.149   5.161  0.4968  0.1976  0.8401
 8885TIP3    H148070   4.200   3.235   5.166  0.3984  0.3471 -1.6098
 8885TIP3    H248071   4.297   3.145   5.240 -0.1867  2.1275  1.4628
 8886TIP3   OH248072   2.091   6.660   1.188 -0.1357 -0.0604 -0.2948
 8886TIP3    H148073   2.136   6.734   1.230  1.8563 -0.4541 -1.5712
 8886TIP3    H248074   2.071   6.600   1.259  0.0752  0.8115  0.5100
 8887TIP3   OH248075   4.077   6.671  16.700 -0.5573 -0.2468  0.2112
 8887TIP3    H148076   4.044   6.667  16.611 -0.2584 -0.1112  0.0947
 8887TIP3    H248077   4.096   6.764  16.715 -0.7083 -0.2529  0.4515
 8888TIP3   OH248078   1.149   3.357  15.013  0.3091  0.2545  0.0736
 8888TIP3    H148079   1.143   3.426  15.079  0.7822  0.9145 -0.5528
 8888TIP3    H248080   1.069   3.307  15.023  0.3514  0.3665  1.1166
 8889TIP3   OH248081   4.704   1.388  12.520  0.3009 -0.4568  0.1295
 8889TIP3    H148082   4.743   1.304  12.497 -0.2648 -1.2338  1.8666
 8889TIP3    H248083   4.612   1.380  12.495 -0.2113 -1.1363  2.0520
 8890TIP3   OH248084   1.777   4.793  10.494  0.7398 -0.5394 -0.0770
 8890TIP3    H148085   1.717   4.848  10.545  0.4354  0.8902 -1.8633
 8890TIP3    H248086   1.827   4.855  10.441  0.8357 -1.9401 -1.7206
 8891TIP3   OH248087   0.893   3.991  15.623  0.4842 -0.2154  0.2478
 8891TIP3    H148088   0.807   3.953  15.604  0.6662 -0.0419 -1.0334
 8891TIP3    H248089   0.938   3.924  15.674  0.6170 -1.5785 -1.5482
 8892TIP3   OH248090   2.203   2.204   5.300  0.0813 -0.6394  0.0579
 8892TIP3    H148091   2.202   2.162   5.214 -1.1122 -0.5236 -0.0136
 8892TIP3    H248092   2.124   2.170   5.343  1.7004 -2.2797  1.9123
 8893TIP3   OH248093   1.784   5.565  14.753  0.9442  0.0135 -0.3017
 8893TIP3    H148094   1.768   5.653  14.789  0.6285 -0.1549 -0.0246
 8893TIP3    H248095   1.874   5.544  14.781  1.2421  0.4935 -0.8854
 8894TIP3   OH248096   2.356   2.293  12.990 -0.1851 -0.2090 -0.3934
 8894TIP3    H148097   2.333   2.239  12.915  0.8100  1.7416 -2.2137
 8894TIP3    H248098   2.397   2.233  13.052 -2.0943 -2.0905 -0.8437
 8895TIP3   OH248099   4.786   3.880   0.149 -0.4194 -0.5334 -0.0078
 8895TIP3    H148100   4.732   3.800   0.154  0.3042 -1.1160 -1.1855
 8895TIP3    H248101   4.870   3.854   0.188  0.1114 -0.6284 -1.1741
 8896TIP3   OH248102   4.224   4.666  10.835  0.1752 -0.2378 -0.4530
 8896TIP3    H148103   4.230   4.736  10.770  0.2570 -0.5160 -0.7444
 8896TIP3    H248104   4.131   4.652  10.847  0.1566 -0.9314 -1.3155
 8897TIP3   OH248105   4.364   4.277   0.100  0.2832  0.5093 -0.4109
 8897TIP3    H148106   4.346   4.305   0.190 -0.4290 -0.6089 -0.1841
 8897TIP3    H248107   4.331   4.349   0.046  0.6686  1.1679  0.2106
 8898TIP3   OH248108   0.652   0.171  16.085 -0.0017 -0.1979 -0.3178
 8898TIP3    H148109   0.708   0.163  16.008 -1.7759  1.0278 -1.8254
 8898TIP3    H248110   0.604   0.088  16.089 -0.3982 -0.0064 -0.9682
 8899TIP3   OH248111   2.794   4.484   0.800  0.2187  0.1212 -0.0596
 8899TIP3    H148112   2.757   4.543   0.866  1.4271  0.6594  0.1623
 8899TIP3    H248113   2.865   4.535   0.760  1.0255 -1.0429 -0.1487
 8900TIP3   OH248114   4.041   2.208   5.011 -0.4957 -0.0988  0.2681
 8900TIP3    H148115   4.100   2.216   4.936  1.2676 -0.2034  1.5792
 8900TIP3    H248116   4.094   2.165   5.078 -2.1229 -0.2935  1.4841
 8901TIP3   OH248117   1.969   1.586  15.350 -0.1220  0.4208 -0.3983
 8901TIP3    H148118   2.041   1.565  15.409  0.7036  1.0863 -1.1351
 8901TIP3    H248119   1.913   1.509  15.351  1.5089 -0.8153 -1.1161
 8902TIP3   OH248120   6.205   2.622  15.692  0.2559 -0.9913  0.1669
 8902TIP3    H148121   6.136   2.689  15.689 -0.1643 -1.3878  0.7452
 8902TIP3    H248122   6.244   2.632  15.779  0.7159 -0.9866 -0.0375
 8903TIP3   OH248123   3.640   3.999  14.000 -0.5004  0.0768  0.1801
 8903TIP3    H148124   3.604   3.982  13.913  0.8431 -1.3365 -0.1424
 8903TIP3    H248125   3.733   4.015  13.986 -0.4706  0.9996  1.2498
 8904TIP3   OH248126   1.562   0.778   0.780  0.0723  0.5209  0.2416
 8904TIP3    H148127   1.473   0.783   0.745 -0.1217  1.2719  0.7990
 8904TIP3    H248128   1.604   0.706   0.732  0.4750  2.6937 -2.9846
 8905TIP3   OH248129   2.343   3.008   1.154 -0.0427 -0.5674  0.4780
 8905TIP3    H148130   2.367   2.997   1.246  1.6217  1.2433  0.3298
 8905TIP3    H248131   2.255   3.045   1.156  0.2939  0.2203  1.3854
 8906TIP3   OH248132   5.284   0.025   2.551  0.1821 -0.0699  0.3935
 8906TIP3    H148133   5.230   0.002   2.627  1.3382 -1.0520  0.9450
 8906TIP3    H248134   5.255  -0.034   2.482 -1.4199  1.3497 -0.2223
 8907TIP3   OH248135   0.456   4.729   1.771 -0.5044 -0.4211  0.1198
 8907TIP3    H148136   0.450   4.677   1.691 -2.3652 -1.1348  0.6704
 8907TIP3    H248137   0.369   4.768   1.781  0.5113  1.9765  0.3096
 8908TIP3   OH248138   3.095   1.738   5.815  0.5090 -0.2167 -0.4683
 8908TIP3    H148139   3.148   1.767   5.741 -2.1608 -0.0062 -2.4567
 8908TIP3    H248140   3.152   1.749   5.891  2.5302  2.0903 -2.1442
 8909TIP3   OH248141   4.579   0.775  15.232 -0.0111  0.4159 -0.2619
 8909TIP3    H148142   4.597   0.839  15.301  2.2400  1.0753 -1.3952
 8909TIP3    H248143   4.569   0.827  15.152 -0.9063 -0.4678 -0.7588
 8910TIP3   OH248144   2.761   2.025   0.860  0.0634  0.6410 -0.0939
 8910TIP3    H148145   2.729   1.948   0.814 -0.5282  0.2202  0.9838
 8910TIP3    H248146   2.775   2.091   0.791  0.3918 -0.3537 -1.0007
 8911TIP3   OH248147   4.046   6.126   0.124 -0.3972  0.0805 -0.2923
 8911TIP3    H148148   3.994   6.155   0.049  1.3848  0.0069 -1.6203
 8911TIP3    H248149   4.107   6.198   0.140  0.2904 -0.5614  0.0411
 8912TIP3   OH248150   5.886   6.712  12.370  0.0785  0.5642 -0.5577
 8912TIP3    H148151   5.885   6.718  12.274  0.2469  0.1507 -0.5862
 8912TIP3    H248152   5.956   6.650  12.389 -0.0499  0.5416 -0.1692
 8913TIP3   OH248153   4.813   4.604  12.580 -0.7055 -0.1004 -0.0639
 8913TIP3    H148154   4.828   4.667  12.510  1.1375 -0.5045 -0.1048
 8913TIP3    H248155   4.720   4.583  12.575 -0.7938  0.5461 -1.7964
 8914TIP3   OH248156   0.571   6.200  12.183 -0.3445  0.2770  0.6014
 8914TIP3    H148157   0.505   6.142  12.222 -0.0726  0.5621  1.5153
 8914TIP3    H248158   0.620   6.144  12.123 -0.7743 -0.1825  0.6785
 8915TIP3   OH248159   5.599   3.067  15.907 -0.0998 -0.2654 -0.0994
 8915TIP3    H148160   5.585   3.142  15.849  2.1270 -0.9360 -1.6743
 8915TIP3    H248161   5.666   3.098  15.969  1.1558 -1.0045 -1.0309
 8916TIP3   OH248162   4.032   2.885  11.895 -0.7790  0.1005  0.0240
 8916TIP3    H148163   4.061   2.886  11.804  0.2900  0.9038  0.3358
 8916TIP3    H248164   4.090   2.948  11.938 -1.1096 -0.4404  1.3039
 8917TIP3   OH248165   4.936   6.412   6.028  0.1599  0.4374 -0.3478
 8917TIP3    H148166   4.923   6.477   6.097  1.3700 -0.9914  1.3172
 8917TIP3    H248167   4.869   6.433   5.963 -0.0618  2.7695  0.5212
 8918TIP3   OH248168   5.071   5.372  13.747 -0.2317 -0.2779  0.1527
 8918TIP3    H148169   5.030   5.390  13.662  0.7431  1.8660  0.0798
 8918TIP3    H248170   5.150   5.322  13.724  0.1044  0.4167 -0.2334
 8919TIP3   OH248171   6.727   1.556   3.635 -0.3972 -0.3056  0.5617
 8919TIP3    H148172   6.693   1.481   3.684 -1.8745 -1.3765 -1.9287
 8919TIP3    H248173   6.717   1.532   3.543  0.1555  2.5025 -0.3393
 8920TIP3   OH248174   3.805   1.617   0.332  0.1320  0.4920 -0.0375
 8920TIP3    H148175   3.842   1.637   0.419 -2.1419 -2.1031  1.6810
 8920TIP3    H248176   3.746   1.690   0.314  0.0001  0.6585  1.0049
 8921TIP3   OH248177   5.144   0.685  11.216 -0.0005 -0.3601 -0.0774
 8921TIP3    H148178   5.224   0.642  11.185 -1.2915 -2.1990 -0.9702
 8921TIP3    H248179   5.173   0.774  11.240  2.0272 -0.5123 -1.7063
 8922TIP3   OH248180   3.000   6.316  13.934 -0.0011 -0.4938  0.1853
 8922TIP3    H148181   2.928   6.303  13.995 -2.3888 -2.4990 -2.7303
 8922TIP3    H248182   2.983   6.402  13.895 -0.1709 -0.4665  0.3185
 8923TIP3   OH248183   1.001   2.688  15.863 -0.3451 -0.4671 -0.1149
 8923TIP3    H148184   0.989   2.762  15.803 -1.2037  0.1766  0.8074
 8923TIP3    H248185   1.061   2.721  15.930 -0.6865 -0.6133  0.2690
 8924TIP3   OH248186   4.696   2.897  13.939 -0.4766  0.0793 -0.0863
 8924TIP3    H148187   4.698   2.809  13.901 -0.9925 -0.4584  1.0950
 8924TIP3    H248188   4.607   2.905  13.975  0.6925 -0.4258  3.2368
 8925TIP3   OH248189   1.229   1.033  12.896  0.0906 -0.3288 -0.1364
 8925TIP3    H148190   1.159   1.004  12.954  0.7495 -1.6355  0.0276
 8925TIP3    H248191   1.268   1.108  12.942 -0.7676 -0.0095  0.0823
 8926TIP3   OH248192   2.598   4.265  14.800  0.3068 -1.1622 -0.0572
 8926TIP3    H148193   2.530   4.320  14.760  1.3642  0.7134  0.6196
 8926TIP3    H248194   2.657   4.245  14.727  0.6504 -0.2243 -0.0498
 8927TIP3   OH248195   2.933   2.974  13.699  0.4021  0.0535  0.1812
 8927TIP3    H148196   2.907   3.026  13.775 -1.4404 -0.5069 -0.0134
 8927TIP3    H248197   2.925   3.035  13.625  0.4201  0.1011  0.2182
 8928TIP3   OH248198   3.248   6.656  14.984 -0.2655 -0.3158  0.5992
 8928TIP3    H148199   3.201   6.739  14.988  0.7093  0.4081 -1.2415
 8928TIP3    H248200   3.303   6.655  15.062  0.9234  1.6128 -0.1314
 8929TIP3   OH248201   6.029   2.749   1.070  0.0332 -0.0237 -0.0156
 8929TIP3    H148202   6.053   2.816   1.006 -0.5229 -0.0475 -0.2588
 8929TIP3    H248203   6.112   2.712   1.098  0.3035  0.2331 -0.4598
 8930TIP3   OH248204   0.967   3.959  13.945 -0.0023 -0.6080  0.1625
 8930TIP3    H148205   1.029   3.965  14.017 -0.1874 -1.0037  0.3565
 8930TIP3    H248206   0.895   4.017  13.971  0.4769  0.2104 -0.2718
 8931TIP3   OH248207   2.125   1.520  10.916 -0.2991  0.0022  0.0720
 8931TIP3    H148208   2.165   1.435  10.938  0.3399  0.4409  0.6461
 8931TIP3    H248209   2.034   1.512  10.944 -0.5025 -0.8224 -0.7518
 8932TIP3   OH248210   6.092   2.460   0.368 -0.3603  0.3248  0.4013
 8932TIP3    H148211   6.029   2.404   0.414 -0.5656 -0.6528 -1.0002
 8932TIP3    H248212   6.062   2.460   0.277  0.5642  1.4404  0.0694
 8933TIP3   OH248213   0.938   2.990  12.088 -0.2919  0.0608 -0.0034
 8933TIP3    H148214   0.921   2.995  12.182 -3.7552 -0.6675 -0.4413
 8933TIP3    H248215   0.873   3.048  12.049  0.6787 -0.0961 -1.9784
 8934TIP3   OH248216   4.946   4.751   2.069 -0.5184 -0.8917 -0.6828
 8934TIP3    H148217   4.862   4.789   2.094 -0.4584 -0.7272 -0.7243
 8934TIP3    H248218   4.998   4.753   2.149 -0.4737 -0.7679 -0.7133
 8935TIP3   OH248219   5.287   1.006  13.446  0.1426  0.1632 -0.0733
 8935TIP3    H148220   5.367   1.012  13.395 -1.3810  0.6893 -2.5720
 8935TIP3    H248221   5.260   1.097  13.460  0.0838 -0.0028  0.9467
 8936TIP3   OH248222   2.116   0.903  15.513 -0.4773  0.6945 -0.3191
 8936TIP3    H148223   2.085   0.874  15.428 -3.6107  1.0744  0.5778
 8936TIP3    H248224   2.115   0.999  15.508 -0.0438  0.7198 -0.0311
 8937TIP3   OH248225   2.224   2.015  12.999  0.4834 -0.2619 -0.4447
 8937TIP3    H148226   2.214   1.925  12.969 -1.1685 -0.1857 -0.2179
 8937TIP3    H248227   2.134   2.048  13.009  1.0320  1.1237  0.3341
 8938TIP3   OH248228   4.580   1.854   0.253 -0.9455 -0.3047 -0.0321
 8938TIP3    H148229   4.545   1.780   0.202  0.6626 -1.3385  0.3004
 8938TIP3    H248230   4.608   1.814   0.336 -0.0938  0.6859  0.1735
 8939TIP3   OH248231   3.157   3.272   4.551  0.0754  0.2232 -0.1715
 8939TIP3    H148232   3.168   3.178   4.535 -1.2077 -0.0038  0.2078
 8939TIP3    H248233   3.163   3.312   4.464  1.5553 -0.0817 -0.2426
 8940TIP3   OH248234   3.055   4.628  14.184 -0.4250 -0.0992 -0.5712
 8940TIP3    H148235   3.105   4.611  14.264 -0.9339  1.8799  0.2393
 8940TIP3    H248236   2.964   4.610  14.209 -0.4599 -0.6703 -1.0959
 8941TIP3   OH248237   2.702   1.867  16.264  0.3710  0.5998  0.1115
 8941TIP3    H148238   2.668   1.832  16.182 -0.8151 -0.0349  0.8400
 8941TIP3    H248239   2.775   1.810  16.287 -1.6561 -1.6900  1.3915
 8942TIP3   OH248240   2.366   0.817  14.661 -0.2758  0.4700  0.6536
 8942TIP3    H148241   2.293   0.760  14.684  0.5386 -0.6077  0.6025
 8942TIP3    H248242   2.444   0.772  14.692  0.5959  0.4265 -1.4232
 8943TIP3   OH248243   6.611   2.842   4.959 -0.0918  0.4891 -0.0518
 8943TIP3    H148244   6.547   2.895   4.912 -0.3982  1.0338  0.9635
 8943TIP3    H248245   6.569   2.820   5.042 -0.2857 -2.0446 -0.7624
 8944TIP3   OH248246   0.212   0.288  16.410 -0.0751  0.0184  0.8123
 8944TIP3    H148247   0.268   0.211  16.418  0.1514 -0.0993 -1.3239
 8944TIP3    H248248   0.249   0.351  16.471  1.2801 -0.7077  0.7808
 8945TIP3   OH248249   2.179   1.692  15.205 -0.2732 -0.0100  0.3956
 8945TIP3    H148250   2.100   1.642  15.227 -0.5205 -0.1463 -0.7489
 8945TIP3    H248251   2.148   1.782  15.196 -0.0889  0.1224  1.0132
 8946TIP3   OH248252   5.458   5.497   1.003  0.2267 -0.1531 -0.4427
 8946TIP3    H148253   5.417   5.559   0.942 -1.9355 -0.2969  0.7352
 8946TIP3    H248254   5.490   5.552   1.075 -1.8953 -0.2951  0.7132
 8947TIP3   OH248255   1.551   1.835  12.824  0.0844 -0.3766  0.2314
 8947TIP3    H148256   1.516   1.899  12.886 -0.0964  0.8847 -1.1340
 8947TIP3    H248257   1.587   1.887  12.753 -1.9382 -1.7649 -1.9551
 8948TIP3   OH248258   1.889   3.049   4.505  0.6532 -0.2245  0.6958
 8948TIP3    H148259   1.861   2.959   4.516  1.1328 -0.5000 -0.2442
 8948TIP3    H248260   1.934   3.051   4.421  0.2017  1.0018  0.4519
 8949TIP3   OH248261   4.857   0.105   4.800 -0.2798  0.2338  0.5056
 8949TIP3    H148262   4.866   0.062   4.716  0.3246 -1.3504  1.3498
 8949TIP3    H248263   4.944   0.097   4.841 -0.5463  1.0162  1.2599
 8950TIP3   OH248264   2.089   5.543  10.940  0.1959 -0.0648 -0.5544
 8950TIP3    H148265   2.048   5.497  10.866  3.1253  1.4506 -3.3340
 8950TIP3    H248266   2.169   5.493  10.958  0.2749  0.4565  0.6435
 8951TIP3   OH248267   3.455   5.872   3.173 -0.0308  0.1784 -0.3829
 8951TIP3    H148268   3.546   5.900   3.174 -0.3008  1.1023 -0.4864
 8951TIP3    H248269   3.405   5.953   3.164 -0.8089 -0.4367 -2.0273
 8952TIP3   OH248270   2.031   0.347  13.451 -0.6278  0.4905  0.2128
 8952TIP3    H148271   2.050   0.441  13.450 -2.0713  0.8137 -1.9607
 8952TIP3    H248272   2.117   0.306  13.454  0.2239  1.9083 -2.1871
 8953TIP3   OH248273   3.126   0.794   3.548 -0.4412  0.1075  0.0495
 8953TIP3    H148274   3.143   0.859   3.616  2.2587 -2.7857  2.5235
 8953TIP3    H248275   3.206   0.793   3.496 -0.3040 -1.3678  0.2536
 8954TIP3   OH248276   4.660   0.147  10.609  0.1969  0.6281 -0.2818
 8954TIP3    H148277   4.693   0.234  10.587 -0.2177  1.6563  2.7450
 8954TIP3    H248278   4.709   0.122  10.687 -1.1859 -0.9153  0.1481
 8955TIP3   OH248279   4.301   1.846  11.407  0.4242 -0.3251  0.0225
 8955TIP3    H148280   4.268   1.935  11.397  1.8308  0.0636 -1.7102
 8955TIP3    H248281   4.234   1.791  11.366  0.3560  0.1257 -0.4853
 8956TIP3   OH248282   2.787   4.308   4.115 -0.7683  0.3914  0.1437
 8956TIP3    H148283   2.758   4.220   4.090 -0.8131  0.5243 -0.2778
 8956TIP3    H248284   2.834   4.340   4.038  2.1151 -0.5111  1.3694
 8957TIP3   OH248285   4.977   1.171   2.459 -0.0143  0.0397 -0.4958
 8957TIP3    H148286   5.004   1.257   2.428  2.6904 -1.0530 -1.5220
 8957TIP3    H248287   4.893   1.155   2.417 -1.1969  2.6101  0.6792
 8958TIP3   OH248288   2.349   5.101  15.432  0.0753  0.2369 -0.0081
 8958TIP3    H148289   2.362   5.126  15.341  1.5166 -0.5873 -0.0547
 8958TIP3    H248290   2.389   5.171  15.483  0.4444  0.0541 -0.0447
 8959TIP3   OH248291   3.846   0.112  11.917  0.3205 -0.6544 -0.4947
 8959TIP3    H148292   3.928   0.160  11.904 -0.7782  1.1022 -1.3363
 8959TIP3    H248293   3.834   0.109  12.012  2.0522 -2.2448 -0.2755
 8960TIP3   OH248294   4.750   2.683   5.021  0.0594  0.5177  0.2277
 8960TIP3    H148295   4.758   2.634   4.939  0.0718  0.9197 -0.0184
 8960TIP3    H248296   4.669   2.650   5.061 -1.5711  2.2909 -1.3538
 8961TIP3   OH248297   1.890   4.379  17.246  0.2362 -0.0925  0.0001
 8961TIP3    H148298   1.961   4.350  17.304  0.8417 -1.3917 -1.3131
 8961TIP3    H248299   1.914   4.468  17.221  1.2558 -0.4018 -0.1761
 8962TIP3   OH248300   0.178   1.825   3.354 -0.1377  0.5086  0.0223
 8962TIP3    H148301   0.251   1.766   3.336 -0.2241  0.2868  0.3882
 8962TIP3    H248302   0.198   1.864   3.439  0.1784  1.4134 -0.4532
 8963TIP3   OH248303   2.690   0.038   1.857 -0.0039  0.6748 -0.3486
 8963TIP3    H148304   2.622   0.009   1.917  1.1672  0.3900  0.8849
 8963TIP3    H248305   2.737  -0.041   1.833  2.3296  1.2495  1.9292
 8964TIP3   OH248306   2.703   1.889   2.710 -0.1519  0.2823 -0.1241
 8964TIP3    H148307   2.631   1.944   2.742 -1.6092 -1.0973 -0.8914
 8964TIP3    H248308   2.782   1.932   2.743 -1.2345  2.5448 -0.2950
 8965TIP3   OH248309   5.325   0.962   4.267  0.0517 -0.2206 -0.1106
 8965TIP3    H148310   5.343   0.933   4.356 -0.7703 -3.1379 -0.7866
 8965TIP3    H248311   5.251   1.023   4.277  1.0043  0.7631  1.3045
 8966TIP3   OH248312   4.288   3.378  12.708 -0.0077 -0.0961 -0.1347
 8966TIP3    H148313   4.252   3.301  12.753 -1.8288  0.6581 -0.1849
 8966TIP3    H248314   4.211   3.423  12.674  1.0390  1.5979 -0.3628
 8967TIP3   OH248315   1.572   2.190  13.331 -0.0993 -0.0519  0.3367
 8967TIP3    H148316   1.484   2.177  13.365 -0.1397  0.9252  0.6491
 8967TIP3    H248317   1.562   2.187  13.236 -0.4116 -0.2747  0.3749
 8968TIP3   OH248318   0.629   5.697  13.306  0.3062 -0.2618  0.0382
 8968TIP3    H148319   0.552   5.742  13.271 -0.2357 -1.0630  0.1840
 8968TIP3    H248320   0.643   5.737  13.392 -1.0313 -1.3341  0.7738
 8969TIP3   OH248321   4.555   4.731  16.329 -0.1460 -0.1472 -0.5544
 8969TIP3    H148322   4.483   4.748  16.268  0.7426 -3.1908 -2.6506
 8969TIP3    H248323   4.529   4.653  16.377  1.0762 -0.3229 -0.1398
 8970TIP3   OH248324   5.851   5.886  14.773 -0.4055 -0.0127 -0.1803
 8970TIP3    H148325   5.781   5.937  14.814  0.1771 -0.1433  1.0147
 8970TIP3    H248326   5.811   5.801  14.756  0.0543 -0.9245  2.7204
 8971TIP3   OH248327   0.027   1.351   3.275  0.0354  0.3877 -0.2718
 8971TIP3    H148328   0.042   1.313   3.362  0.2255  0.4857 -0.2610
 8971TIP3    H248329  -0.029   1.427   3.292 -0.6550 -0.0924 -0.3339
 8972TIP3   OH248330   6.512   4.010   5.811 -0.6792 -0.2782  0.7722
 8972TIP3    H148331   6.439   4.039   5.865 -1.7262 -0.4702 -0.4742
 8972TIP3    H248332   6.564   4.089   5.796 -1.4759  0.2040  0.4410
 8973TIP3   OH248333   6.097   0.819  15.111  0.4981 -0.2469  0.1686
 8973TIP3    H148334   6.121   0.728  15.093 -0.5644 -0.9619  2.0734
 8973TIP3    H248335   6.127   0.867  15.034 -1.3820 -2.6012 -2.1955
 8974TIP3   OH248336   3.808   6.736  15.594  0.8054  0.2003 -0.6508
 8974TIP3    H148337   3.847   6.708  15.511  0.9147 -1.2537 -0.1308
 8974TIP3    H248338   3.883   6.764  15.647  0.9388 -0.6567 -0.3790
 8975TIP3   OH248339   3.992   2.225  15.961 -0.1456 -0.1149  0.0243
 8975TIP3    H148340   3.942   2.307  15.951 -0.1340 -0.3038 -2.0215
 8975TIP3    H248341   4.083   2.253  15.963 -0.0931 -0.1086 -1.5805
 8976TIP3   OH248342   1.664   3.185  13.203 -0.1870  0.6470 -0.3572
 8976TIP3    H148343   1.744   3.161  13.157 -0.2718 -2.0837  0.7374
 8976TIP3    H248344   1.694   3.244  13.272  0.6891  0.6782 -0.7450
 8977TIP3   OH248345   2.145   4.883   3.885  0.0167  0.6686 -0.7581
 8977TIP3    H148346   2.161   4.851   3.974  0.2871  2.3758 -0.1523
 8977TIP3    H248347   2.072   4.944   3.894 -0.6343  0.1016 -1.9121
 8978TIP3   OH248348   1.074   0.529  12.894  0.1485 -0.7103  0.5832
 8978TIP3    H148349   1.126   0.453  12.867 -0.2399 -0.2022 -1.7939
 8978TIP3    H248350   1.138   0.587  12.936  1.0474 -1.1141 -0.1729
 8979TIP3   OH248351   6.433   5.327  15.782  0.4633 -0.0045 -0.2975
 8979TIP3    H148352   6.405   5.240  15.809  0.7117  0.0089  0.0156
 8979TIP3    H248353   6.527   5.319  15.767  0.8422  0.5993  1.4470
 8980TIP3   OH248354   3.662   4.027  14.554 -0.4724  0.4391  0.4295
 8980TIP3    H148355   3.670   4.122  14.542  0.5521  0.4141  0.7803
 8980TIP3    H248356   3.657   3.992  14.466  0.0459  0.7641  0.2659
 8981TIP3   OH248357   4.807   6.635  14.579  0.3111  0.0900 -0.3211
 8981TIP3    H148358   4.879   6.592  14.533  0.6893 -0.4647  0.7568
 8981TIP3    H248359   4.818   6.728  14.559  0.4711 -0.1341 -1.3278
 8982TIP3   OH248360   4.748   6.402  11.409  0.2475 -0.3367 -0.3083
 8982TIP3    H148361   4.784   6.471  11.465  0.1090 -0.8014  0.3681
 8982TIP3    H248362   4.653   6.412  11.417  0.2276 -0.4363 -0.4200
 8983TIP3   OH248363   0.715   2.085  15.948 -0.1904 -0.4355 -0.0700
 8983TIP3    H148364   0.757   2.008  15.987  0.6085 -0.4014 -0.8252
 8983TIP3    H248365   0.788   2.143  15.926 -0.8884  1.5076  2.3931
 8984TIP3   OH248366   3.260   0.531   1.758 -0.4729 -0.1119 -0.2926
 8984TIP3    H148367   3.352   0.517   1.738 -1.0312 -4.0644 -0.9079
 8984TIP3    H248368   3.233   0.601   1.698  2.0888  1.3386  0.0874
 8985TIP3   OH248369   2.257   3.245  15.903  0.2390  0.4268  0.1640
 8985TIP3    H148370   2.346   3.260  15.935  0.1921  1.1346 -0.0284
 8985TIP3    H248371   2.221   3.332  15.888 -1.3346  0.2621  2.4931
 8986TIP3   OH248372   2.273   3.943   2.682 -0.2584  0.1674 -0.5000
 8986TIP3    H148373   2.312   3.963   2.597 -2.2775 -0.3349 -1.5984
 8986TIP3    H248374   2.181   3.965   2.672 -0.3899  0.9689  1.8873
 8987TIP3   OH248375   2.928   2.054   3.044 -0.0185 -0.1586 -0.1248
 8987TIP3    H148376   2.919   1.959   3.047 -0.5123 -0.1639 -1.3786
 8987TIP3    H248377   2.843   2.085   3.012 -0.5012  0.8461  1.9038
 8988TIP3   OH248378   6.159   1.699  13.651 -0.4320  0.3324 -0.1853
 8988TIP3    H148379   6.088   1.666  13.595  0.4870  0.5759 -1.5457
 8988TIP3    H248380   6.218   1.744  13.591  1.2511 -0.4608  0.7936
 8989TIP3   OH248381   3.257   0.185   4.071  0.4526  0.3126  0.4182
 8989TIP3    H148382   3.311   0.108   4.053  0.1517  0.1533  0.1941
 8989TIP3    H248383   3.222   0.211   3.986 -0.5622 -0.1382  0.6817
 8990TIP3   OH248384   6.441   0.996  11.176 -0.0068  0.0578  0.0866
 8990TIP3    H148385   6.433   0.916  11.227  2.5179  0.4406  1.2379
 8990TIP3    H248386   6.532   0.998  11.147  0.4352  3.0981  1.2468
 8991TIP3   OH248387   5.918   1.804   1.138 -0.4019  0.0518  0.4143
 8991TIP3    H148388   5.826   1.779   1.144 -0.0088 -2.0361 -1.0329
 8991TIP3    H248389   5.966   1.722   1.148  1.3039  1.0036  0.5206
 8992TIP3   OH248390   1.033   4.412   0.147 -0.0680 -0.1307  0.2224
 8992TIP3    H148391   1.108   4.461   0.180 -0.7436  1.9203 -1.0872
 8992TIP3    H248392   1.055   4.394   0.055 -1.6636  1.6417 -0.5539
 8993TIP3   OH248393   2.177   6.329  16.477 -0.0927  0.4115  0.1700
 8993TIP3    H148394   2.125   6.302  16.553  0.4551 -0.0810  0.3834
 8993TIP3    H248395   2.146   6.273  16.406 -0.3798  0.6432  0.1151
 8994TIP3   OH248396   1.032   3.907   6.436 -0.4294 -0.9975 -0.4780
 8994TIP3    H148397   0.948   3.873   6.467 -0.7983 -0.6735 -1.0963
 8994TIP3    H248398   1.097   3.846   6.470 -0.7753 -0.4458  1.2213
 8995TIP3   OH248399   2.885   0.704   2.808  0.1852 -0.4014 -0.3116
 8995TIP3    H148400   2.967   0.736   2.847 -0.0764  1.4143 -1.1595
 8995TIP3    H248401   2.910   0.676   2.720 -0.1903  0.8298 -0.8337
 8996TIP3   OH248402   2.978   4.291  13.952 -0.2605  0.1628  0.3510
 8996TIP3    H148403   2.910   4.239  13.995 -0.6042  2.0385  2.2491
 8996TIP3    H248404   2.935   4.372  13.927  0.8868  0.6983  0.0572
 8997TIP3   OH248405   6.136   3.654  13.064  0.3634  0.4357 -0.1950
 8997TIP3    H148406   6.196   3.719  13.098  0.8712 -0.0220 -0.2052
 8997TIP3    H248407   6.049   3.684  13.091  0.5917  1.1295 -0.2351
 8998TIP3   OH248408   5.498   5.573   2.530  0.3047 -0.0614 -0.0620
 8998TIP3    H148409   5.495   5.615   2.616  1.7396 -0.8730  0.4291
 8998TIP3    H248410   5.516   5.645   2.469 -1.4686  0.6399  0.1755
 8999TIP3   OH248411   4.411   0.111  12.700 -0.6180 -0.2503  0.0139
 8999TIP3    H148412   4.462   0.116  12.781  1.6548 -0.3289 -1.3074
 8999TIP3    H248413   4.448   0.180  12.645 -0.2344 -1.8804 -1.8920
 9000TIP3   OH248414   0.759   1.390  16.874  0.0234  0.2395  0.9174
 9000TIP3    H148415   0.769   1.445  16.951  0.2395  0.0186  1.0490
 9000TIP3    H248416   0.768   1.450  16.800 -2.0740  0.7984  1.0448
 9001TIP3   OH248417   5.088   2.703  12.984 -0.1318 -0.0756  0.0290
 9001TIP3    H148418   5.129   2.651  13.052  1.8981  0.7974 -0.4395
 9001TIP3    H248419   5.048   2.777  13.030  2.0243  1.0146  0.2967
 9002TIP3   OH248420   0.303   0.088   4.643  0.1541 -0.0304  0.2510
 9002TIP3    H148421   0.223   0.068   4.692 -2.0950 -0.4612 -3.2718
 9002TIP3    H248422   0.324   0.178   4.668 -1.6557  0.2338  0.9998
 9003TIP3   OH248423   5.228   3.517  16.840 -0.4919  0.1158  0.2691
 9003TIP3    H148424   5.191   3.479  16.920 -1.3598  1.8030  0.7162
 9003TIP3    H248425   5.314   3.549  16.867 -0.1895 -0.5663  0.1471
 9004TIP3   OH248426   6.564   5.257  14.185  0.0860  0.0518  0.1778
 9004TIP3    H148427   6.570   5.165  14.159 -0.0154  0.2402 -0.5274
 9004TIP3    H248428   6.653   5.280  14.210  0.1670 -0.1633  0.0922
 9005TIP3   OH248429   3.366   2.977   4.880  0.7485  0.0587 -0.0749
 9005TIP3    H148430   3.284   3.000   4.923 -0.3196 -0.6148 -1.6630
 9005TIP3    H248431   3.390   3.056   4.831  1.3851  0.4502  0.8324
 9006TIP3   OH248432   0.048   4.074  13.194  0.3508  0.3701  0.1555
 9006TIP3    H148433   0.116   4.013  13.221 -0.3525 -0.3794  0.2509
 9006TIP3    H248434   0.091   4.160  13.196  1.1503 -0.0300  0.7029
 9007TIP3   OH248435   3.300   4.923   4.903  0.2057 -0.0034 -0.4186
 9007TIP3    H148436   3.222   4.923   4.958  1.4853 -0.0358  1.4641
 9007TIP3    H248437   3.266   4.903   4.815 -1.9419  0.4642  0.2357
 9008TIP3   OH248438   2.150   5.277  16.537  0.5417 -0.7655  0.0544
 9008TIP3    H148439   2.074   5.219  16.545 -1.3301  1.1398 -2.1050
 9008TIP3    H248440   2.221   5.231  16.580 -2.4014 -1.4101  5.0036
 9009TIP3   OH248441   2.931   0.035   6.502 -0.1393 -0.1835 -0.1919
 9009TIP3    H148442   2.958  -0.057   6.509 -0.1799 -0.2551 -0.8485
 9009TIP3    H248443   2.861   0.044   6.567 -1.0359 -0.9802 -1.0034
 9010TIP3   OH248444   6.275   2.360  15.814 -0.2601  0.3546 -0.0695
 9010TIP3    H148445   6.263   2.428  15.749  0.6987 -0.0857 -0.7310
 9010TIP3    H248446   6.363   2.375  15.849 -1.1549  1.2642  1.9504
 9011TIP3   OH248447   6.520   6.121   1.853  0.1572 -0.6433 -0.1989
 9011TIP3    H148448   6.475   6.037   1.842  0.4022 -0.7938 -0.0538
 9011TIP3    H248449   6.613   6.099   1.848  0.2192 -0.3525 -0.3559
 9012TIP3   OH248450   5.482   2.731   6.448 -0.1577  0.5396 -0.1065
 9012TIP3    H148451   5.417   2.668   6.419  0.6151 -0.5870  0.5424
 9012TIP3    H248452   5.447   2.765   6.531  0.4200 -0.6448  0.6457
 9013TIP3   OH248453   3.149   4.599   0.581  0.3072 -0.2384 -0.8310
 9013TIP3    H148454   3.114   4.511   0.593  0.9082 -0.5452 -1.2507
 9013TIP3    H248455   3.081   4.657   0.614 -0.0809 -0.8616 -0.5147
 9014TIP3   OH248456   4.947   0.872  13.036 -0.4951 -0.1864 -0.7024
 9014TIP3    H148457   5.016   0.865  12.969  1.1785  0.8588  0.8201
 9014TIP3    H248458   4.972   0.948  13.087 -1.7299 -0.9476  1.1118
 9015TIP3   OH248459   3.691   4.784   0.077  0.1624 -0.4808  0.4846
 9015TIP3    H148460   3.730   4.697   0.065 -1.5094 -1.3573  1.0350
 9015TIP3    H248461   3.671   4.789   0.170 -0.5129  0.1535  0.3159
 9016TIP3   OH248462   1.699   3.205   4.996  0.4147 -0.4634 -0.2681
 9016TIP3    H148463   1.638   3.226   4.926  1.1335  2.1945 -0.1762
 9016TIP3    H248464   1.753   3.283   5.007  1.9866 -1.6891  1.5718
 9017TIP3   OH248465   2.851   0.011  13.479  0.4067  0.1761 -0.0834
 9017TIP3    H148466   2.877  -0.035  13.558 -0.0831 -0.5843 -0.3563
 9017TIP3    H248467   2.810   0.092  13.511 -0.7590 -0.6147  0.4996
 9018TIP3   OH248468   4.260   4.201  14.927 -0.2548 -0.1481  0.1010
 9018TIP3    H148469   4.176   4.155  14.920 -0.0440 -0.5777  0.3548
 9018TIP3    H248470   4.273   4.213  15.021 -0.3511  0.5174  0.0314
 9019TIP3   OH248471   1.033   4.505   4.109 -0.1494  0.2192  0.2524
 9019TIP3    H148472   1.002   4.449   4.180  0.5001 -1.3789 -0.6664
 9019TIP3    H248473   1.121   4.532   4.136 -1.1735  2.4561  1.5785
 9020TIP3   OH248474   2.431   4.437   0.924 -0.2477  0.3218  0.3930
 9020TIP3    H148475   2.358   4.449   0.863 -0.8516 -0.2504  0.9866
 9020TIP3    H248476   2.391   4.396   1.001  0.5818  0.6349  0.9976
 9021TIP3   OH248477   6.694   4.154   3.943 -0.3248 -0.3038 -0.0838
 9021TIP3    H148478   6.747   4.150   4.022 -1.6215  1.5109  0.9472
 9021TIP3    H248479   6.608   4.120   3.969 -0.3473 -1.0987 -1.1301
 9022TIP3   OH248480   3.481   5.466  13.518 -0.1832 -0.1461  0.2665
 9022TIP3    H148481   3.531   5.403  13.468  0.3733  0.7853 -0.3800
 9022TIP3    H248482   3.545   5.532  13.545 -1.0247  1.0657 -0.5702
 9023TIP3   OH248483   6.555   1.645  15.980 -0.6232 -0.0724  0.2223
 9023TIP3    H148484   6.525   1.680  16.064 -0.9837  0.6082 -0.1778
 9023TIP3    H248485   6.632   1.593  16.002 -0.9091 -0.1785  1.0168
 9024TIP3   OH248486   2.732   2.285   1.960  0.6503 -0.1173  0.1531
 9024TIP3    H148487   2.660   2.264   2.019  0.5123 -2.1535 -0.6535
 9024TIP3    H248488   2.694   2.279   1.872  0.9928  2.2802 -0.2286
 9025TIP3   OH248489   1.617   3.064  14.620  0.1041  0.4589 -0.0968
 9025TIP3    H148490   1.536   3.014  14.607  0.3949  0.3461 -1.7290
 9025TIP3    H248491   1.604   3.144  14.569  1.8305 -0.5517 -2.3269
 9026TIP3   OH248492   1.759   5.855  16.675 -0.1363  0.1620 -0.0133
 9026TIP3    H148493   1.760   5.865  16.579  1.3957 -0.6848 -0.1246
 9026TIP3    H248494   1.763   5.760  16.689  0.9900  0.3146  0.8606
 9027TIP3   OH248495   4.845   5.731   0.553  0.2325 -0.4899  0.0367
 9027TIP3    H148496   4.846   5.778   0.637  0.1374  0.4362 -0.4778
 9027TIP3    H248497   4.937   5.711   0.536  0.5113  1.2798 -0.7136
 9028TIP3   OH248498   2.769   0.710  11.471  0.3321 -0.4119 -0.0893
 9028TIP3    H148499   2.775   0.754  11.556  0.3155  0.7702 -0.6785
 9028TIP3    H248500   2.860   0.694  11.446  0.3751  0.0629 -0.2514
 9029TIP3   OH248501   0.786   0.107  13.992 -0.2956 -0.1353 -0.3448
 9029TIP3    H148502   0.744   0.039  13.941  1.2037 -0.2175 -1.5461
 9029TIP3    H248503   0.814   0.172  13.928  1.8583 -0.3590  0.2840
 9030TIP3   OH248504   1.326   4.787   4.289 -0.5094 -0.1363 -0.4083
 9030TIP3    H148505   1.396   4.837   4.245 -0.0429 -1.0026 -0.6713
 9030TIP3    H248506   1.313   4.832   4.372 -0.6181  0.8639 -0.9482
 9031TIP3   OH248507   4.501   1.848  16.690 -0.0831  0.1285 -0.1892
 9031TIP3    H148508   4.585   1.811  16.662  0.3750  0.7392  0.3382
 9031TIP3    H248509   4.503   1.938  16.656 -0.4683  0.1859 -0.0544
 9032TIP3   OH248510   1.992   2.048   4.215  0.0555 -0.2194 -0.2192
 9032TIP3    H148511   1.917   2.072   4.269  0.2421  0.5228 -0.2719
 9032TIP3    H248512   2.032   2.132   4.192  1.0532 -0.6253  0.0267
 9033TIP3   OH248513   0.760   1.422   1.150 -0.1183 -0.0689  0.1489
 9033TIP3    H148514   0.734   1.330   1.138  0.3338  0.0051 -1.5763
 9033TIP3    H248515   0.856   1.420   1.149 -0.0327  0.1951  2.2818
 9034TIP3   OH248516   3.390   6.553  12.583 -0.0933  0.1273 -0.2686
 9034TIP3    H148517   3.376   6.581  12.492 -0.7625 -0.6817 -0.4275
 9034TIP3    H248518   3.302   6.541  12.618  0.1341  1.5730  0.8762
 9035TIP3   OH248519   0.020   3.019  13.703  0.1586  0.1544 -0.1927
 9035TIP3    H148520   0.046   2.927  13.700 -0.5488 -0.0282 -1.2562
 9035TIP3    H248521  -0.016   3.031  13.791 -0.2271 -0.7275 -0.2145
 9036TIP3   OH248522   3.215   0.081   2.043 -0.6327 -0.5691  0.3691
 9036TIP3    H148523   3.146   0.084   2.110  0.9031 -0.0397  1.9919
 9036TIP3    H248524   3.231  -0.012   2.030 -0.9552 -0.6799  0.7412
 9037TIP3   OH248525   6.229   5.670   4.834  0.5001  0.0572  0.3700
 9037TIP3    H148526   6.252   5.577   4.825 -0.1319 -0.1098  0.3638
 9037TIP3    H248527   6.141   5.668   4.872  1.2623  0.6824  2.2844
 9038TIP3   OH248528   6.397   4.865  13.816 -1.1232  0.0380  0.2685
 9038TIP3    H148529   6.437   4.782  13.792 -0.7730  0.5630 -1.1232
 9038TIP3    H248530   6.436   4.888  13.900 -1.2886 -1.2256  0.7108
 9039TIP3   OH248531   6.670   5.133  13.121 -0.5633 -0.5850  0.4343
 9039TIP3    H148532   6.617   5.205  13.156  1.7233  1.1058  0.7030
 9039TIP3    H248533   6.645   5.126  13.029 -0.3388  1.0983  0.2172
 9040TIP3   OH248534   0.530   2.036  14.862  0.1369 -0.5780  0.1581
 9040TIP3    H148535   0.587   1.985  14.920 -0.9400 -1.0632  0.8246
 9040TIP3    H248536   0.536   2.125  14.896  0.9282 -0.5084 -0.1345
 9041TIP3   OH248537   3.860   1.751  11.342  0.1009 -0.2519  0.6731
 9041TIP3    H148538   3.783   1.758  11.399  0.4648 -1.1214  1.2870
 9041TIP3    H248539   3.838   1.805  11.266 -0.3957  0.9430  1.6299
 9042TIP3   OH248540   4.501   5.002  15.617 -0.7454  0.0299 -0.4118
 9042TIP3    H148541   4.439   5.063  15.575 -0.1617  1.2665  0.4569
 9042TIP3    H248542   4.557   5.058  15.671 -0.1777 -1.2969  0.4285
 9043TIP3   OH248543   3.103   4.218  16.041 -0.0344 -0.0007 -0.3222
 9043TIP3    H148544   3.089   4.306  16.078 -1.4839 -0.6507  0.8164
 9043TIP3    H248545   3.196   4.201  16.053 -0.3614 -0.1666  3.2868
 9044TIP3   OH248546   2.423   0.809   3.833 -0.3517  0.0270 -0.1662
 9044TIP3    H148547   2.448   0.772   3.918 -0.1998 -0.2896 -0.3482
 9044TIP3    H248548   2.336   0.773   3.815  0.4035 -1.4401 -1.0339
 9045TIP3   OH248549   3.863   2.354  17.132 -0.2169 -0.2912 -0.3538
 9045TIP3    H148550   3.941   2.403  17.157 -0.7375  0.2027  0.3276
 9045TIP3    H248551   3.816   2.412  17.073  0.4411 -1.0062 -1.6157
 9046TIP3   OH248552   0.736   5.976  10.489  0.7918 -0.0643 -0.6146
 9046TIP3    H148553   0.698   6.008  10.571 -1.4048 -1.6012 -0.9200
 9046TIP3    H248554   0.785   6.050  10.454 -0.4082  1.4799  0.8069
 9047TIP3   OH248555   5.723   4.281   4.380 -0.2337 -0.0419  0.2481
 9047TIP3    H148556   5.631   4.305   4.393 -0.6081 -1.0067 -0.5035
 9047TIP3    H248557   5.721   4.186   4.365  0.7408  0.1203 -1.0468
 9048TIP3   OH248558   3.076   2.222  13.963  0.2485 -0.3794 -0.4883
 9048TIP3    H148559   2.997   2.212  14.016  1.4410 -0.2634  1.4111
 9048TIP3    H248560   3.060   2.301  13.912 -1.1948 -0.8379 -0.7973
 9049TIP3   OH248561   6.615   6.550  15.574  0.2571 -0.2098 -0.3634
 9049TIP3    H148562   6.552   6.601  15.624  1.2336  0.3883  0.3019
 9049TIP3    H248563   6.642   6.609  15.503  0.1335 -0.4204 -0.5824
 9050TIP3   OH248564   2.810   1.094  13.471  0.3401  0.4039 -0.0557
 9050TIP3    H148565   2.797   1.024  13.406  2.8512 -2.9906  2.6670
 9050TIP3    H248566   2.902   1.119  13.459  0.5653  0.3826  1.5084
 9051TIP3   OH248567   1.871   1.643   0.969 -0.7889  0.0091 -0.3054
 9051TIP3    H148568   1.843   1.562   0.928  0.3129 -0.4588 -0.1691
 9051TIP3    H248569   1.868   1.708   0.899 -3.6836  0.3853  0.0391
 9052TIP3   OH248570   1.900   1.476  11.051  0.1750  0.0464  0.0575
 9052TIP3    H148571   1.925   1.431  11.131 -1.8000 -0.4507  0.4473
 9052TIP3    H248572   1.846   1.414  11.003 -0.6434  1.1505 -0.5191
 9053TIP3   OH248573   5.219   3.677  13.234 -0.0335  0.0467  0.4441
 9053TIP3    H148574   5.287   3.703  13.172  0.6093  0.7168  1.4063
 9053TIP3    H248575   5.216   3.581  13.228 -0.2876  0.1218 -0.9110
 9054TIP3   OH248576   4.084   6.662   5.323  0.1886  0.0002  0.3868
 9054TIP3    H148577   4.136   6.741   5.334 -1.2594  1.0396  0.0371
 9054TIP3    H248578   4.013   6.671   5.387 -0.5385 -0.5413 -0.3222
 9055TIP3   OH248579   0.066   1.345  11.678  1.0467 -0.1315 -0.0494
 9055TIP3    H148580   0.015   1.303  11.608  0.7148  0.5223 -0.1999
 9055TIP3    H248581   0.038   1.436  11.678  0.8302 -0.1771  1.1393
 9056TIP3   OH248582   3.202   0.965   3.726  0.7846  0.3050  0.1442
 9056TIP3    H148583   3.229   0.909   3.799 -0.2052  0.1541  0.4151
 9056TIP3    H248584   3.195   1.052   3.764 -0.3037  0.1234  0.3871
 9057TIP3   OH248585   5.400   0.745   0.774  0.0595 -0.2480 -0.4044
 9057TIP3    H148586   5.321   0.692   0.779  0.4145 -0.6613  1.5922
 9057TIP3    H248587   5.459   0.696   0.716 -0.7842 -0.3694 -1.1925
 9058TIP3   OH248588   5.748   6.417   5.794 -0.0194  0.2235  0.4060
 9058TIP3    H148589   5.716   6.334   5.829  0.7726 -0.1407  0.2645
 9058TIP3    H248590   5.688   6.437   5.721 -1.0491  0.4755  1.2891
 9059TIP3   OH248591   5.546   2.377  12.929 -0.7274  0.3741  0.1443
 9059TIP3    H148592   5.585   2.350  13.012  0.3278 -1.4517 -0.8908
 9059TIP3    H248593   5.600   2.451  12.899 -0.1526  0.0382  0.3464
 9060TIP3   OH248594   4.363   5.407   1.044  0.0416 -0.2911 -0.4686
 9060TIP3    H148595   4.299   5.369   1.104  1.8587 -1.7365  0.6839
 9060TIP3    H248596   4.411   5.470   1.097  0.3923 -0.1532 -0.9502
 9061TIP3   OH248597   0.759   0.789  13.703  0.1483  0.1564 -0.0144
 9061TIP3    H148598   0.718   0.762  13.621  0.4562  0.9362 -0.4429
 9061TIP3    H248599   0.853   0.782  13.686  0.2345 -1.4862  0.9099
 9062TIP3   OH248600   1.808   3.451   5.040  0.2349 -0.4254  0.0944
 9062TIP3    H148601   1.843   3.468   5.128 -1.4882 -1.9166  1.1516
 9062TIP3    H248602   1.790   3.538   5.004 -1.4665  0.2640  2.3081
 9063TIP3   OH248603   5.234   6.507  13.792 -0.0757 -0.1451  0.6566
 9063TIP3    H148604   5.206   6.585  13.746  0.2424  0.2244  1.0807
 9063TIP3    H248605   5.153   6.459  13.811 -0.3673  0.5847  1.2957
 9064TIP3   OH248606   0.002   6.257   0.846 -0.0724  0.3378  0.0012
 9064TIP3    H148607  -0.091   6.282   0.846 -0.5484 -1.2992  0.9552
 9064TIP3    H248608   0.024   6.250   0.753 -1.3611 -0.7468 -0.2607
 9065TIP3   OH248609   0.149   2.562   0.345 -0.0207  0.0012  0.4035
 9065TIP3    H148610   0.062   2.526   0.330  0.2954 -1.1594  1.1984
 9065TIP3    H248611   0.204   2.521   0.278 -0.1153  0.9353 -0.2687
 9066TIP3   OH248612   5.941   3.406   5.840  1.0156  0.1497  0.5007
 9066TIP3    H148613   5.941   3.311   5.845  0.2371  0.0926 -0.2784
 9066TIP3    H248614   5.970   3.435   5.926 -2.5004 -0.7651  2.1935
 9067TIP3   OH248615   2.957   3.167  13.918  0.5051 -0.3115 -0.1939
 9067TIP3    H148616   2.893   3.226  13.879  2.0647  1.4007 -0.2855
 9067TIP3    H248617   2.917   3.141  14.001  0.1934  1.7743  0.3765
 9068TIP3   OH248618   3.115   2.889   2.219 -0.6192  0.3306  0.7882
 9068TIP3    H148619   3.033   2.842   2.232 -0.3123 -0.7084 -0.7247
 9068TIP3    H248620   3.089   2.970   2.174 -0.7088 -0.8993 -1.5410
 9069TIP3   OH248621   5.742   1.205   0.901  0.0289 -0.1386  0.5892
 9069TIP3    H148622   5.683   1.132   0.882  0.7717 -0.4676 -0.5727
 9069TIP3    H248623   5.828   1.165   0.908  0.3557  0.5449  0.5508
 9070TIP3   OH248624   5.867   3.413  13.655 -0.1095 -0.3127 -0.1452
 9070TIP3    H148625   5.876   3.467  13.577 -0.1687 -1.2125 -0.7864
 9070TIP3    H248626   5.787   3.445  13.697  1.3489  2.0039  1.0422
 9071TIP3   OH248627   5.448   2.883  15.758 -0.3966 -0.2394  0.1621
 9071TIP3    H148628   5.402   2.844  15.832  2.0717 -2.6272  0.6046
 9071TIP3    H248629   5.506   2.949  15.798  0.0510 -0.6683  0.2305
 9072TIP3   OH248630   0.973   4.319  11.946 -0.6366  0.1561 -0.0463
 9072TIP3    H148631   0.975   4.392  11.883  1.8784  0.7631  0.6409
 9072TIP3    H248632   1.006   4.244  11.896 -1.2897 -0.0432 -0.1890
 9073TIP3   OH248633   4.059   2.061  15.720 -0.2192  0.1061 -0.2120
 9073TIP3    H148634   4.111   1.982  15.704 -1.4712 -0.4291 -1.9805
 9073TIP3    H248635   4.123   2.126  15.751  0.9945 -1.3032  0.3884
 9074TIP3   OH248636   3.195   2.084  12.674 -0.1220 -0.0792  0.1968
 9074TIP3    H148637   3.201   2.118  12.764  0.0735 -3.5619  1.6459
 9074TIP3    H248638   3.286   2.066  12.649 -0.3747 -2.6200  0.8724
 9075TIP3   OH248639   0.139   6.018  12.856  0.8208 -0.2926  0.4071
 9075TIP3    H148640   0.218   6.067  12.880  1.5032 -0.8463 -0.6361
 9075TIP3    H248641   0.098   6.070  12.786  1.3180 -0.9674 -0.4046
 9076TIP3   OH248642   1.404   2.828  13.836  0.0568  0.2388  0.6814
 9076TIP3    H148643   1.388   2.852  13.928 -0.7205 -1.2957  0.9848
 9076TIP3    H248644   1.327   2.775  13.812 -0.7432  2.2053 -1.4869
 9077TIP3   OH248645   1.236   5.773   3.562 -0.4605 -0.4065 -0.0973
 9077TIP3    H148646   1.251   5.834   3.489  0.7541 -1.2379 -0.5767
 9077TIP3    H248647   1.165   5.813   3.612  0.1792  1.3299 -0.4817
 9078TIP3   OH248648   4.707   0.191   4.074  0.3461  0.1206  0.3880
 9078TIP3    H148649   4.791   0.180   4.030 -0.2327  0.6173 -0.8839
 9078TIP3    H248650   4.642   0.181   4.004 -0.6025  1.0412  1.1177
 9079TIP3   OH248651   6.192   6.770  14.639 -0.2396  0.0364  0.2308
 9079TIP3    H148652   6.257   6.747  14.572 -0.1868 -0.0827  0.3218
 9079TIP3    H248653   6.239   6.759  14.722 -0.0163  1.0773  0.2597
 9080TIP3   OH248654   4.546   3.304   3.490 -0.4871 -0.2940  0.2970
 9080TIP3    H148655   4.477   3.260   3.538  1.0692 -0.6117  2.3960
 9080TIP3    H248656   4.586   3.236   3.436 -1.9890 -0.0244 -1.2287
 9081TIP3   OH248657   6.684   0.553  10.978 -0.0101 -0.0571 -0.0596
 9081TIP3    H148658   6.736   0.559  11.058 -1.1368  2.1261  0.5760
 9081TIP3    H248659   6.667   0.459  10.969 -0.6196 -0.3461  2.8324
 9082TIP3   OH248660   6.403   1.266   4.121 -0.3933  0.2191  0.6510
 9082TIP3    H148661   6.403   1.361   4.131 -1.0426  0.1483  1.4533
 9082TIP3    H248662   6.472   1.236   4.180  0.2907  0.2272 -0.1270
 9083TIP3   OH248663   6.257   1.265  15.450  0.2268  0.1600  0.2704
 9083TIP3    H148664   6.253   1.354  15.415  0.4742  0.6492  1.4229
 9083TIP3    H248665   6.183   1.220  15.409  1.7214  0.0191 -2.5315
 9084TIP3   OH248666   0.284   4.549   3.327  0.1105 -0.1573  0.5383
 9084TIP3    H148667   0.370   4.508   3.320 -0.0096 -0.1475 -1.3919
 9084TIP3    H248668   0.292   4.608   3.403  1.7634 -0.2493  0.4684
 9085TIP3   OH248669   6.350   1.386  17.078  0.6119 -0.2152  0.4779
 9085TIP3    H148670   6.326   1.400  17.170 -0.3170 -0.9803  0.3676
 9085TIP3    H248671   6.267   1.377  17.033  1.0716 -0.1374 -0.4063
 9086TIP3   OH248672   3.405   2.288   3.427  0.1751 -0.0921 -0.3793
 9086TIP3    H148673   3.481   2.345   3.432 -0.1368  0.2432  0.9810
 9086TIP3    H248674   3.441   2.199   3.426  0.6584  0.0793 -2.4144
 9087TIP3   OH248675   4.068   1.248   0.360 -0.2350 -0.3531  0.7581
 9087TIP3    H148676   4.034   1.266   0.447 -0.1254  1.5360  0.4561
 9087TIP3    H248677   4.003   1.191   0.319 -0.6543 -0.6392  1.8028
 9088TIP3   OH248678   5.417   6.614   2.847 -0.1388 -0.4123  0.4408
 9088TIP3    H148679   5.416   6.539   2.907  0.6988 -0.8721 -0.0956
 9088TIP3    H248680   5.494   6.665   2.874 -0.6802  0.2467  0.7748
 9089TIP3   OH248681   5.120   0.480   2.130 -0.2518 -0.3908  0.5733
 9089TIP3    H148682   5.073   0.432   2.198  1.8010 -1.0079  1.6144
 9089TIP3    H248683   5.196   0.518   2.174  0.6190  0.0078 -1.1707
 9090TIP3   OH248684   5.014   5.198  13.998  0.2642 -0.5566 -0.2736
 9090TIP3    H148685   4.964   5.164  13.924 -0.6982  0.0873  0.0570
 9090TIP3    H248686   5.040   5.286  13.971  0.6682 -0.6441 -0.1839
 9091TIP3   OH248687   5.564   2.633  11.042  0.2456 -0.7070 -0.0378
 9091TIP3    H148688   5.532   2.561  10.988  2.5309 -1.6096 -0.2918
 9091TIP3    H248689   5.590   2.700  10.979 -0.1849 -0.3941  0.1137
 9092TIP3   OH248690   3.190   2.465  16.975  0.2475  0.4655 -0.2893
 9092TIP3    H148691   3.199   2.560  16.965  0.0336  0.7977  1.9900
 9092TIP3    H248692   3.280   2.432  16.977  0.3876  0.8898  0.8021
 9093TIP3   OH248693   5.737   5.408  13.693  0.0306 -0.0549 -0.8079
 9093TIP3    H148694   5.724   5.495  13.656  0.5079  0.3932  0.0388
 9093TIP3    H248695   5.830   5.389  13.677 -0.1426 -0.5458 -1.2635
 9094TIP3   OH248696   5.007   2.329  12.333  0.6903  0.3745 -0.2264
 9094TIP3    H148697   5.102   2.321  12.337  0.8693  0.6065 -2.6070
 9094TIP3    H248698   4.980   2.344  12.423  3.0408  1.5704  0.3415
 9095TIP3   OH248699   5.496   1.850  16.903  0.0113 -0.0963  0.7147
 9095TIP3    H148700   5.460   1.905  16.972 -0.3134  0.6369 -0.0262
 9095TIP3    H248701   5.485   1.761  16.935 -4.5462 -0.1443 -0.3555
 9096TIP3   OH248702   3.909   5.545  16.025  0.0062 -0.1293 -0.1959
 9096TIP3    H148703   3.915   5.555  15.930 -3.6293  0.3911 -0.5146
 9096TIP3    H248704   3.933   5.631  16.060  1.1177 -0.2520 -0.6064
 9097TIP3   OH248705   4.116   1.864   4.141 -0.0982  0.0944  0.4087
 9097TIP3    H148706   4.167   1.939   4.172  1.0422 -1.1333  1.5959
 9097TIP3    H248707   4.174   1.818   4.081 -0.3467 -0.5201  0.6323
 9098TIP3   OH248708   4.996   2.387   3.990 -0.0659  0.5119 -0.3639
 9098TIP3    H148709   5.034   2.364   3.905 -0.1605 -1.7831  0.1422
 9098TIP3    H248710   5.068   2.429   4.038 -0.4067  3.1636 -2.0089
 9099TIP3   OH248711   5.477   0.893  11.228 -0.0482  0.6719  0.4214
 9099TIP3    H148712   5.460   0.801  11.209 -0.1135  0.5998  0.8112
 9099TIP3    H248713   5.553   0.892  11.287  0.5352  0.9203 -0.3105
 9100TIP3   OH248714   5.367   0.170  12.792 -0.5004 -0.8781 -0.0712
 9100TIP3    H148715   5.385   0.254  12.749 -0.2919 -0.5693  0.6046
 9100TIP3    H248716   5.290   0.136  12.746  0.2308 -0.9760 -1.2583
 9101TIP3   OH248717   5.561   4.105  12.262  0.0752 -0.4175 -0.5421
 9101TIP3    H148718   5.645   4.067  12.236 -0.0466  0.8882 -3.0865
 9101TIP3    H248719   5.496   4.042  12.231  0.0304 -0.4909 -0.3032
 9102TIP3   OH248720   3.361   6.130  13.897 -0.3729  0.3278  0.9550
 9102TIP3    H148721   3.298   6.068  13.935  0.2178 -0.5307  0.5752
 9102TIP3    H248722   3.315   6.167  13.821 -0.4005 -0.3691  0.6177
 9103TIP3   OH248723   3.223   5.637   6.505  0.3022  0.5658  0.1831
 9103TIP3    H148724   3.238   5.589   6.423 -3.2316 -0.3692 -0.1201
 9103TIP3    H248725   3.248   5.575   6.573 -3.6092 -1.8660 -0.2226
 9104TIP3   OH248726   1.190   3.640   4.556  0.0663 -0.3035  0.1564
 9104TIP3    H148727   1.126   3.708   4.532  1.5462  1.4268  0.8627
 9104TIP3    H248728   1.155   3.603   4.637 -0.8219 -0.4727 -0.2905
 9105TIP3   OH248729   2.836   6.398  11.178  0.7355  0.4632  0.1127
 9105TIP3    H148730   2.795   6.341  11.243  1.4879  0.5169  0.6570
 9105TIP3    H248731   2.781   6.476  11.176 -0.1931 -0.1855 -0.4943
 9106TIP3   OH248732   1.218   0.591  13.624  0.3929  0.4922  0.3231
 9106TIP3    H148733   1.203   0.570  13.717 -0.6469  3.3766  0.9041
 9106TIP3    H248734   1.214   0.507  13.580  1.1118 -1.0165  2.9002
 9107TIP3   OH248735   5.182   2.560  13.694 -0.1433 -0.4823  0.1792
 9107TIP3    H148736   5.108   2.619  13.710 -0.3815 -0.9974  1.0165
 9107TIP3    H248737   5.182   2.548  13.599  0.0151  0.9920 -0.0308
 9108TIP3   OH248738   0.895   5.347   4.604  0.1024 -0.4507  0.2189
 9108TIP3    H148739   0.886   5.442   4.598  0.5753 -0.4922 -2.1062
 9108TIP3    H248740   0.937   5.332   4.689 -1.3443  1.2712  1.3148
 9109TIP3   OH248741   3.427   5.205   2.206  0.4376  0.2550 -0.5939
 9109TIP3    H148742   3.470   5.217   2.121 -0.8139  1.4930 -1.1033
 9109TIP3    H248743   3.480   5.139   2.251  0.6715 -1.0621 -2.6612
 9110TIP3   OH248744   6.707   1.906   1.324  0.0705  0.2088  0.2434
 9110TIP3    H148745   6.736   1.845   1.257  2.7940  1.0649  0.4908
 9110TIP3    H248746   6.655   1.853   1.385 -1.4904 -0.8122 -1.8632
 9111TIP3   OH248747   2.379   2.477  11.807  0.6986  0.3383  0.2877
 9111TIP3    H148748   2.426   2.419  11.867  1.0936 -1.0573 -1.3240
 9111TIP3    H248749   2.291   2.440  11.802  1.1227 -0.5102 -1.2096
 9112TIP3   OH248750   4.411   0.798  11.240  0.2040  0.2445 -0.2867
 9112TIP3    H148751   4.462   0.766  11.315 -1.3105  0.0070  0.6858
 9112TIP3    H248752   4.373   0.720  11.201 -2.9834  0.6147  1.7101
 9113TIP3   OH248753   1.632   0.307   2.843  0.0938  0.4544  0.5624
 9113TIP3    H148754   1.692   0.366   2.888  0.2022  0.2042  0.7505
 9113TIP3    H248755   1.646   0.222   2.885 -0.6173  0.4561  0.8305
 9114TIP3   OH248756   1.141   6.615   4.836  0.2309  0.2775  0.0374
 9114TIP3    H148757   1.138   6.521   4.820 -0.0554  0.1396  0.8306
 9114TIP3    H248758   1.118   6.655   4.752 -1.9329 -0.3965  0.2372
 9115TIP3   OH248759   4.931   0.521   0.731  0.0526  0.3370 -0.3851
 9115TIP3    H148760   4.868   0.480   0.790 -0.5440  0.7996 -0.6854
 9115TIP3    H248761   4.885   0.598   0.697 -0.3205 -0.8481 -2.8128
 9116TIP3   OH248762   3.970   5.512  13.196  0.2271  0.3073 -0.2363
 9116TIP3    H148763   4.037   5.471  13.142  0.9586 -1.3329  1.7844
 9116TIP3    H248764   4.007   5.514  13.284 -2.1502 -0.1683  0.8670
 9117TIP3   OH248765   5.916   4.222  15.241 -0.0268 -0.3444 -0.0476
 9117TIP3    H148766   5.919   4.168  15.162 -0.8871 -0.5901  0.0798
 9117TIP3    H248767   5.848   4.182  15.295  1.0790 -0.6578  1.1832
 9118TIP3   OH248768   5.457   0.078   4.980  0.1602  0.0289 -0.0047
 9118TIP3    H148769   5.407   0.021   5.038 -0.1531 -0.3925 -0.6857
 9118TIP3    H248770   5.543   0.036   4.973 -0.7492 -1.6528 -2.3106
 9119TIP3   OH248771   2.058   3.843  12.535  0.4126  0.1836  0.0689
 9119TIP3    H148772   2.079   3.751  12.556 -1.7159 -0.5595 -0.8473
 9119TIP3    H248773   2.120   3.893  12.588  0.9150 -1.7488  1.4486
 9120TIP3   OH248774   1.838   3.807   0.322 -1.0363  0.2967  0.3619
 9120TIP3    H148775   1.918   3.805   0.270 -0.5581  1.1287  1.0449
 9120TIP3    H248776   1.777   3.859   0.270 -1.2724 -0.6425 -0.3288
 9121TIP3   OH248777   4.640   1.389  15.257  0.0796 -0.2075 -0.2353
 9121TIP3    H148778   4.696   1.438  15.317 -0.1706 -0.8467  0.5355
 9121TIP3    H248779   4.567   1.360  15.311 -1.1044  0.7460 -1.2458
 9122TIP3   OH248780   6.149   5.697  16.587  0.4899  0.2350 -0.0239
 9122TIP3    H148781   6.102   5.621  16.553  1.3992 -0.8844  1.1455
 9122TIP3    H248782   6.199   5.729  16.511  0.1571 -0.3802 -0.5146
 9123TIP3   OH248783   4.850   1.233   1.872  0.0454 -0.0771  0.0289
 9123TIP3    H148784   4.774   1.184   1.903  0.2713 -0.8645 -0.6353
 9123TIP3    H248785   4.848   1.223   1.777 -0.4467  2.0309 -0.2173
 9124TIP3   OH248786   0.044   1.620  13.757 -0.2751  0.8311 -0.3600
 9124TIP3    H148787   0.137   1.640  13.757 -0.0685  0.2659  2.2770
 9124TIP3    H248788   0.038   1.531  13.792 -1.7186 -0.0602 -2.6286
 9125TIP3   OH248789   5.355   6.228  12.531 -0.0298 -0.0126  0.0339
 9125TIP3    H148790   5.357   6.308  12.478  1.4226 -0.1887 -0.2060
 9125TIP3    H248791   5.371   6.259  12.620 -0.0771  0.0347  0.0263
 9126TIP3   OH248792   1.660   3.734  11.170 -0.1068  0.3151  0.8251
 9126TIP3    H148793   1.657   3.722  11.075  2.1427  1.2366  0.5818
 9126TIP3    H248794   1.603   3.665  11.204 -0.9475 -0.0573 -1.1829
 9127TIP3   OH248795   3.079   3.042   1.141  0.1334 -0.0113  0.0295
 9127TIP3    H148796   3.171   3.017   1.146 -0.0736 -1.1769 -1.4147
 9127TIP3    H248797   3.080   3.137   1.129  1.2639 -0.2663 -2.3256
 9128TIP3   OH248798   6.724   0.797  12.072 -0.4841  0.2693  0.3576
 9128TIP3    H148799   6.674   0.805  12.154  1.3713  1.3763  1.4430
 9128TIP3    H248800   6.804   0.752  12.097  0.0172  0.4168 -0.9181
 9129TIP3   OH248801   2.188   0.644   2.488  0.6085 -0.0431 -0.1690
 9129TIP3    H148802   2.213   0.574   2.549  1.0560 -0.1801 -0.5028
 9129TIP3    H248803   2.102   0.618   2.455 -0.2528  0.7107  1.4060
 9130TIP3   OH248804   4.684   1.300  14.882 -0.0223 -0.0330  0.6637
 9130TIP3    H148805   4.654   1.341  14.801  1.7076 -1.0215 -0.5589
 9130TIP3    H248806   4.770   1.264  14.860  1.0715  0.7338  3.3160
 9131TIP3   OH248807   4.522   5.682  10.992 -0.3862  0.0091  0.0238
 9131TIP3    H148808   4.557   5.762  11.031 -0.1858 -0.3317  0.5448
 9131TIP3    H248809   4.554   5.684  10.901 -0.7640  0.7468 -0.1000
 9132TIP3   OH248810   5.137   1.246  13.381 -0.6023 -0.1896 -0.6190
 9132TIP3    H148811   5.080   1.287  13.445  0.1945  0.4492 -0.2977
 9132TIP3    H248812   5.188   1.318  13.344 -0.6357 -0.6294 -1.5490
 9133TIP3   OH248813   6.435   4.258   3.098 -0.5302  0.1314 -0.7552
 9133TIP3    H148814   6.361   4.294   3.049 -1.5395 -0.7451  0.0661
 9133TIP3    H248815   6.499   4.235   3.032  0.1941  3.3535 -1.3495
 9134TIP3   OH248816   1.245   0.065  13.361 -0.0708 -0.2816 -0.4313
 9134TIP3    H148817   1.224   0.068  13.455  0.0538  0.0206 -0.4119
 9134TIP3    H248818   1.161   0.049  13.319  0.0732 -1.7484 -0.1877
 9135TIP3   OH248819   4.816   3.851   3.954  0.3776 -0.2284  0.8416
 9135TIP3    H148820   4.883   3.878   3.891 -0.2104  0.0860  0.3383
 9135TIP3    H248821   4.814   3.922   4.018 -0.0767  0.1853  0.3762
 9136TIP3   OH248822   3.583   1.743  13.309 -0.0405  0.2634  0.1902
 9136TIP3    H148823   3.654   1.683  13.285 -0.1144  0.3496 -0.2650
 9136TIP3    H248824   3.540   1.701  13.383 -0.2304 -0.3590 -0.2659
 9137TIP3   OH248825   0.254   5.591  11.436 -0.4664  0.2444 -0.5066
 9137TIP3    H148826   0.310   5.522  11.401 -0.6890  0.2641 -0.9045
 9137TIP3    H248827   0.315   5.652  11.478 -0.3987 -1.0817  1.4458
 9138TIP3   OH248828   2.450   2.645   0.192 -0.1456  0.7880  0.1424
 9138TIP3    H148829   2.498   2.726   0.207  0.2238  0.5603  0.2244
 9138TIP3    H248830   2.400   2.631   0.273  0.0067  0.7889  0.2365
 9139TIP3   OH248831   4.157   4.540  13.941  0.4466 -0.1514 -0.0370
 9139TIP3    H148832   4.103   4.574  14.013  0.4943 -2.5399  1.2161
 9139TIP3    H248833   4.120   4.454  13.922  0.9524  0.0849 -2.3864
 9140TIP3   OH248834   0.159   5.152   1.276 -0.2630 -0.3699 -0.6146
 9140TIP3    H148835   0.188   5.132   1.365  0.5947  0.4471 -0.6907
 9140TIP3    H248836   0.123   5.241   1.282 -0.1547 -0.2933 -1.0892
 9141TIP3   OH248837   4.894   6.574  11.579  0.0659 -0.0142  0.0267
 9141TIP3    H148838   4.896   6.665  11.550  0.4941 -0.2608 -0.7476
 9141TIP3    H248839   4.986   6.550  11.590  0.0187 -0.7202 -0.9905
 9142TIP3   OH248840   5.131   4.039   5.601  0.0368  0.2557 -0.0814
 9142TIP3    H148841   5.207   4.083   5.565  0.9556 -0.6058  0.7315
 9142TIP3    H248842   5.095   3.989   5.527  2.1821 -1.8856  0.2053
 9143TIP3   OH248843   6.232   3.818   4.943  0.6480 -0.3344  0.3934
 9143TIP3    H148844   6.321   3.790   4.963  1.4380 -1.0699 -3.2856
 9143TIP3    H248845   6.180   3.737   4.950  0.9980 -0.6783 -0.7255
 9144TIP3   OH248846   4.879   1.521  15.396  0.0430 -0.2076 -0.1428
 9144TIP3    H148847   4.958   1.542  15.346  1.1985  0.2335  1.7779
 9144TIP3    H248848   4.874   1.590  15.463 -0.9774 -1.2320  0.8735
 9145TIP3   OH248849   2.583   4.416   5.236 -0.2693  0.4810  0.3151
 9145TIP3    H148850   2.671   4.419   5.198  0.3890 -0.1760  1.7329
 9145TIP3    H248851   2.574   4.327   5.271 -1.5484  0.4985  0.0966
 9146TIP3   OH248852   1.997   5.840   0.101 -0.2583 -0.5113 -0.2872
 9146TIP3    H148853   2.014   5.896   0.025 -1.8303  0.5506  0.1091
 9146TIP3    H248854   1.945   5.767   0.067 -1.1159  0.0572 -0.2223
 9147TIP3   OH248855   1.628   2.106  16.034  0.0933 -0.1612  0.6805
 9147TIP3    H148856   1.577   2.183  16.010  1.4180  0.2739 -0.8412
 9147TIP3    H248857   1.561   2.040  16.055 -1.1920  0.1139 -2.0726
 9148TIP3   OH248858   5.583   4.855   4.443 -0.3842  0.1568 -0.1934
 9148TIP3    H148859   5.652   4.868   4.378 -0.0767 -1.0966 -0.1405
 9148TIP3    H248860   5.560   4.943   4.472  2.8622  0.5631  1.5288
 9149TIP3   OH248861   5.952   6.326  12.833 -0.3824 -0.0725 -0.5845
 9149TIP3    H148862   5.992   6.264  12.772  0.9482  0.6132 -0.4548
 9149TIP3    H248863   5.909   6.391  12.778 -1.3355 -0.8040 -0.7281
 9150TIP3   OH248864   6.326   1.502  10.998 -0.1546 -0.6422  0.3877
 9150TIP3    H148865   6.233   1.506  11.020 -0.1603 -0.4393  0.3314
 9150TIP3    H248866   6.360   1.430  11.050  0.0872  0.6164  2.0807
 9151TIP3   OH248867   1.926   4.038  17.104 -0.1472 -0.7804 -0.4196
 9151TIP3    H148868   1.975   4.010  17.027 -0.3862 -0.4569 -0.6925
 9151TIP3    H248869   1.849   4.083  17.069 -1.1666 -2.1202 -0.0245
 9152TIP3   OH248870   3.754   2.583   5.826 -0.1474  0.4350  0.9204
 9152TIP3    H148871   3.793   2.506   5.868 -0.3377 -1.0393 -1.3889
 9152TIP3    H248872   3.662   2.559   5.814 -0.1248  0.8336 -0.1762
 9153TIP3   OH248873   0.311   4.478   0.615  0.1420 -0.4159  0.2780
 9153TIP3    H148874   0.400   4.493   0.583  0.3452 -0.9234  0.5866
 9153TIP3    H248875   0.285   4.561   0.654  0.6539 -0.3933  0.5863
 9154TIP3   OH248876   1.479   3.335  15.826  0.3173 -0.5022  0.2623
 9154TIP3    H148877   1.486   3.252  15.779  2.0101 -0.7043  0.7975
 9154TIP3    H248878   1.400   3.327  15.879 -1.7564 -0.2221 -2.5334
 9155TIP3   OH248879   2.466   0.866  13.838 -0.5682 -0.0946 -0.4719
 9155TIP3    H148880   2.419   0.782  13.843  0.6425 -0.7238  1.1826
 9155TIP3    H248881   2.545   0.846  13.789  0.2443 -0.2171  0.8460
 9156TIP3   OH248882   3.609   1.994   0.888  0.3577  0.0791  0.0949
 9156TIP3    H148883   3.694   1.978   0.849  0.0772 -1.4653  0.0574
 9156TIP3    H248884   3.587   2.084   0.863  1.5341  0.1610 -0.6931
 9157TIP3   OH248885   3.233   5.457  14.911  0.1840 -0.2011  0.7862
 9157TIP3    H148886   3.146   5.461  14.951 -0.0835 -1.5032  0.3596
 9157TIP3    H248887   3.238   5.370  14.871  1.1659  0.3552 -0.3811
 9158TIP3   OH248888   4.731   5.430   1.126  0.2527  0.1385  0.4146
 9158TIP3    H148889   4.812   5.402   1.169 -0.1952 -1.1181  0.4856
 9158TIP3    H248890   4.760   5.480   1.050  1.1270 -1.0206 -0.0399
 9159TIP3   OH248891   2.711   0.629  15.343 -0.1472 -0.1529  0.2810
 9159TIP3    H148892   2.708   0.724  15.337  0.1778 -0.1794 -0.4208
 9159TIP3    H248893   2.711   0.599  15.252  0.6816 -0.7850  0.4718
 9160TIP3   OH248894   3.882   4.132   4.631 -0.4278 -0.1539  0.1101
 9160TIP3    H148895   3.817   4.065   4.609 -0.3963 -0.0120 -0.4458
 9160TIP3    H248896   3.835   4.215   4.623  0.2583  0.0987 -2.2188
 9161TIP3   OH248897   0.890   4.058   1.049  0.1557  0.3124  0.3268
 9161TIP3    H148898   0.836   4.056   1.129  0.4558 -2.6392  0.5550
 9161TIP3    H248899   0.978   4.037   1.079  0.4045 -0.1330 -0.6893
 9162TIP3   OH248900   5.638   6.547  12.444 -0.6104  0.3511 -0.4150
 9162TIP3    H148901   5.548   6.538  12.413 -0.5054  2.3930 -1.4558
 9162TIP3    H248902   5.691   6.508  12.375 -0.6839 -2.6457  1.0580
 9163TIP3   OH248903   0.599   2.899   2.599 -0.0348  0.1064  0.2083
 9163TIP3    H148904   0.517   2.924   2.557  0.3238  0.0909 -0.5144
 9163TIP3    H248905   0.606   2.805   2.583  1.4727  0.5328 -2.2176
 9164TIP3   OH248906   4.966   0.001   1.909 -0.8572  0.3513  0.0293
 9164TIP3    H148907   5.028   0.064   1.871  1.5769 -1.6821  0.3622
 9164TIP3    H248908   4.902   0.055   1.955  0.3979  2.6030 -0.7197
 9165TIP3   OH248909   2.731   2.227  16.843  0.5704  0.1543 -0.0255
 9165TIP3    H148910   2.662   2.259  16.901  1.0949  2.5203 -0.5930
 9165TIP3    H248911   2.787   2.174  16.899  0.5004  1.5292  1.4135
 9166TIP3   OH248912   0.025   2.888   3.279  0.2665  0.0437  0.5162
 9166TIP3    H148913   0.056   2.813   3.229 -0.5353  0.2658 -0.3286
 9166TIP3    H248914   0.062   2.964   3.234 -1.2469  0.3000 -0.3475
 9167TIP3   OH248915   1.274   6.352   3.705 -0.0878 -0.4894 -0.4876
 9167TIP3    H148916   1.360   6.370   3.669 -0.2643  1.0901 -0.2204
 9167TIP3    H248917   1.290   6.290   3.776  0.3182 -3.2861 -2.8233
 9168TIP3   OH248918   5.258   5.939   5.809  0.0746  0.2251 -0.4121
 9168TIP3    H148919   5.218   5.857   5.838 -0.8615  1.1849  1.2143
 9168TIP3    H248920   5.260   5.993   5.888 -2.1791  2.8945 -1.9977
 9169TIP3   OH248921   0.234   4.885   3.922  0.4590  0.0528  0.1917
 9169TIP3    H148922   0.195   4.885   4.009  1.8203 -0.4354  0.8398
 9169TIP3    H248923   0.191   4.956   3.875  1.0708  1.6321  1.9160
 9170TIP3   OH248924   6.284   1.982   5.000  0.0913  0.0882 -0.3952
 9170TIP3    H148925   6.233   1.987   5.081  2.7484  0.1560  1.3835
 9170TIP3    H248926   6.249   2.052   4.945 -1.5085  0.3066  0.8422
 9171TIP3   OH248927   2.710   6.660  17.263  0.1206 -0.0978  0.3315
 9171TIP3    H148928   2.743   6.665  17.353  0.1522  1.2317  0.2695
 9171TIP3    H248929   2.615   6.652  17.273  0.2031 -1.0556  0.4770
 9172TIP3   OH248930   1.335   1.902   3.896  0.1594  0.6486  0.0034
 9172TIP3    H148931   1.413   1.880   3.845  1.4466  0.9598  1.7461
 9172TIP3    H248932   1.355   1.873   3.985 -2.1991 -0.3133  0.3027
 9173TIP3   OH248933   3.852   3.489  15.610 -0.3324 -0.1304 -0.1127
 9173TIP3    H148934   3.887   3.573  15.639  0.6593 -1.4265  2.8208
 9173TIP3    H248935   3.915   3.458  15.545  0.2648  0.5793  0.1181
 9174TIP3   OH248936   4.875   3.932  13.459  0.2397  0.8706 -0.2756
 9174TIP3    H148937   4.959   3.885  13.459 -0.7395 -0.9634  0.4680
 9174TIP3    H248938   4.890   4.008  13.516  1.1013 -0.0273  0.7312
 9175TIP3   OH248939   2.885   1.179   4.219 -0.5989 -0.2185  0.0768
 9175TIP3    H148940   2.965   1.168   4.270 -0.6905 -1.7185 -0.0648
 9175TIP3    H248941   2.915   1.175   4.128 -0.7697 -0.1751  0.0184
 9176TIP3   OH248942   3.221   1.426  13.514 -0.2181  0.6087 -0.3334
 9176TIP3    H148943   3.283   1.383  13.455  1.1536  3.0752 -0.8719
 9176TIP3    H248944   3.247   1.396  13.601  1.9197  1.6669 -0.5356
 9177TIP3   OH248945   4.654   4.299  14.817  0.2173  0.1006  0.1003
 9177TIP3    H148946   4.709   4.328  14.744  0.0547  1.0109  0.3194
 9177TIP3    H248947   4.594   4.372  14.831  0.3806  0.0231  1.2746
 9178TIP3   OH248948   3.471   0.433   5.160  0.3540 -0.2743  0.7851
 9178TIP3    H148949   3.398   0.420   5.220  0.2800 -2.1744  0.3357
 9178TIP3    H248950   3.550   0.424   5.214  0.2733 -0.1935  0.9145
 9179TIP3   OH248951   0.080   4.650  11.181 -0.1708  0.1764  0.1818
 9179TIP3    H148952   0.050   4.724  11.128  2.2151 -0.5829 -2.4689
 9179TIP3    H248953   0.035   4.574  11.143  2.7772 -0.6143 -2.1594
 9180TIP3   OH248954   2.903   5.030  16.462 -0.0576 -0.6202  0.3024
 9180TIP3    H148955   2.962   5.014  16.388 -0.9262 -0.5858 -0.4028
 9180TIP3    H248956   2.859   4.946  16.476 -1.5767 -0.0217 -0.7207
 9181TIP3   OH248957   1.247   2.397  12.648 -0.4887 -0.5621  0.2516
 9181TIP3    H148958   1.275   2.484  12.676 -0.2542 -0.5103 -0.1324
 9181TIP3    H248959   1.157   2.409  12.618  0.1247 -0.0716 -1.4990
 9182TIP3   OH248960   1.070   4.658  11.487  0.2846 -0.2648 -0.3356
 9182TIP3    H148961   1.055   4.752  11.499 -2.2528 -0.6368 -0.0361
 9182TIP3    H248962   1.080   4.647  11.392 -0.0857  0.2156 -0.4350
 9183TIP3   OH248963   1.648   2.974  15.467  0.2333 -0.2203 -0.3453
 9183TIP3    H148964   1.567   2.978  15.519  0.3107 -0.8180 -0.1728
 9183TIP3    H248965   1.688   2.891  15.491  0.0630 -0.7094 -1.6766
 9184TIP3   OH248966   0.916   6.093  15.327  0.0735  0.7291  0.4557
 9184TIP3    H148967   0.835   6.077  15.277  1.2105  0.2936 -1.3442
 9184TIP3    H248968   0.887   6.142  15.404 -2.2507 -1.6213  1.2180
 9185TIP3   OH248969   1.970   4.652  11.434  0.1446  0.1690 -0.1770
 9185TIP3    H148970   1.998   4.713  11.502 -0.6520 -1.0502  1.2961
 9185TIP3    H248971   1.994   4.565  11.467 -0.5202 -0.4793 -1.3085
 9186TIP3   OH248972   4.424   3.420   5.064  0.0187 -0.5374 -0.0949
 9186TIP3    H148973   4.349   3.423   5.125 -0.8140 -2.5952 -0.9360
 9186TIP3    H248974   4.389   3.456   4.983 -0.2045 -1.8441 -0.5972
 9187TIP3   OH248975   6.126   0.244   6.497  0.3756  0.1707  0.3133
 9187TIP3    H148976   6.086   0.163   6.464  1.8667 -1.3296  1.9990
 9187TIP3    H248977   6.054   0.291   6.537 -1.1966  1.3191 -3.3894
 9188TIP3   OH248978   4.891   3.440  12.815  0.5596  0.4179 -0.0215
 9188TIP3    H148979   4.824   3.372  12.814  1.3339 -0.4329  1.9231
 9188TIP3    H248980   4.843   3.521  12.795 -0.7391 -0.3785 -0.2306
 9189TIP3   OH248981   4.157   3.446   2.099  0.1873 -0.2374  0.0621
 9189TIP3    H148982   4.122   3.491   2.022  1.5369  1.8037  0.5369
 9189TIP3    H248983   4.212   3.377   2.064 -2.4856 -2.1625 -0.6985
 9190TIP3   OH248984   4.140   6.017  11.891  0.1645  0.3869  0.2540
 9190TIP3    H148985   4.202   5.945  11.876  0.0466  0.4295 -0.5060
 9190TIP3    H248986   4.115   6.009  11.983  0.4244 -0.3250  0.2683
 9191TIP3   OH248987   2.328   5.982   2.065  0.4025 -0.0019 -0.3977
 9191TIP3    H148988   2.295   6.059   2.111  3.1476  1.8589 -1.2770
 9191TIP3    H248989   2.378   5.934   2.131 -2.3685 -1.9179  0.5003
 9192TIP3   OH248990   3.034   4.586  11.118 -0.0233  0.3326 -0.8614
 9192TIP3    H148991   3.019   4.503  11.072  0.1592  1.5042 -3.1634
 9192TIP3    H248992   3.114   4.622  11.079 -0.0050  1.5258  0.2053
 9193TIP3   OH248993   6.358   1.817  11.534 -0.0131 -0.0670 -0.3894
 9193TIP3    H148994   6.354   1.832  11.628  1.1386 -1.2248 -0.1289
 9193TIP3    H248995   6.421   1.746  11.523  1.3703  1.3302 -2.1846
 9194TIP3   OH248996   1.577   3.609   3.711  0.0256 -0.2514  0.5452
 9194TIP3    H148997   1.523   3.687   3.699 -0.7915 -0.6073  1.7598
 9194TIP3    H248998   1.607   3.587   3.623 -0.4974  0.8845  0.0654
 9195TIP3   OH248999   5.610   3.867  17.185 -0.2959 -0.1835  0.9457
 9195TIP3    H149000   5.652   3.794  17.231 -0.1158  0.7085  2.2734
 9195TIP3    H249001   5.634   3.856  17.094 -1.6541 -2.7160  0.8202
 9196TIP3   OH249002   1.811   5.360   3.839 -0.4411  0.0696  0.6694
 9196TIP3    H149003   1.813   5.452   3.815 -1.5204 -0.3418 -1.1385
 9196TIP3    H249004   1.739   5.353   3.902 -0.0134  0.5328  1.2192
 9197TIP3   OH249005   3.053   1.098   3.474 -0.0039  0.2176  0.6747
 9197TIP3    H149006   2.989   1.041   3.516 -1.1959  1.4691  0.6117
 9197TIP3    H249007   3.024   1.103   3.383 -0.9764  2.2744  1.0360
 9198TIP3   OH249008   2.784   2.567   2.253  0.0290 -0.0138 -0.0020
 9198TIP3    H149009   2.855   2.516   2.292 -0.7900 -0.8636  0.4006
 9198TIP3    H249010   2.801   2.565   2.159  1.2531  0.8910  0.1749
 9199TIP3   OH249011   0.675   3.132   0.420 -0.2044 -0.2725  0.5626
 9199TIP3    H149012   0.661   3.105   0.330  1.4902  1.4957 -0.2987
 9199TIP3    H249013   0.656   3.226   0.421  2.0271  0.2407  1.4442
 9200TIP3   OH249014   2.722   4.704   6.001 -0.6568  0.1487 -0.1978
 9200TIP3    H149015   2.647   4.749   5.962 -0.0183  0.1763 -1.4640
 9200TIP3    H249016   2.793   4.717   5.938 -0.3744 -2.3760 -0.5091
 9201TIP3   OH249017   3.689   5.984   1.179 -0.2781 -0.0635  0.1165
 9201TIP3    H149018   3.739   6.061   1.153 -1.8819  1.2423  0.7030
 9201TIP3    H249019   3.615   5.983   1.119  0.3436 -1.9060 -0.6876
 9202TIP3   OH249020   3.185   3.726   6.121  0.1797  0.2661 -0.1854
 9202TIP3    H149021   3.244   3.800   6.135  0.1560  0.0562  1.1492
 9202TIP3    H249022   3.234   3.650   6.151 -0.0369 -0.1847 -0.9409
 9203TIP3   OH249023   5.605   1.371   1.663 -0.3276 -0.1560  0.7246
 9203TIP3    H149024   5.632   1.399   1.576 -3.1884  1.9209  0.3780
 9203TIP3    H249025   5.580   1.279   1.653  0.5295 -0.2931 -0.2983
 9204TIP3   OH249026   6.367   6.185  12.359  0.4692  0.0411  0.8408
 9204TIP3    H149027   6.358   6.280  12.357  0.6228  0.0873  1.7353
 9204TIP3    H249028   6.461   6.169  12.348  0.2367 -0.1100 -1.2362
 9205TIP3   OH249029   3.045   1.422  14.557 -0.1372  0.2887 -0.2376
 9205TIP3    H149030   3.045   1.327  14.569  0.9515  0.0644 -1.7635
 9205TIP3    H249031   3.131   1.442  14.520 -0.3577  1.8769  0.0147
 9206TIP3   OH249032   1.513   3.860   1.356  0.8641 -0.2564 -0.2156
 9206TIP3    H149033   1.422   3.883   1.375  0.3191 -2.3970  0.0908
 9206TIP3    H249034   1.561   3.889   1.434  0.7034  2.0164 -0.9017
 9207TIP3   OH249035   2.195   4.446  10.934 -0.5590  0.4297 -0.5753
 9207TIP3    H149036   2.137   4.370  10.927 -0.7080  0.4309  0.4965
 9207TIP3    H249037   2.228   4.460  10.845 -0.5433 -0.8771 -0.7897
 9208TIP3   OH249038   5.060   2.538   4.937  0.0047 -0.1723  0.2938
 9208TIP3    H149039   5.120   2.568   4.868  0.2419  1.2369  1.0589
 9208TIP3    H249040   5.080   2.445   4.948 -0.7897 -0.7026 -2.2493
 9209TIP3   OH249041   2.634   3.755   0.413  0.0322  0.3703 -0.2651
 9209TIP3    H149042   2.688   3.760   0.492  0.1692 -0.3053 -0.3114
 9209TIP3    H249043   2.646   3.840   0.370  3.0778 -0.5938 -1.5777
 9210TIP3   OH249044   1.700   5.899  11.058  0.0408  0.2467 -0.4484
 9210TIP3    H149045   1.687   5.824  11.116 -1.1644 -0.4378 -1.5375
 9210TIP3    H249046   1.773   5.948  11.097  1.9422 -2.3206 -0.5561
 9211TIP3   OH249047   2.853   0.450   3.603 -0.1291 -0.0194  0.4668
 9211TIP3    H149048   2.840   0.536   3.563  0.1312 -0.0966  0.2131
 9211TIP3    H249049   2.944   0.427   3.582 -0.0137 -0.0983  1.0332
 9212TIP3   OH249050   5.446   4.135   2.211  0.1382 -0.0165  0.2591
 9212TIP3    H149051   5.407   4.207   2.163  0.9734 -0.4675 -1.1742
 9212TIP3    H249052   5.537   4.132   2.179  0.2361 -1.4033  0.6079
 9213TIP3   OH249053   2.940   3.220  16.175  0.1871  0.3717 -0.5544
 9213TIP3    H149054   2.999   3.286  16.211 -1.7387  1.6494  0.4406
 9213TIP3    H249055   2.985   3.188  16.096  1.7037  2.0332 -0.4281
 9214TIP3   OH249056   4.487   1.534  15.916  0.4243  0.0522  0.2317
 9214TIP3    H149057   4.540   1.537  15.837  0.9987  0.9350  0.6451
 9214TIP3    H249058   4.447   1.447  15.914  2.1986 -0.8109  0.1207
 9215TIP3   OH249059   3.960   1.030   0.217 -0.0839 -0.7222  0.1066
 9215TIP3    H149060   3.896   1.029   0.146 -0.7245  2.2538  0.5205
 9215TIP3    H249061   4.035   0.982   0.182 -0.8874 -0.4728 -2.0990
 9216TIP3   OH249062   4.806   3.651   4.695  0.0348 -0.3060  0.1339
 9216TIP3    H149063   4.745   3.655   4.621  0.1309  0.0163  0.0728
 9216TIP3    H249064   4.892   3.638   4.654 -0.0005 -0.8706  0.2240
 9217TIP3   OH249065   6.119   0.529   3.430 -0.8222 -0.4096 -0.3696
 9217TIP3    H149066   6.089   0.554   3.343 -0.3105  1.0531 -0.1608
 9217TIP3    H249067   6.178   0.455   3.415 -1.4098 -0.7214 -1.1683
 9218TIP3   OH249068   2.575   6.454   4.193  0.0863  0.2644 -0.1621
 9218TIP3    H149069   2.571   6.546   4.168  1.0327  0.1804 -0.6801
 9218TIP3    H249070   2.652   6.420   4.147  0.7761 -0.3649  1.3881
 9219TIP3   OH249071   1.078   2.136   1.823  0.0013 -0.2710  0.0321
 9219TIP3    H149072   0.998   2.125   1.772  1.7704 -1.1242 -2.7470
 9219TIP3    H249073   1.142   2.170   1.761  1.4146  2.2169  2.5705
 9220TIP3   OH249074   6.141   1.186  11.466  0.0290 -0.4757  0.3328
 9220TIP3    H149075   6.122   1.200  11.373  0.2731  1.3071  0.5288
 9220TIP3    H249076   6.107   1.098  11.484 -5.0333  1.0843 -0.1188
 9221TIP3   OH249077   6.026   3.443  14.375 -0.2813 -1.0082 -0.1336
 9221TIP3    H149078   5.952   3.410  14.323 -0.1807 -1.8187  0.2332
 9221TIP3    H249079   6.079   3.366  14.393 -0.0463 -0.6436  0.7468
 9222TIP3   OH249080   1.494   1.256  12.425 -0.2577 -0.6394 -0.1027
 9222TIP3    H149081   1.514   1.163  12.430  0.2442 -0.7097 -2.3135
 9222TIP3    H249082   1.572   1.296  12.386 -1.7489  0.0816 -2.6303
 9223TIP3   OH249083   4.740   2.317  12.660 -0.3056 -0.8163 -0.2223
 9223TIP3    H149084   4.734   2.225  12.636  0.1418 -0.9963  0.3666
 9223TIP3    H249085   4.651   2.351  12.647 -0.7453 -1.5992  0.6630
 9224TIP3   OH249086   6.689   5.119   2.807  0.9278 -0.3269 -0.6053
 9224TIP3    H149087   6.749   5.178   2.761 -0.4439  1.2260 -0.5312
 9224TIP3    H249088   6.613   5.112   2.748  0.1011 -0.1296  0.4074
 9225TIP3   OH249089   6.491   2.091  13.914  0.2864  0.3423  0.2247
 9225TIP3    H149090   6.412   2.072  13.863  1.6886 -1.4497 -1.4594
 9225TIP3    H249091   6.475   2.050  13.999 -0.0289 -1.4562 -0.6368
 9226TIP3   OH249092   3.761   4.538   0.757 -0.1437 -0.4967 -0.1444
 9226TIP3    H149093   3.719   4.464   0.802  1.1790 -0.0909  1.8976
 9226TIP3    H249094   3.689   4.599   0.741 -1.2593 -2.1181 -1.8308
 9227TIP3   OH249095   5.847   1.010  13.917  0.2250 -0.1723  0.0410
 9227TIP3    H149096   5.770   0.955  13.905 -0.4647 -0.0154  2.9137
 9227TIP3    H249097   5.910   0.953  13.961 -0.2825  1.0218  2.5211
 9228TIP3   OH249098   3.329   4.177  17.169 -0.1092  0.7453 -0.1137
 9228TIP3    H149099   3.338   4.260  17.216 -1.7880  1.3537 -0.7880
 9228TIP3    H249100   3.244   4.183  17.127 -1.5349 -2.4145  1.9454
 9229TIP3   OH249101   2.212   1.128  13.014  0.0852 -0.5529  0.8253
 9229TIP3    H149102   2.165   1.176  12.946  2.0750  1.0883  0.4791
 9229TIP3    H249103   2.168   1.152  13.096 -1.9103 -2.0156  0.2460
 9230TIP3   OH249104   4.230   5.744   3.330 -0.0874 -0.2689  0.0427
 9230TIP3    H149105   4.202   5.834   3.348  1.8096  0.9063 -2.3654
 9230TIP3    H249106   4.151   5.692   3.343 -1.4351  1.8099  0.8216
 9231TIP3   OH249107   4.320   5.670   5.775  0.1832 -0.1560  0.4861
 9231TIP3    H149108   4.308   5.599   5.712 -0.9754  0.1460  0.3386
 9231TIP3    H249109   4.316   5.626   5.861 -1.5981 -0.1792  0.4355
 9232TIP3   OH249110   0.525   3.111   1.198  0.1699 -0.0178  0.6777
 9232TIP3    H149111   0.437   3.103   1.163  0.3481  1.6351 -0.2371
 9232TIP3    H249112   0.569   3.030   1.173 -0.5465 -0.0660 -0.4758
 9233TIP3   OH249113   6.228   6.460  11.758  0.2634 -0.1425 -0.3397
 9233TIP3    H149114   6.135   6.445  11.741  0.5692 -1.4108 -1.0165
 9233TIP3    H249115   6.274   6.410  11.691  1.4456  1.8856 -1.1506
 9234TIP3   OH249116   1.602   0.134  11.590  0.1125  0.3285 -0.0476
 9234TIP3    H149117   1.573   0.099  11.674 -0.1843 -0.0647 -0.3091
 9234TIP3    H249118   1.558   0.219  11.582 -1.2477 -0.3973 -0.5806
 9235TIP3   OH249119   0.662   4.809   3.510 -0.0055  0.7968 -0.0548
 9235TIP3    H149120   0.628   4.860   3.584 -0.2802  0.5895 -0.0376
 9235TIP3    H249121   0.618   4.846   3.433  0.5347  1.2410 -0.1597
 9236TIP3   OH249122   0.076   2.622  15.177 -0.1986  0.5813 -0.4798
 9236TIP3    H149123   0.067   2.690  15.243  2.3533  1.6865 -1.1382
 9236TIP3    H249124   0.083   2.670  15.094  1.7687 -0.4322 -0.9512
 9237TIP3   OH249125   0.882   3.040  16.564 -0.1445 -0.1444 -0.0152
 9237TIP3    H149126   0.793   3.055  16.533  0.2134  0.9788 -0.5554
 9237TIP3    H249127   0.886   3.085  16.649 -0.2288 -0.5854  0.2214
 9238TIP3   OH249128   1.574   3.034   2.441 -0.2382 -0.0235 -0.2821
 9238TIP3    H149129   1.625   2.957   2.415 -0.9178  0.3207 -2.8830
 9238TIP3    H249130   1.583   3.095   2.368 -0.9082  1.8035  1.0828
 9239TIP3   OH249131   2.375   6.214  12.986 -0.1730  0.2238 -0.4815
 9239TIP3    H149132   2.411   6.137  13.031 -0.8728 -0.2113 -0.6482
 9239TIP3    H249133   2.301   6.241  13.039 -0.5748  0.1335 -0.9804
 9240TIP3   OH249134   4.049   1.898   0.301 -0.0162  0.8071 -0.2089
 9240TIP3    H149135   4.144   1.913   0.297 -0.0317  1.6535  1.6972
 9240TIP3    H249136   4.012   1.986   0.309 -1.1183  0.6148 -2.4307
 9241TIP3   OH249137   4.494   0.385  12.862  0.0091  0.0540  0.1952
 9241TIP3    H149138   4.475   0.452  12.928 -2.3070 -1.1366  0.8306
 9241TIP3    H249139   4.571   0.340  12.896  1.5931  2.2830 -0.2214
 9242TIP3   OH249140   3.370   0.107  15.451 -0.4785 -0.2989  0.8727
 9242TIP3    H149141   3.432   0.112  15.377 -2.3234  0.2129 -0.7162
 9242TIP3    H249142   3.391   0.185  15.504 -0.5456  0.5620 -0.3151
 9243TIP3   OH249143   4.861   3.907  10.582  0.1524 -0.1323 -0.5971
 9243TIP3    H149144   4.784   3.866  10.542  0.9987 -1.5982 -0.8025
 9243TIP3    H249145   4.834   3.998  10.598 -1.4702 -0.4982 -1.0282
 9244TIP3   OH249146   6.523   2.004   2.418  0.3972 -0.1215 -0.6071
 9244TIP3    H149147   6.576   2.000   2.338 -0.0476 -1.0350 -0.8735
 9244TIP3    H249148   6.532   1.917   2.457 -0.5631 -0.1558 -0.4381
 9245TIP3   OH249149   2.547   1.297  16.533  0.0992  0.4967  0.4445
 9245TIP3    H149150   2.621   1.240  16.512  0.7814  1.1403  1.0448
 9245TIP3    H249151   2.481   1.238  16.571 -0.2689 -0.3120 -1.3222
 9246TIP3   OH249152   3.157   2.376   4.289  0.3768 -0.3297  0.0502
 9246TIP3    H149153   3.089   2.401   4.226  1.0140  1.3652 -0.0096
 9246TIP3    H249154   3.209   2.310   4.242 -2.2587 -3.1575  0.7682
 9247TIP3   OH249155   5.687   5.070  14.615  0.5467 -0.6003  1.1409
 9247TIP3    H149156   5.634   5.041  14.690  0.4188  1.1006  1.7488
 9247TIP3    H249157   5.634   5.047  14.539 -1.7444  2.1275  1.7580
 9248TIP3   OH249158   4.500   3.837   5.147 -0.0478  0.3724 -0.1017
 9248TIP3    H149159   4.546   3.919   5.129 -1.5515  0.8521 -2.1174
 9248TIP3    H249160   4.428   3.835   5.084 -0.1160 -2.4560 -0.0819
 9249TIP3   OH249161   6.326   2.838   4.166 -0.1558  0.3424  0.1315
 9249TIP3    H149162   6.312   2.803   4.254  0.7127 -0.7829 -0.1512
 9249TIP3    H249163   6.420   2.831   4.152 -0.3623 -0.2225 -1.1642
 9250TIP3   OH249164   4.654   3.328   4.967 -0.5096  0.1476  0.0722
 9250TIP3    H149165   4.631   3.235   4.968  1.6815 -0.5192  3.6559
 9250TIP3    H249166   4.573   3.372   4.992 -0.8747 -1.0848  1.1932
 9251TIP3   OH249167   3.135   0.488   3.413 -0.0167  0.2217 -0.2147
 9251TIP3    H149168   3.142   0.537   3.495  1.2597 -0.0577 -0.1473
 9251TIP3    H249169   3.225   0.479   3.382  0.1770 -4.1200  0.9624
 9252TIP3   OH249170   2.864   6.492  11.440 -0.2602 -0.1277  0.1813
 9252TIP3    H149171   2.928   6.441  11.489 -1.1406 -0.9416  0.5273
 9252TIP3    H249172   2.779   6.460  11.472 -0.8391  0.4804 -0.7083
 9253TIP3   OH249173   2.926   2.323  11.350 -0.0967 -0.0294  0.0129
 9253TIP3    H149174   2.848   2.356  11.396 -0.4757 -1.5782  0.5234
 9253TIP3    H249175   2.893   2.295  11.264 -0.2261 -1.1801  0.4241
 9254TIP3   OH249176   0.206   2.800   4.538  0.0438 -0.0594  0.0813
 9254TIP3    H149177   0.243   2.786   4.451 -1.0992  0.9434 -0.5930
 9254TIP3    H249178   0.197   2.895   4.546 -1.8976 -0.2244  0.3805
 9255TIP3   OH249179   4.549   6.164   4.850  0.5032 -0.4558 -0.7420
 9255TIP3    H149180   4.595   6.232   4.800  1.4092  0.7479  1.5976
 9255TIP3    H249181   4.486   6.212   4.903  0.2746 -1.5684  0.0199
 9256TIP3   OH249182   1.353   2.316   0.995  0.8864 -0.1706  1.0729
 9256TIP3    H149183   1.324   2.320   0.904 -0.2168 -0.2878  1.4038
 9256TIP3    H249184   1.331   2.401   1.031  2.1447  0.2019  1.0138
 9257TIP3   OH249185   6.339   5.367   1.783 -0.1987  0.1062  0.5165
 9257TIP3    H149186   6.388   5.345   1.704  0.7691 -1.5717  1.5244
 9257TIP3    H249187   6.283   5.291   1.799 -0.5773  0.5334  1.3042
 9258TIP3   OH249188   3.927   2.662   4.113 -0.3075 -0.3627 -0.7102
 9258TIP3    H149189   4.019   2.637   4.108 -0.4040 -1.0462  0.5317
 9258TIP3    H249190   3.925   2.754   4.087  0.5748 -0.6251 -1.7464
 9259TIP3   OH249191   5.001   5.655   4.021  0.1048 -0.3540  0.0468
 9259TIP3    H149192   5.067   5.695   4.077  0.2789  0.5151 -0.7600
 9259TIP3    H249193   4.941   5.727   4.000 -0.7440 -0.9890  0.2450
 9260TIP3   OH249194   5.658   0.776   3.812 -0.0028  0.5021  0.0464
 9260TIP3    H149195   5.748   0.810   3.808  0.3268 -0.3936 -0.3228
 9260TIP3    H249196   5.630   0.793   3.902  0.9478 -0.2489  0.5004
 9261TIP3   OH249197   1.857   4.400   4.461  0.9084 -0.3150 -0.8527
 9261TIP3    H149198   1.851   4.451   4.542 -0.1596 -1.3048 -0.2695
 9261TIP3    H249199   1.924   4.444   4.409  0.0894  1.6119 -0.3483
 9262TIP3   OH249200   4.191   5.207   1.532 -0.2751  0.0702 -0.2984
 9262TIP3    H149201   4.276   5.253   1.528 -0.2031  0.0767  1.0146
 9262TIP3    H249202   4.131   5.271   1.571 -0.6229 -0.3095 -0.2053
 9263TIP3   OH249203   4.264   0.458  12.086 -0.2123  0.1751 -0.5094
 9263TIP3    H149204   4.185   0.504  12.114 -0.3834 -1.4918  2.1006
 9263TIP3    H249205   4.261   0.462  11.990 -2.0011  2.4594 -0.4632
 9264TIP3   OH249206   4.074   5.322  12.232  0.0277  0.2430  0.1342
 9264TIP3    H149207   4.154   5.283  12.268 -0.2376  0.7512  1.3113
 9264TIP3    H249208   4.098   5.351  12.144  1.1697  0.5031  0.5272
 9265TIP3   OH249209   4.072   2.117   4.460  0.2248 -0.2907 -0.3324
 9265TIP3    H149210   4.050   2.056   4.531  1.3561  0.9278  1.1601
 9265TIP3    H249211   4.033   2.200   4.487  1.5099  0.4335 -0.6090
 9266TIP3   OH249212   6.777   4.267  14.704 -0.1432  0.2471 -0.1796
 9266TIP3    H149213   6.796   4.347  14.655  2.5014  0.9919  1.8529
 9266TIP3    H249214   6.735   4.297  14.784  1.2530 -0.2852  0.7937
 9267TIP3   OH249215   0.497   2.984   4.672 -0.0875  0.2823  0.1008
 9267TIP3    H149216   0.451   3.066   4.653 -0.9707  0.1151  1.3570
 9267TIP3    H249217   0.429   2.917   4.671  0.3717 -0.2048  0.5014
 9268TIP3   OH249218   3.506   3.182   3.515  0.1192  0.0012  0.1824
 9268TIP3    H149219   3.474   3.177   3.605  1.3005 -1.1764  0.5718
 9268TIP3    H249220   3.601   3.166   3.523 -0.1301 -2.9801 -1.5053
 9269TIP3   OH249221   5.506   0.377  10.534 -0.2632  0.0424  0.4132
 9269TIP3    H149222   5.527   0.451  10.592  0.6910  1.4325 -1.5839
 9269TIP3    H249223   5.587   0.326  10.529  0.5125  1.3520 -1.5949
 9270TIP3   OH249224   6.163   2.288  16.420  0.2001 -0.3751 -1.4274
 9270TIP3    H149225   6.088   2.339  16.389  0.4210  0.9310  0.0261
 9270TIP3    H249226   6.129   2.200  16.435 -1.4061  0.4841  0.3835
 9271TIP3   OH249227   2.261   1.938  13.496  0.5931  0.3914  0.3769
 9271TIP3    H149228   2.239   2.029  13.476  2.3406  0.8119  0.2651
 9271TIP3    H249229   2.329   1.943  13.563  0.2486 -0.8632  0.8609
 9272TIP3   OH249230   0.995   5.049  16.108 -0.0199 -0.3427 -0.2895
 9272TIP3    H149231   0.952   4.992  16.172 -0.8229  1.3953  0.8282
 9272TIP3    H249232   0.958   5.024  16.024 -0.2736 -1.5168  0.1547
 9273TIP3   OH249233   4.848   2.765  15.528  0.6476  0.1175  0.6333
 9273TIP3    H149234   4.849   2.697  15.460  0.9715  0.4073  0.3428
 9273TIP3    H249235   4.937   2.764  15.563  0.7441  0.6040  0.4107
 9274TIP3   OH249236   5.694   2.736  15.387 -0.7628  0.6303 -0.0590
 9274TIP3    H149237   5.774   2.750  15.336 -0.2920 -1.4354  0.0379
 9274TIP3    H249238   5.624   2.729  15.321 -0.3552 -0.6892 -0.3895
 9275TIP3   OH249239   5.685   3.082  11.001 -0.0229 -0.4315 -0.0079
 9275TIP3    H149240   5.678   2.994  10.965 -1.6898  0.0334 -0.9275
 9275TIP3    H249241   5.674   3.070  11.095  2.9768 -1.5077  0.2986
 9276TIP3   OH249242   0.769   0.265  11.542 -0.0474 -0.5569 -0.0687
 9276TIP3    H149243   0.822   0.194  11.506  1.5604  0.4096  0.2886
 9276TIP3    H249244   0.815   0.292  11.622 -0.0957  1.4452 -0.6483
 9277TIP3   OH249245   1.858   6.511  13.396 -0.0014  0.7125 -0.8111
 9277TIP3    H149246   1.800   6.531  13.323 -1.0048  0.6103 -0.0531
 9277TIP3    H249247   1.898   6.595  13.418 -0.3669  0.9151 -0.9091
 9278TIP3   OH249248   2.890   5.603   5.261  0.1384  0.1832 -0.1241
 9278TIP3    H149249   2.919   5.535   5.200  0.5878  0.9575 -0.7886
 9278TIP3    H249250   2.968   5.655   5.277 -0.8245  2.4361 -2.1018
 9279TIP3   OH249251   3.834   3.171  11.602 -0.0454  0.3430 -0.9811
 9279TIP3    H149252   3.850   3.208  11.688  1.1882  0.2542 -1.1581
 9279TIP3    H249253   3.888   3.092  11.599 -1.5002 -0.6761 -1.1601
 9280TIP3   OH249254   5.282   1.777  12.139  0.4544 -0.9121 -0.0381
 9280TIP3    H149255   5.375   1.781  12.118  0.4232  0.8537 -0.0197
 9280TIP3    H249256   5.275   1.818  12.225 -0.5301  0.8656 -0.8987
 9281TIP3   OH249257   0.966   1.830   2.561 -0.5966 -0.5551  0.3810
 9281TIP3    H149258   1.020   1.898   2.604 -0.4508 -0.5589  0.2052
 9281TIP3    H249259   0.880   1.871   2.551 -0.0239  0.3167 -1.4445
 9282TIP3   OH249260   0.551   4.454   3.422  0.0304  0.8950  0.2354
 9282TIP3    H149261   0.504   4.387   3.472  2.3260 -0.8459  0.2368
 9282TIP3    H249262   0.575   4.520   3.487  1.1178 -0.2762  1.0700
 9283TIP3   OH249263   1.868   2.830  11.380 -0.4872 -0.3020 -0.1525
 9283TIP3    H149264   1.805   2.831  11.308 -0.2462  0.1026 -0.3646
 9283TIP3    H249265   1.824   2.782  11.450 -0.7961 -0.5468 -0.5045
 9284TIP3   OH249266   0.018   6.122  11.762 -0.0301 -0.3722 -0.6326
 9284TIP3    H149267   0.044   6.209  11.792 -0.4907 -0.1567 -0.8444
 9284TIP3    H249268  -0.034   6.139  11.683  0.2843 -0.8680 -0.9494
 9285TIP3   OH249269   2.810   6.656  15.704 -0.4646  0.0715  0.4886
 9285TIP3    H149270   2.877   6.607  15.656 -0.4287  0.1767  0.4318
 9285TIP3    H249271   2.810   6.743  15.664  0.3925  0.5352  1.4446
 9286TIP3   OH249272   1.217   1.354  12.713  0.6454 -0.0283  0.1757
 9286TIP3    H149273   1.219   1.275  12.659 -0.3883  0.6410 -0.8925
 9286TIP3    H249274   1.309   1.378  12.724  0.9198  1.2575 -3.5166
 9287TIP3   OH249275   3.892   4.185  15.766 -0.4370 -0.4581  0.3534
 9287TIP3    H149276   3.807   4.199  15.727  0.2631  1.2224 -0.6471
 9287TIP3    H249277   3.952   4.177  15.692  0.3814 -1.0111  1.0468
 9288TIP3   OH249278   2.484   0.391  15.240 -0.1574 -0.1215 -0.2029
 9288TIP3    H149279   2.426   0.464  15.219 -1.3389 -1.3449 -1.3784
 9288TIP3    H249280   2.441   0.345  15.313  0.2371 -0.0548  0.0808
 9289TIP3   OH249281   2.920   1.546  16.830 -0.4017 -0.1339 -0.1100
 9289TIP3    H149282   3.016   1.540  16.829 -0.4933 -1.9527 -0.8249
 9289TIP3    H249283   2.902   1.640  16.821  1.3117  0.3901  1.3654
 9290TIP3   OH249284   0.432   0.787  11.980 -0.3057 -0.4249  0.9107
 9290TIP3    H149285   0.351   0.765  12.026 -1.1937  0.2787 -0.2570
 9290TIP3    H249286   0.471   0.857  12.032 -2.7465  2.4022 -0.7717
 9291TIP3   OH249287   5.663   0.459  16.150 -0.7060 -0.1337  0.4968
 9291TIP3    H149288   5.736   0.484  16.093  1.5793 -3.7526  1.5101
 9291TIP3    H249289   5.661   0.528  16.217 -0.2773  1.6130 -1.1734
 9292TIP3   OH249290   3.553   6.465  14.830 -0.0993  0.6453 -0.1981
 9292TIP3    H149291   3.609   6.403  14.877 -2.7979 -2.1039 -0.3207
 9292TIP3    H249292   3.582   6.459  14.739 -2.0201 -2.7623 -0.7490
 9293TIP3   OH249293   6.492   3.479   4.114 -0.1384 -0.2348 -0.1578
 9293TIP3    H149294   6.407   3.450   4.147 -0.4233  0.5358 -0.1955
 9293TIP3    H249295   6.513   3.556   4.167 -0.0481  0.3150 -0.9789
 9294TIP3   OH249296   0.302   3.984   3.748  0.0249  0.0489  0.4173
 9294TIP3    H149297   0.300   3.890   3.766 -0.9343  0.0468  0.3550
 9294TIP3    H249298   0.210   4.010   3.748  0.2068  0.7640 -0.7858
 9295TIP3   OH249299   3.262   1.873   5.221 -0.7468 -0.6763  0.0821
 9295TIP3    H149300   3.298   1.938   5.280 -0.3735 -1.6034  0.8997
 9295TIP3    H249301   3.178   1.848   5.260 -1.7196  0.5369 -1.1339
 9296TIP3   OH249302   6.028   0.670  17.264  0.3157  0.1121 -0.2056
 9296TIP3    H149303   5.934   0.669  17.246  0.3199  2.2972 -0.6131
 9296TIP3    H249304   6.041   0.603  17.331 -1.7597  0.7059  0.8640
 9297TIP3   OH249305   5.835   3.278  11.288 -0.3190  0.2310 -0.0108
 9297TIP3    H149306   5.840   3.350  11.225 -1.8345  1.5655  1.3144
 9297TIP3    H249307   5.812   3.320  11.371  1.8498 -1.4279  1.5556
 9298TIP3   OH249308   2.954   6.613   3.065 -0.2353  0.1173 -0.6152
 9298TIP3    H149309   2.938   6.541   3.003 -1.0199  0.0334 -0.3173
 9298TIP3    H249310   2.907   6.587   3.144 -0.3800  0.8854 -0.4500
 9299TIP3   OH249311   0.968   6.080  11.677  0.2063 -0.0848 -0.2227
 9299TIP3    H149312   1.019   6.137  11.735 -0.2162  0.5793 -0.4901
 9299TIP3    H249313   1.033   6.037  11.621  0.6434 -0.9726  0.9382
 9300TIP3   OH249314   3.477   0.473  12.116  0.4839 -0.4204  0.0979
 9300TIP3    H149315   3.468   0.389  12.070  1.4652  1.1521 -3.3187
 9300TIP3    H249316   3.388   0.492  12.148 -0.3608 -1.5458 -1.4352
 9301TIP3   OH249317   0.306   0.189  10.606  0.1542 -0.3259 -0.4201
 9301TIP3    H149318   0.223   0.175  10.560  0.2680 -1.3684 -0.3281
 9301TIP3    H249319   0.369   0.206  10.536  0.0239 -0.3316 -0.5398
 9302TIP3   OH249320   5.233   3.440   0.285  0.2207  0.3590  0.0769
 9302TIP3    H149321   5.192   3.489   0.357  1.2489  0.0060  0.9180
 9302TIP3    H249322   5.160   3.420   0.226 -1.3860 -2.4494  2.7197
 9303TIP3   OH249323   0.078   4.874   2.904  0.1562  0.3043 -0.5213
 9303TIP3    H149324  -0.004   4.922   2.889  0.9712  1.8467 -0.2529
 9303TIP3    H249325   0.067   4.833   2.990 -0.2528  0.6941 -0.3842
 9304TIP3   OH249326   6.518   3.754   4.268 -0.3179 -0.1386  0.6073
 9304TIP3    H149327   6.508   3.806   4.348  1.7610  0.4400  0.5700
 9304TIP3    H249328   6.579   3.684   4.293 -0.9602 -0.9467 -0.0552
 9305TIP3   OH249329   3.017   0.243   3.429 -0.2343  0.5424  0.3706
 9305TIP3    H149330   3.092   0.187   3.449  0.1093 -0.0004 -2.0559
 9305TIP3    H249331   3.055   0.325   3.398 -0.5721  0.2166 -1.0044
 9306TIP3   OH249332   3.468   4.231   3.116  0.0689  0.1122 -0.1066
 9306TIP3    H149333   3.417   4.301   3.156 -0.7366 -0.3983 -0.2095
 9306TIP3    H249334   3.415   4.152   3.129  1.0036 -0.5068  0.1134
 9307TIP3   OH249335   3.022   1.057  11.052 -0.5075  0.4234  0.5119
 9307TIP3    H149336   3.083   1.018  10.990  1.8551  1.6108  1.9802
 9307TIP3    H249337   3.033   1.007  11.133 -0.0785  1.8106  1.3432
 9308TIP3   OH249338   2.551   0.534  11.455 -0.1882 -0.6598 -0.4095
 9308TIP3    H149339   2.610   0.465  11.487 -1.2462 -1.2466  0.3240
 9308TIP3    H249340   2.608   0.593  11.407  1.3577 -0.2227  1.7953
 9309TIP3   OH249341   6.565   0.895  13.201 -0.2979  0.0566 -0.5900
 9309TIP3    H149342   6.634   0.954  13.232  0.2750  0.1404 -1.9262
 9309TIP3    H249343   6.613   0.818  13.170 -0.9254 -0.4742 -0.2530
 9310TIP3   OH249344   5.379   0.299   2.589  0.5224  0.6219 -0.2213
 9310TIP3    H149345   5.341   0.225   2.635  2.1839 -0.5834 -0.6796
 9310TIP3    H249346   5.378   0.370   2.653 -2.2155  0.6179 -0.1703
 9311TIP3   OH249347   1.454   4.180   6.080 -0.3589  0.2802 -0.6695
 9311TIP3    H149348   1.458   4.201   6.173  0.7788 -0.0861 -0.6106
 9311TIP3    H249349   1.386   4.113   6.072  0.1083 -0.2989  0.0430
 9312TIP3   OH249350   5.723   3.297  11.895 -0.0980 -0.1240  0.0492
 9312TIP3    H149351   5.661   3.280  11.967 -0.6212 -3.4811 -1.0457
 9312TIP3    H249352   5.669   3.337  11.827 -0.5432 -0.7437  0.0260
 9313TIP3   OH249353   2.282   0.438   5.591 -0.0026 -0.2644  0.2005
 9313TIP3    H149354   2.370   0.448   5.554  0.0440 -1.2348  0.0120
 9313TIP3    H249355   2.226   0.494   5.538  0.6286  1.0534  0.8696
 9314TIP3   OH249356   0.267   4.269   4.105  0.0447  0.1454 -0.2798
 9314TIP3    H149357   0.210   4.346   4.113 -0.5991 -0.3538  0.1015
 9314TIP3    H249358   0.337   4.297   4.046 -0.3934  0.8960 -0.4639
 9315TIP3   OH249359   4.686   0.135  12.877  0.6106 -0.8644 -0.2755
 9315TIP3    H149360   4.764   0.191  12.877  0.7099 -0.9942 -1.2974
 9315TIP3    H249361   4.712   0.057  12.828  0.1329 -1.3301  0.2009
 9316TIP3   OH249362   3.227   3.751  10.671  0.3035  0.0525 -0.5179
 9316TIP3    H149363   3.189   3.831  10.634  1.3092  0.7059 -0.1832
 9316TIP3    H249364   3.321   3.768  10.673  0.4191 -0.6175  0.7972
 9317TIP3   OH249365   4.825   3.221  10.978 -0.7196 -0.1377 -0.4516
 9317TIP3    H149366   4.747   3.177  11.013  0.5006 -1.1065  1.2183
 9317TIP3    H249367   4.851   3.282  11.046  0.6354 -0.6811 -0.4444
 9318TIP3   OH249368   2.516   5.536  13.131  0.8521  0.2200  0.2308
 9318TIP3    H149369   2.563   5.614  13.101  1.5446 -0.9214 -1.8763
 9318TIP3    H249370   2.427   5.547  13.097  1.3488 -0.5534 -1.4433
 9319TIP3   OH249371   3.929   6.481   6.277  0.1218 -0.0671 -0.0088
 9319TIP3    H149372   3.870   6.494   6.351  2.1705  0.6894  1.5913
 9319TIP3    H249373   3.974   6.399   6.296  2.0758  1.0924  0.7067
 9320TIP3   OH249374   5.770   4.291   2.269 -0.3798 -0.2353  0.3665
 9320TIP3    H149375   5.812   4.303   2.354 -0.2808 -0.8649  0.4115
 9320TIP3    H249376   5.838   4.310   2.205 -0.2865 -0.3423  0.4335
 9321TIP3   OH249377   3.222   3.557   3.473 -0.3770  0.2243  0.1018
 9321TIP3    H149378   3.161   3.549   3.400  0.8327  0.4525 -0.9684
 9321TIP3    H249379   3.306   3.527   3.438  0.5173  1.5674  0.9992
 9322TIP3   OH249380   1.959   1.542  16.999 -0.2146  0.0119  0.0609
 9322TIP3    H149381   1.988   1.453  17.020 -2.4898 -0.8618 -0.1849
 9322TIP3    H249382   1.922   1.575  17.081  2.1939  1.4828  0.6436
 9323TIP3   OH249383   3.379   3.346  13.675  0.3698  0.0236  0.2866
 9323TIP3    H149384   3.452   3.391  13.718 -0.5780  3.0200 -1.0024
 9323TIP3    H249385   3.320   3.322  13.747  0.3124  2.0552  0.9711
 9324TIP3   OH249386   4.107   0.832  11.295  0.0009  0.6880  0.2005
 9324TIP3    H149387   4.187   0.809  11.343 -0.2598  1.7510  1.1741
 9324TIP3    H249388   4.070   0.905  11.344 -1.8985 -0.1638  0.1193
 9325TIP3   OH249389   4.709   2.775  12.837 -0.1056 -0.4085 -0.6741
 9325TIP3    H149390   4.648   2.751  12.768 -0.4715 -1.8020  0.0943
 9325TIP3    H249391   4.714   2.697  12.893 -0.2033  0.8257  1.1413
 9326TIP3   OH249392   1.202   5.136  16.916  0.1524  0.0916 -0.0306
 9326TIP3    H149393   1.127   5.077  16.929 -0.0798  0.2746 -0.5367
 9326TIP3    H249394   1.199   5.158  16.824 -0.2955  1.6249  0.3302
 9327TIP3   OH249395   0.861   0.827  10.839 -0.1480  0.2059  0.2255
 9327TIP3    H149396   0.887   0.747  10.793  0.4823  0.1943  0.5828
 9327TIP3    H249397   0.782   0.803  10.887 -1.9187  0.7182 -2.2655
 9328TIP3   OH249398   4.357   1.651  13.242  0.1811 -0.4787 -0.5192
 9328TIP3    H149399   4.304   1.582  13.203  0.1010  0.3723 -1.9637
 9328TIP3    H249400   4.305   1.682  13.317  0.3410 -2.1243  0.3110
 9329TIP3   OH249401   0.366   0.275   0.470 -0.5415 -0.1193 -0.3798
 9329TIP3    H149402   0.315   0.236   0.541  1.1921 -1.0238  0.4295
 9329TIP3    H249403   0.454   0.237   0.479  0.5365  1.9735 -1.1860
 9330TIP3   OH249404   4.808   5.545   1.777 -0.0217  0.1710  0.2749
 9330TIP3    H149405   4.821   5.543   1.682 -1.4702  1.5103 -0.0039
 9330TIP3    H249406   4.713   5.543   1.788  0.1455 -1.9384  1.8123
 9331TIP3   OH249407   4.496   3.973   3.543 -0.0910  0.0546 -0.3092
 9331TIP3    H149408   4.511   3.966   3.637 -0.2040 -2.4898 -0.4144
 9331TIP3    H249409   4.580   4.005   3.509 -0.0164  0.9093  0.6252
 9332TIP3   OH249410   1.386   5.792  15.797 -0.9887  0.8177 -0.2326
 9332TIP3    H149411   1.372   5.698  15.806 -0.9736  0.9274  1.0506
 9332TIP3    H249412   1.435   5.801  15.715  1.8738 -0.6002  1.1873
 9333TIP3   OH249413   5.382   2.357  11.552 -0.2529 -0.4752  0.6967
 9333TIP3    H149414   5.361   2.450  11.540 -1.3520 -0.8143 -0.1203
 9333TIP3    H249415   5.431   2.333  11.474 -0.2549 -0.6636  0.7540
 9334TIP3   OH249416   2.953   5.671   6.459  0.4582  0.1318 -0.3196
 9334TIP3    H149417   2.948   5.766   6.446 -1.4468  0.2663  1.0625
 9334TIP3    H249418   3.046   5.655   6.477  0.5737  1.9723  1.0386
 9335TIP3   OH249419   4.437   1.004   4.475 -0.0962  0.0892 -0.2329
 9335TIP3    H149420   4.369   0.941   4.448  0.1806 -0.7855  1.0058
 9335TIP3    H249421   4.392   1.062   4.536  0.2645 -0.5149  0.6199
 9336TIP3   OH249422   2.790   3.671   5.747  0.4559 -0.2822  0.3560
 9336TIP3    H149423   2.823   3.607   5.684  0.6211 -0.7752  0.9355
 9336TIP3    H249424   2.867   3.722   5.772 -0.0447  1.8347 -1.9469
 9337TIP3   OH249425   0.428   0.178   5.149  0.1268  0.1577 -0.0907
 9337TIP3    H149426   0.360   0.187   5.082 -0.4985 -1.7799  0.2080
 9337TIP3    H249427   0.498   0.128   5.105  0.2170 -0.1158  0.3641
 9338TIP3   OH249428   2.961   3.999   3.868 -0.0974 -0.4141 -0.1003
 9338TIP3    H149429   3.047   3.958   3.860  0.6659  0.8737  1.1145
 9338TIP3    H249430   2.933   3.979   3.957  0.4293  1.8965  0.6280
 9339TIP3   OH249431   1.503   0.930   0.439 -0.0679  0.2523 -0.0481
 9339TIP3    H149432   1.533   1.009   0.485  1.7880 -0.8864  0.8638
 9339TIP3    H249433   1.422   0.905   0.484  0.0517  0.9023  0.5453
 9340TIP3   OH249434   5.428   3.095  16.519  0.2101 -0.3089 -0.7234
 9340TIP3    H149435   5.395   3.137  16.439 -2.0112 -0.6093 -0.0176
 9340TIP3    H249436   5.405   3.155  16.589  1.6538 -0.3142 -0.1972
 9341TIP3   OH249437   6.622   4.808  10.502  0.3801 -0.1083 -0.7147
 9341TIP3    H149438   6.711   4.841  10.518  0.3692  0.4691 -1.7743
 9341TIP3    H249439   6.606   4.749  10.575  1.8077 -0.5718 -0.7282
 9342TIP3   OH249440   6.670   6.172  12.373  0.5056 -0.0386  0.4638
 9342TIP3    H149441   6.662   6.129  12.458  1.3518  0.3538  0.7490
 9342TIP3    H249442   6.744   6.128  12.331  1.0755  0.7932  0.5658
 9343TIP3   OH249443   0.308   2.762  16.278  0.5108  0.0737  0.2091
 9343TIP3    H149444   0.401   2.740  16.275  0.8623  0.7709  2.7639
 9343TIP3    H249445   0.265   2.682  16.308  0.6184  0.3585  1.1603
 9344TIP3   OH249446   3.207   1.854   1.585  0.2247  0.2005 -0.0010
 9344TIP3    H149447   3.136   1.803   1.546 -1.7281  1.0275  2.2452
 9344TIP3    H249448   3.251   1.792   1.643 -0.1522  0.2815  0.3713
 9345TIP3   OH249449   1.773   3.064   2.631 -0.1340 -0.0304  0.0656
 9345TIP3    H149450   1.801   3.155   2.634  0.5112 -0.1422 -1.4211
 9345TIP3    H249451   1.681   3.068   2.605 -0.0764  0.1945 -0.1074
 9346TIP3   OH249452   0.951   4.434  14.750 -0.1556  0.3669  0.0205
 9346TIP3    H149453   0.933   4.343  14.775 -0.4177  0.4741  0.2366
 9346TIP3    H249454   0.868   4.479  14.766  0.0449  0.6933  0.1553
 9347TIP3   OH249455   4.115   2.647   5.536  0.7404 -0.5484  0.4401
 9347TIP3    H149456   4.050   2.714   5.557  0.5215 -0.3878 -0.6692
 9347TIP3    H249457   4.194   2.675   5.582 -0.2356 -1.3660  2.7847
 9348TIP3   OH249458   5.408   6.636   3.791 -0.2100  0.5333 -0.3065
 9348TIP3    H149459   5.346   6.639   3.864 -0.2292 -0.2469 -0.2798
 9348TIP3    H249460   5.428   6.543   3.780  0.0413  0.6706 -1.0900
 9349TIP3   OH249461   3.855   2.778  16.489 -0.0035 -0.2175  0.1896
 9349TIP3    H149462   3.850   2.701  16.546  0.8958 -0.9135 -0.6395
 9349TIP3    H249463   3.931   2.761  16.433 -1.0108  0.3070 -1.4003
 9350TIP3   OH249464   5.820   1.933   2.418 -0.5459 -0.3374 -0.4196
 9350TIP3    H149465   5.797   1.864   2.481  0.5730 -0.1328  0.2391
 9350TIP3    H249466   5.826   2.012   2.471  0.8412 -0.2419 -0.6875
 9351TIP3   OH249467   0.175   6.657  11.244  0.5315 -0.2919 -0.4436
 9351TIP3    H149468   0.128   6.692  11.320  1.1481 -1.6472  0.6093
 9351TIP3    H249469   0.147   6.566  11.238  0.4983 -0.2064 -1.8658
 9352TIP3   OH249470   3.642   4.343  14.124 -0.1884 -0.6056  0.2866
 9352TIP3    H149471   3.591   4.304  14.195 -1.8483  0.5604 -0.1963
 9352TIP3    H249472   3.593   4.423  14.101  3.0646  1.9145  1.3299
 9353TIP3   OH249473   5.053   2.175   0.782 -1.0757  0.1740 -1.1736
 9353TIP3    H149474   5.144   2.205   0.787 -0.9605 -0.0059 -2.0669
 9353TIP3    H249475   5.021   2.184   0.872  0.7255 -2.6459 -0.1132
 9354TIP3   OH249476   0.162   5.386  16.409  0.0090  0.2353  0.2120
 9354TIP3    H149477   0.154   5.299  16.447 -0.8915  0.0972 -0.2838
 9354TIP3    H249478   0.124   5.444  16.475 -0.1544  0.1566  0.1886
 9355TIP3   OH249479   2.144   4.654   0.212 -0.2422  0.2623  0.5344
 9355TIP3    H149480   2.088   4.731   0.200  0.3001  0.5641 -0.0998
 9355TIP3    H249481   2.217   4.667   0.151  0.4815 -0.1602  1.2882
 9356TIP3   OH249482   2.912   5.933   4.834 -0.2324  0.0807  0.1291
 9356TIP3    H149483   2.963   5.891   4.766  2.0950 -0.6728  2.1774
 9356TIP3    H249484   2.864   6.003   4.789  0.2635 -1.0998 -2.4040
 9357TIP3   OH249485   4.984   3.312  14.907 -0.9085  0.0592 -0.1657
 9357TIP3    H149486   4.924   3.275  14.842  0.2686 -1.0112 -0.6656
 9357TIP3    H249487   5.033   3.378  14.859 -0.5137 -0.2523 -0.1902
 9358TIP3   OH249488   5.363   3.749   0.367  0.2019  0.3757  0.1070
 9358TIP3    H149489   5.351   3.737   0.461  1.7205 -2.5280  0.0367
 9358TIP3    H249490   5.434   3.813   0.361  0.5005  0.1402  0.9387
 9359TIP3   OH249491   3.808   0.367   2.831  0.2460 -0.8479 -0.2159
 9359TIP3    H149492   3.829   0.425   2.757  0.6358 -1.7662 -0.8518
 9359TIP3    H249493   3.893   0.328   2.855  0.0242 -1.0022  0.3251
 9360TIP3   OH249494   4.750   3.553   1.435  0.4744  0.3129 -0.5515
 9360TIP3    H149495   4.670   3.528   1.481  1.1513 -1.3154 -0.1754
 9360TIP3    H249496   4.757   3.648   1.447 -0.3067  0.1750  1.1738
 9361TIP3   OH249497   5.200   3.332  16.261 -0.4214 -0.3145 -0.2515
 9361TIP3    H149498   5.285   3.348  16.220  0.2728 -0.5527  1.0419
 9361TIP3    H249499   5.153   3.415  16.249 -0.5496 -0.6220 -2.1643
 9362TIP3   OH249500   4.572   6.679  17.174 -0.3364 -0.5166  0.4362
 9362TIP3    H149501   4.619   6.744  17.122 -1.0047  0.2570  0.7819
 9362TIP3    H249502   4.639   6.616  17.200  0.4036  0.2550  0.4433
 9363TIP3   OH249503   0.292   6.751   5.379 -0.0604  0.1041  0.3818
 9363TIP3    H149504   0.370   6.705   5.348 -0.2779  0.8203 -1.3022
 9363TIP3    H249505   0.237   6.681   5.416 -0.1746 -1.0053 -1.6870
 9364TIP3   OH249506   1.445   1.603  16.511  0.1694 -0.1144 -0.1194
 9364TIP3    H149507   1.427   1.695  16.531 -0.2330  0.6354 -3.3209
 9364TIP3    H249508   1.383   1.554  16.565  0.8043  1.4048  2.1057
 9365TIP3   OH249509   1.566   6.301  15.070 -0.2916 -0.1535  0.1676
 9365TIP3    H149510   1.538   6.295  14.979  1.9450  0.8517 -0.6824
 9365TIP3    H249511   1.652   6.258  15.072 -1.4340 -2.6031  2.4480
 9366TIP3   OH249512   6.253   5.024  12.307 -0.0178 -0.5619 -0.1512
 9366TIP3    H149513   6.234   4.946  12.256 -2.6353  0.1851 -0.4880
 9366TIP3    H249514   6.290   5.086  12.244 -1.2994 -0.3533 -0.7384
 9367TIP3   OH249515   5.739   5.786   3.790  0.2081  0.5132 -0.5877
 9367TIP3    H149516   5.718   5.719   3.855  0.7989  0.4033 -0.4976
 9367TIP3    H249517   5.740   5.740   3.707 -0.8657  0.7175 -0.7306
 9368TIP3   OH249518   4.036   3.181  15.552 -0.2295  0.3632  0.0608
 9368TIP3    H149519   4.092   3.247  15.513 -0.3431  0.0668 -0.6086
 9368TIP3    H249520   3.961   3.175  15.493  0.6809 -1.7559 -0.9656
 9369TIP3   OH249521   3.661   1.088  17.038  0.0219 -0.4318  0.0068
 9369TIP3    H149522   3.599   1.029  17.081  0.4002 -1.5158 -0.8747
 9369TIP3    H249523   3.616   1.115  16.957  0.4031 -0.6366 -0.2779
 9370TIP3   OH249524   4.760   5.575   5.324  0.0728 -0.0509  0.3250
 9370TIP3    H149525   4.792   5.648   5.272  0.2999 -0.6219 -0.3646
 9370TIP3    H249526   4.680   5.608   5.366 -0.4063  0.2810 -0.7941
 9371TIP3   OH249527   5.341   3.643  12.501 -0.9148  0.1574  0.4202
 9371TIP3    H149528   5.278   3.644  12.429  0.2550 -0.3486 -0.6238
 9371TIP3    H249529   5.402   3.713  12.482  1.1936 -1.8645 -0.7604
 9372TIP3   OH249530   6.530   2.552   1.838  0.3695  0.2661  0.3166
 9372TIP3    H149531   6.474   2.573   1.764  0.6486  1.5116  0.4427
 9372TIP3    H249532   6.619   2.573   1.808  0.8648 -2.0522 -0.0248
 9373TIP3   OH249533   5.339   0.685   3.013 -0.2783 -0.5164 -0.3083
 9373TIP3    H149534   5.420   0.692   3.063 -1.5382  2.3586  1.5596
 9373TIP3    H249535   5.362   0.720   2.926  0.6329 -0.3333 -0.0066
 9374TIP3   OH249536   4.053   3.043   1.119 -0.2771  0.3032 -0.1162
 9374TIP3    H149537   4.000   2.964   1.128  1.7396 -1.2057 -0.5968
 9374TIP3    H249538   4.000   3.102   1.065 -1.9266 -0.6181  0.4370
 9375TIP3   OH249539   5.660   0.114  11.016 -0.4034 -0.0806 -0.1083
 9375TIP3    H149540   5.575   0.103  10.973 -1.7402  0.3979  2.2606
 9375TIP3    H249541   5.695   0.195  10.980 -2.0507  0.9548  0.5294
 9376TIP3   OH249542   0.409   3.131   3.437 -0.2490 -0.1762  0.6304
 9376TIP3    H149543   0.394   3.215   3.480 -0.6941 -0.2256  0.5734
 9376TIP3    H249544   0.470   3.150   3.366  1.3036 -0.2603  1.8914
 9377TIP3   OH249545   3.882   6.515   2.976 -0.6693 -0.0594 -0.4812
 9377TIP3    H149546   3.877   6.457   2.901  0.6134 -1.5252  0.4911
 9377TIP3    H249547   3.883   6.604   2.939  1.9939 -0.7626 -2.3652
 9378TIP3   OH249548   2.395   3.417  12.558  0.0037 -0.5027  0.1479
 9378TIP3    H149549   2.420   3.363  12.633  1.2094 -0.6465 -0.3304
 9378TIP3    H249550   2.456   3.491  12.560  0.6213 -0.9391 -1.1371
 9379TIP3   OH249551   3.276   5.045  11.452  0.2942  0.2672  0.5039
 9379TIP3    H149552   3.279   5.057  11.357 -0.3333  1.3778  0.6137
 9379TIP3    H249553   3.324   4.963  11.467  0.9683  0.4182 -0.7001
 9380TIP3   OH249554   4.097   0.244   0.980 -0.0544 -0.3812 -0.0189
 9380TIP3    H149555   4.014   0.211   0.945 -0.7521  0.8800  0.4011
 9380TIP3    H249556   4.072   0.296   1.056  1.3525 -2.1578  1.7514
 9381TIP3   OH249557   2.730   1.220  14.613  0.1985 -0.5882 -0.7952
 9381TIP3    H149558   2.671   1.158  14.656 -0.5212  0.1230 -0.7312
 9381TIP3    H249559   2.817   1.181  14.622 -0.0196 -0.7793  0.7162
 9382TIP3   OH249560   2.595   1.681  14.302 -0.0699  0.0798  0.0721
 9382TIP3    H149561   2.581   1.683  14.397  2.3350  0.3945  0.4889
 9382TIP3    H249562   2.650   1.757  14.285 -1.3391  0.6415 -1.7767
 9383TIP3   OH249563   4.638   0.876   4.018 -0.3445 -0.3237 -0.6002
 9383TIP3    H149564   4.558   0.851   3.970 -0.6028 -2.9782  0.9953
 9383TIP3    H249565   4.709   0.841   3.964 -0.3969 -0.0399 -0.8578
 9384TIP3   OH249566   3.824   5.140  10.837  0.4939 -0.2332 -0.3826
 9384TIP3    H149567   3.746   5.105  10.881 -0.7103  0.3888 -1.9127
 9384TIP3    H249568   3.878   5.174  10.908 -0.8833 -0.2196  0.7084
 9385TIP3   OH249569   3.176   1.732  12.218 -0.1759 -0.4196 -0.2998
 9385TIP3    H149570   3.125   1.718  12.138 -1.4832  1.4920  0.1513
 9385TIP3    H249571   3.249   1.788  12.191 -0.8455  0.5664 -0.0991
 9386TIP3   OH249572   5.173   1.825   0.833  0.0883 -0.0565  0.1594
 9386TIP3    H149573   5.226   1.748   0.814 -0.7617 -0.6839  0.2353
 9386TIP3    H249574   5.115   1.833   0.757  0.9319  1.2080 -0.3865
 9387TIP3   OH249575   4.943   2.985   3.468  0.0975 -0.2786 -0.4442
 9387TIP3    H149576   4.960   3.023   3.554 -0.8041  1.9184 -1.1775
 9387TIP3    H249577   4.928   2.892   3.486  2.4030 -0.3935  1.4212
 9388TIP3   OH249578   5.222   5.347  15.200  0.6871 -0.0696 -0.2477
 9388TIP3    H149579   5.189   5.429  15.237 -1.2796 -0.2748 -1.3948
 9388TIP3    H249580   5.266   5.304  15.273 -2.8957 -0.4119  1.9771
 9389TIP3   OH249581   3.593   0.192  15.915 -0.8939 -0.3566  0.3102
 9389TIP3    H149582   3.596   0.116  15.973  0.3176 -0.5545  0.0309
 9389TIP3    H249583   3.685   0.218  15.906 -1.2269  0.7070 -0.1689
 9390TIP3   OH249584   5.900   4.918   3.254 -0.2666  0.1918 -0.0362
 9390TIP3    H149585   5.975   4.968   3.222  0.8887 -0.9647  0.7775
 9390TIP3    H249586   5.902   4.929   3.349 -3.4972  3.3725 -0.1326
 9391TIP3   OH249587   5.817   6.772   2.715 -0.4108 -0.0682  0.2216
 9391TIP3    H149588   5.780   6.732   2.794 -0.5183 -1.0107 -0.2936
 9391TIP3    H249589   5.754   6.751   2.646  0.2095 -0.1666 -0.3212
 9392TIP3   OH249590   6.155   4.507  15.089  0.4011  0.1936  0.0904
 9392TIP3    H149591   6.148   4.443  15.160 -0.7912 -0.3252 -0.4650
 9392TIP3    H249592   6.104   4.469  15.017  1.4067  0.7930 -0.9872
 9393TIP3   OH249593   3.981   0.424  12.105 -0.1291  0.1998 -0.2519
 9393TIP3    H149594   3.993   0.333  12.078 -0.9205  0.2606 -0.8139
 9393TIP3    H249595   3.960   0.419  12.198 -0.3910 -0.2111 -0.3317
 9394TIP3   OH249596   5.804   2.115   5.442 -0.3930 -0.1020  0.3333
 9394TIP3    H149597   5.842   2.089   5.358 -0.1480 -0.5783  0.5845
 9394TIP3    H249598   5.880   2.125   5.500 -0.6229 -0.7456  0.7555
 9395TIP3   OH249599   1.833   1.346   0.226 -0.2234 -0.0308 -1.1884
 9395TIP3    H149600   1.822   1.392   0.309 -1.2086  0.1865 -1.4223
 9395TIP3    H249601   1.832   1.415   0.160  3.0646  0.0714 -1.2760
 9396TIP3   OH249602   5.342   4.817   1.234 -0.3734  0.0391  0.8373
 9396TIP3    H149603   5.402   4.780   1.299  1.4124  1.8278  0.3150
 9396TIP3    H249604   5.399   4.865   1.173 -2.2333  0.7423 -0.4421
 9397TIP3   OH249605   1.767   0.339  13.788 -0.2561  0.1737 -0.7080
 9397TIP3    H149606   1.751   0.274  13.856 -0.4831  1.5865  0.6597
 9397TIP3    H249607   1.682   0.381  13.774  0.1482  1.0831 -0.5557
 9398TIP3   OH249608   1.075   0.485  12.292  0.3910 -0.1107 -0.0372
 9398TIP3    H149609   1.080   0.456  12.201 -0.3655 -1.5951  0.3693
 9398TIP3    H249610   0.996   0.540  12.295  0.8399  0.5793 -0.4167
 9399TIP3   OH249611   6.216   2.190   2.598 -0.1620  0.4218 -0.2081
 9399TIP3    H149612   6.299   2.236   2.590 -0.0701  0.3200  0.1389
 9399TIP3    H249613   6.188   2.174   2.508 -0.1178  1.0142 -0.3299
 9400TIP3   OH249614   2.768   1.975  11.998  0.4636 -0.1733 -0.2807
 9400TIP3    H149615   2.849   2.013  12.030  0.5349 -0.0209 -0.6369
 9400TIP3    H249616   2.699   2.029  12.037  0.5360 -0.2235 -0.0821
 9401TIP3   OH249617   4.941   0.442   2.372  0.2741  0.3101 -0.1216
 9401TIP3    H149618   5.022   0.399   2.401 -0.4969 -1.7407 -0.7795
 9401TIP3    H249619   4.894   0.462   2.453  1.0658  0.7684  0.2364
 9402TIP3   OH249620   4.338   6.766  14.241  0.6796  0.1030 -0.0659
 9402TIP3    H149621   4.273   6.781  14.171 -0.6474 -0.3417  1.0227
 9402TIP3    H249622   4.390   6.846  14.242 -0.3673  0.8251 -0.4624
 9403TIP3   OH249623   5.603   3.813   1.199 -0.1112  0.6608 -0.1732
 9403TIP3    H149624   5.634   3.816   1.290  0.7021 -1.3796 -0.3193
 9403TIP3    H249625   5.679   3.784   1.149 -0.6600  1.3715 -1.4590
 9404TIP3   OH249626   6.647   3.138   2.284 -0.0255  0.0709 -0.3021
 9404TIP3    H149627   6.696   3.166   2.207 -0.7913  1.4565 -0.3088
 9404TIP3    H249628   6.698   3.064   2.318  2.1059  1.4468 -0.2818
 9405TIP3   OH249629   6.767   3.177   2.971 -0.1864  0.0824 -0.2194
 9405TIP3    H149630   6.843   3.170   3.029 -0.6213  0.6108  0.4332
 9405TIP3    H249631   6.788   3.251   2.914  0.3976 -0.6584 -0.9964
 9406TIP3   OH249632   5.378   1.772   4.707  0.0019 -0.1860  0.1457
 9406TIP3    H149633   5.354   1.818   4.626  0.8543  0.4818  0.2605
 9406TIP3    H249634   5.310   1.705   4.717 -0.5733  0.2505 -0.6834
 9407TIP3   OH249635   1.216   0.345  12.012 -0.3542 -0.1910  0.0310
 9407TIP3    H149636   1.199   0.257  12.047 -1.5581  0.9956  2.7682
 9407TIP3    H249637   1.310   0.359  12.027 -0.1037 -1.0804 -0.6440
 9408TIP3   OH249638   0.376   6.396  15.564  0.3371  0.1823  0.3065
 9408TIP3    H149639   0.382   6.401  15.469 -0.3991  0.8643  0.2799
 9408TIP3    H249640   0.305   6.334  15.581  1.0111 -0.5780  0.4414
 9409TIP3   OH249641   4.379   5.439   6.419 -0.0917  0.6593  0.3007
 9409TIP3    H149642   4.399   5.353   6.457 -0.1888  0.2947 -0.4558
 9409TIP3    H249643   4.300   5.424   6.368 -1.9590  1.8942  2.6173
 9410TIP3   OH249644   4.040   2.920  13.193  0.2334 -0.0777 -0.0158
 9410TIP3    H149645   4.036   2.994  13.254 -0.9188  1.7615 -2.1686
 9410TIP3    H249646   3.949   2.903  13.169  0.5669 -1.5775 -0.2912
 9411TIP3   OH249647   2.077   0.840  17.130 -0.0373 -0.2764  0.0168
 9411TIP3    H149648   2.090   0.925  17.172 -0.1386 -0.6582  0.8361
 9411TIP3    H249649   2.149   0.786  17.161  0.8422 -0.0921 -1.6225
 9412TIP3   OH249650   4.828   0.253   3.559 -0.3400 -0.2723 -0.2068
 9412TIP3    H149651   4.833   0.252   3.463 -1.1272  1.6688 -0.3138
 9412TIP3    H249652   4.819   0.346   3.581 -0.4421 -0.7117  1.7425
 9413TIP3   OH249653   2.828   0.139   5.470  0.3585  0.4271  0.0276
 9413TIP3    H149654   2.803   0.156   5.561  1.8878  0.0184  0.5607
 9413TIP3    H249655   2.778   0.061   5.446  0.0085  0.4816  0.5508
 9414TIP3   OH249656   0.805   0.882   0.034  0.0569 -0.7263 -0.3458
 9414TIP3    H149657   0.876   0.911   0.091 -0.9641 -0.2760  0.7240
 9414TIP3    H249658   0.761   0.962   0.006  0.5595 -0.9318 -1.8355
 9415TIP3   OH249659   6.623   0.198  15.155 -0.5864 -0.1702 -0.2926
 9415TIP3    H149660   6.688   0.255  15.113  0.4872 -0.6621  0.6278
 9415TIP3    H249661   6.663   0.111  15.154 -1.0387 -0.4079  0.6748
 9416TIP3   OH249662   2.075   4.608   5.358 -0.6327  0.1681 -0.2421
 9416TIP3    H149663   2.129   4.640   5.430  0.3060 -1.3237 -0.2461
 9416TIP3    H249664   2.034   4.528   5.392 -1.7608  0.5154 -0.7151
 9417TIP3   OH249665   6.326   3.212  16.966  0.5146 -0.1881  0.1359
 9417TIP3    H149666   6.283   3.261  16.896  0.3844  0.1128  0.4247
 9417TIP3    H249667   6.358   3.279  17.026 -0.8449 -0.4905  1.2337
 9418TIP3   OH249668   3.524   5.812  13.035 -0.6617 -0.5521  0.3865
 9418TIP3    H149669   3.533   5.731  12.984 -1.4935 -0.3521 -0.1026
 9418TIP3    H249670   3.585   5.873  12.995  0.7415 -1.2164  1.4004
 9419TIP3   OH249671   6.233   1.083  14.610 -0.1900  0.3201  0.0543
 9419TIP3    H149672   6.267   1.129  14.686  0.9926 -0.7476  0.2040
 9419TIP3    H249673   6.299   1.097  14.542 -1.2768  1.3398 -0.8356
 9420TIP3   OH249674   3.517   4.701   1.295 -0.1771 -0.2219  0.3134
 9420TIP3    H149675   3.591   4.680   1.238 -0.4198  0.0110 -0.0880
 9420TIP3    H249676   3.556   4.721   1.379  0.1245 -1.6834  0.5597
 9421TIP3   OH249677   3.261   5.976  14.200  0.0090  0.0247 -0.2807
 9421TIP3    H149678   3.202   5.995  14.127 -0.6706 -0.2263  0.1910
 9421TIP3    H249679   3.293   6.062  14.229 -0.2912  0.1765 -0.4006
 9422TIP3   OH249680   6.075   2.203   3.989 -0.2376 -0.6449  0.4058
 9422TIP3    H149681   6.006   2.160   4.039  0.0187 -0.8954  0.5524
 9422TIP3    H249682   6.047   2.197   3.898  0.3369 -2.1912  0.2965
 9423TIP3   OH249683   6.710   1.354  10.536  0.1431 -0.1555 -0.3382
 9423TIP3    H149684   6.799   1.319  10.538  0.1522 -0.1140  0.6717
 9423TIP3    H249685   6.655   1.279  10.559  0.0177  0.0656  0.1042
 9424TIP3   OH249686   3.645   5.384   5.002 -0.8149 -0.4744 -0.0804
 9424TIP3    H149687   3.560   5.427   4.996 -1.4989 -1.4452  1.8876
 9424TIP3    H249688   3.624   5.292   5.018  0.5759 -0.4952  1.9158
 9425TIP3   OH249689   1.359   6.423  15.920  0.4914  0.4557  0.6513
 9425TIP3    H149690   1.287   6.485  15.908  0.3255  0.1036 -0.3094
 9425TIP3    H249691   1.316   6.338  15.928  0.8169 -0.0516 -2.0467
 9426TIP3   OH249692   1.668   3.990   0.204 -0.1300  0.6537  0.1762
 9426TIP3    H149693   1.602   3.961   0.142  2.8759 -2.0698 -2.0267
 9426TIP3    H249694   1.685   4.081   0.181 -0.0823  0.1015 -2.1228
 9427TIP3   OH249695   1.669   1.957   5.455 -0.1924 -0.9489  0.3340
 9427TIP3    H149696   1.686   1.878   5.507  1.0332 -1.8719 -1.3425
 9427TIP3    H249697   1.646   1.923   5.368  1.6999  0.5087 -0.8212
 9428TIP3   OH249698   2.753   2.105  16.389  0.6031  0.2559  0.0686
 9428TIP3    H149699   2.834   2.109  16.338  1.1167  0.4982  0.8810
 9428TIP3    H249700   2.719   2.017  16.373  0.2777  0.6086 -1.3790
 9429TIP3   OH249701   4.220   4.619   3.145 -0.0738  0.2024 -0.3470
 9429TIP3    H149702   4.124   4.629   3.147 -0.4495 -2.5785 -0.4558
 9429TIP3    H249703   4.243   4.586   3.231  0.8839  1.2577 -0.1764
 9430TIP3   OH249704   4.646   4.897  16.072  0.1648  0.1638 -0.5057
 9430TIP3    H149705   4.658   4.848  16.153 -0.0257 -0.0105 -0.5810
 9430TIP3    H249706   4.551   4.907  16.064  0.1557 -0.2543 -0.9615
 9431TIP3   OH249707   3.673   6.627  15.798  0.6062 -0.6693  0.0575
 9431TIP3    H149708   3.754   6.582  15.821  1.0629  0.2974  0.3433
 9431TIP3    H249709   3.700   6.694  15.735  0.4151  1.2231  1.9149
 9432TIP3   OH249710   3.898   2.356  16.521 -0.2399  0.0255  0.2282
 9432TIP3    H149711   3.939   2.376  16.605 -0.3681 -2.1804  0.8972
 9432TIP3    H249712   3.971   2.349  16.459 -0.0540  0.7065  0.3690
 9433TIP3   OH249713   0.258   0.446   2.177  0.4822 -0.1992 -0.6047
 9433TIP3    H149714   0.205   0.367   2.180  0.5809 -0.2804 -0.9560
 9433TIP3    H249715   0.346   0.417   2.200 -0.3909  0.6927  5.1667
 9434TIP3   OH249716   5.648   2.615  16.959  0.2820  0.0292 -0.0091
 9434TIP3    H149717   5.670   2.557  16.886 -2.9344 -0.9721 -0.3302
 9434TIP3    H249718   5.583   2.676  16.923 -1.6456 -0.6949  2.0162
 9435TIP3   OH249719   5.027   5.203  13.182 -0.0125  0.1326 -0.3960
 9435TIP3    H149720   4.946   5.205  13.131 -0.1612  0.2784 -0.1582
 9435TIP3    H249721   5.006   5.151  13.259 -0.5495  1.9459  0.7606
 9436TIP3   OH249722   1.659   1.702   3.256 -0.7006  0.6843 -0.0762
 9436TIP3    H149723   1.724   1.688   3.324 -0.6353 -1.0460 -0.4539
 9436TIP3    H249724   1.575   1.702   3.303 -0.5299  2.0677  0.2943
 9437TIP3   OH249725   0.930   5.562  15.208 -0.1441 -0.4255  0.5506
 9437TIP3    H149726   0.925   5.653  15.180 -1.0761 -0.3786  0.8293
 9437TIP3    H249727   0.854   5.550  15.266  0.2279 -1.2476  0.8960
 9438TIP3   OH249728   0.078   3.938   5.047 -0.3960 -0.4306 -0.3708
 9438TIP3    H149729  -0.003   3.963   5.091 -1.0180 -1.1840 -1.0664
 9438TIP3    H249730   0.124   3.884   5.112  0.1378  0.9689  0.4721
 9439TIP3   OH249731   0.429   6.097   1.874 -0.3676  0.3281 -0.2573
 9439TIP3    H149732   0.414   6.010   1.838 -0.8725  1.0399 -1.8318
 9439TIP3    H249733   0.515   6.123   1.839  0.4588 -0.0719  1.3586
 9440TIP3   OH249734   4.350   5.011  13.002  0.2298 -0.4930 -0.3305
 9440TIP3    H149735   4.314   4.928  12.971  0.0141 -0.8268  0.7508
 9440TIP3    H249736   4.361   4.998  13.097  4.1237 -0.8068 -0.6360
 9441TIP3   OH249737   6.070   6.438  11.184 -0.2171  0.2344 -0.1101
 9441TIP3    H149738   6.091   6.507  11.121 -0.1050  0.4540  0.1696
 9441TIP3    H249739   6.154   6.402  11.210 -0.2250  0.5952  0.4232
 9442TIP3   OH249740   0.584   6.322  14.638  0.2941 -0.3387  0.1561
 9442TIP3    H149741   0.594   6.364  14.553 -1.8849 -0.6598 -0.3243
 9442TIP3    H249742   0.590   6.228  14.619 -1.8073 -0.4964  0.0191
 9443TIP3   OH249743   2.217   0.582   0.783 -0.6203  0.2543 -0.7290
 9443TIP3    H149744   2.189   0.609   0.870  2.0343 -1.3333  0.7785
 9443TIP3    H249745   2.312   0.573   0.791  0.2885  3.3130 -4.7658
 9444TIP3   OH249746   5.305   6.379   0.923 -0.1840  0.1019  0.8376
 9444TIP3    H149747   5.250   6.334   0.858  1.5068 -0.3133 -0.3594
 9444TIP3    H249748   5.279   6.339   1.007 -0.7761 -1.0265  0.1508
 9445TIP3   OH249749   5.371   1.792   6.125  0.2956 -0.2235 -0.5671
 9445TIP3    H149750   5.376   1.764   6.216 -0.6344  0.1204 -0.4061
 9445TIP3    H249751   5.405   1.881   6.126  0.8391 -0.4210 -0.6663
 9446TIP3   OH249752   6.279   5.863   2.903 -0.1607  0.2397  0.0184
 9446TIP3    H149753   6.286   5.783   2.852 -1.3124  0.0673  0.0949
 9446TIP3    H249754   6.185   5.873   2.919  0.0115  1.3264  0.4493
 9447TIP3   OH249755   4.200   1.969   5.835 -0.3070 -0.1479  0.8668
 9447TIP3    H149756   4.191   2.037   5.901  1.5562  0.2006  0.8293
 9447TIP3    H249757   4.290   1.978   5.804 -0.9990 -0.5431 -1.4634
 9448TIP3   OH249758   2.547   1.898   3.594 -0.4248 -0.2195  0.2935
 9448TIP3    H149759   2.642   1.885   3.601 -0.3848  0.3261  0.8168
 9448TIP3    H249760   2.529   1.890   3.501  0.2714  0.5566  0.0826
 9449TIP3   OH249761   1.266   3.078  11.710 -0.3438 -0.5961  0.5864
 9449TIP3    H149762   1.243   3.109  11.623  1.4201 -1.6498 -0.3237
 9449TIP3    H249763   1.247   3.152  11.768 -0.1553  0.6791 -0.9114
 9450TIP3   OH249764   4.027   3.208   4.176  0.3080  0.1666  0.3211
 9450TIP3    H149765   4.049   3.292   4.216 -0.7315  0.5293  0.1579
 9450TIP3    H249766   4.013   3.228   4.083 -1.5057  0.1266  0.5545
 9451TIP3   OH249767   0.191   2.167   4.741 -0.5615  0.2951  0.1219
 9451TIP3    H149768   0.192   2.225   4.664  1.6417 -1.3920 -1.2223
 9451TIP3    H249769   0.172   2.080   4.705 -1.6536 -0.2129  1.8195
 9452TIP3   OH249770   2.980   3.239  11.570  0.2775  0.5485 -0.8826
 9452TIP3    H149771   2.890   3.206  11.578  0.7596 -0.5852  0.2888
 9452TIP3    H249772   3.026   3.200  11.644  1.9435  0.4373 -1.9282
 9453TIP3   OH249773   3.939   6.077   4.940  0.2541 -0.0091  0.8236
 9453TIP3    H149774   3.995   6.094   5.016 -0.4031  0.4291  1.2201
 9453TIP3    H249775   3.972   5.995   4.904  0.7499 -0.0856  1.4277
 9454TIP3   OH249776   2.758   4.685  15.137 -0.3010 -0.3792  0.6285
 9454TIP3    H149777   2.712   4.609  15.172 -1.7804 -0.7108 -1.7715
 9454TIP3    H249778   2.688   4.747  15.115  0.7225  0.7868  0.5536
 9455TIP3   OH249779   0.483   4.098   1.267  0.5761 -0.2114 -0.3216
 9455TIP3    H149780   0.417   4.039   1.304 -0.3528  0.8641 -0.2175
 9455TIP3    H249781   0.486   4.076   1.174 -0.7399  0.4305 -0.5499
 9456TIP3   OH249782   4.905   4.812  11.089  0.3238  0.0560  0.0866
 9456TIP3    H149783   4.984   4.861  11.110  1.8612 -2.1648 -0.2402
 9456TIP3    H249784   4.915   4.788  10.997 -2.7501  3.1810 -1.2916
 9457TIP3   OH249785   6.559   1.670   4.582 -0.1503 -0.0850  0.4698
 9457TIP3    H149786   6.510   1.617   4.644  0.2236 -0.3882  0.5118
 9457TIP3    H249787   6.583   1.609   4.512 -2.0705  0.6108 -0.8746
 9458TIP3   OH249788   0.062   1.348   5.752 -0.5937 -0.0897 -0.1652
 9458TIP3    H149789   0.099   1.264   5.726 -2.2482 -1.3446  1.2947
 9458TIP3    H249790   0.132   1.391   5.802  0.1130 -0.7996 -0.5235
 9459TIP3   OH249791   0.106   1.367   1.722 -0.0761  0.1550 -0.4453
 9459TIP3    H149792   0.160   1.446   1.708 -0.6215  0.2400 -2.3609
 9459TIP3    H249793   0.043   1.393   1.789 -0.3785  1.4516 -1.1912
 9460TIP3   OH249794   5.974   6.201  15.959 -0.0056 -0.2643 -0.2067
 9460TIP3    H149795   5.973   6.288  15.919  2.9599  1.2041  2.4676
 9460TIP3    H249796   5.892   6.196  16.007 -0.9900  0.2767 -1.7529
 9461TIP3   OH249797   0.413   2.519  14.904  0.6272 -0.1459 -0.9435
 9461TIP3    H149798   0.324   2.521  14.869 -0.6307 -0.8098  1.9285
 9461TIP3    H249799   0.415   2.588  14.970  1.5272 -1.5154  0.5220
 9462TIP3   OH249800   5.119   2.194   5.343  0.1802 -0.0656 -0.6763
 9462TIP3    H149801   5.183   2.123   5.351 -1.2939 -1.2805  0.9639
 9462TIP3    H249802   5.074   2.197   5.427 -2.0800  0.5718 -1.8026
 9463TIP3   OH249803   2.899   5.171   2.489 -0.7407  0.6720  0.0991
 9463TIP3    H149804   2.992   5.185   2.474 -0.9328  1.6342 -0.2695
 9463TIP3    H249805   2.882   5.210   2.575 -0.6488 -0.2371  0.5363
 9464TIP3   OH249806   4.610   6.057  12.876 -0.2554  0.3083  0.2658
 9464TIP3    H149807   4.650   6.052  12.963 -0.6777 -0.2761  0.4369
 9464TIP3    H249808   4.623   5.969  12.839 -0.2102  0.5099 -0.2033
 9465TIP3   OH249809   3.473   3.426   1.866  0.1965  0.0723  0.5203
 9465TIP3    H149810   3.447   3.336   1.847 -0.4822  0.1974  0.8396
 9465TIP3    H249811   3.391   3.474   1.869  0.6662  1.3102 -2.5935
 9466TIP3   OH249812   0.199   6.199  14.511 -0.4784  0.5212 -0.3870
 9466TIP3    H149813   0.176   6.110  14.537  1.4913 -0.3443 -1.3511
 9466TIP3    H249814   0.244   6.189  14.427  0.2897  2.3538 -0.2616
 9467TIP3   OH249815   0.766   2.066   3.181 -0.3361  0.7875  0.0462
 9467TIP3    H149816   0.681   2.072   3.224 -1.4761  3.5549 -2.2444
 9467TIP3    H249817   0.825   2.115   3.239  0.0439 -1.8982  2.1023
 9468TIP3   OH249818   5.621   2.583  16.382  0.3523  0.3595  0.7283
 9468TIP3    H149819   5.710   2.609  16.403  0.8073 -1.0053  0.5744
 9468TIP3    H249820   5.627   2.490  16.359 -1.2346  0.0006  1.5766
 9469TIP3   OH249821   4.299   0.653   0.880 -0.0841  0.2053 -0.2971
 9469TIP3    H149822   4.351   0.577   0.906  1.2810  0.9338 -0.7974
 9469TIP3    H249823   4.226   0.617   0.830  0.9553 -0.7454 -1.1803
 9470TIP3   OH249824   2.580   1.074   5.111  0.4317  0.5721 -0.0352
 9470TIP3    H149825   2.500   1.060   5.162  0.2770  0.0423 -0.4077
 9470TIP3    H249826   2.595   1.168   5.115  0.1695  0.5916  0.6044
 9471TIP3   OH249827   5.975   0.855  13.567  0.0518 -0.1237  0.0445
 9471TIP3    H149828   6.050   0.837  13.511 -0.6374  1.4903 -1.5021
 9471TIP3    H249829   6.009   0.912  13.636  0.6000 -0.9115  0.4364
 9472TIP3   OH249830   2.537   4.743   1.608  0.0283  0.0582  0.1115
 9472TIP3    H149831   2.540   4.833   1.639  1.2098 -0.4731  1.7362
 9472TIP3    H249832   2.576   4.692   1.680 -0.5005 -1.7291 -0.8013
 9473TIP3   OH249833   1.991   1.253  15.052 -0.3700 -0.3421  0.4428
 9473TIP3    H149834   1.939   1.258  15.132  0.1210 -1.5202  0.8608
 9473TIP3    H249835   2.077   1.221  15.082 -0.2028 -0.8604 -0.5630
 9474TIP3   OH249836   3.404   6.689  14.620 -0.1725  0.4600 -0.0033
 9474TIP3    H149837   3.491   6.650  14.613 -0.3574 -0.6783  2.7149
 9474TIP3    H249838   3.361   6.668  14.537  0.7678 -2.6559  0.1693
 9475TIP3   OH249839   1.023   4.822  14.613 -0.4231  0.4195 -0.6419
 9475TIP3    H149840   1.016   4.804  14.707 -0.2304  2.3672 -0.2069
 9475TIP3    H249841   0.983   4.746  14.571 -2.6292  0.5240  1.0785
 9476TIP3   OH249842   5.930   2.136  12.621 -0.3625 -0.0866 -0.6080
 9476TIP3    H149843   5.943   2.145  12.716 -0.8630  2.4853 -0.6904
 9476TIP3    H249844   5.835   2.129  12.611 -0.2589 -1.1600 -0.8877
 9477TIP3   OH249845   0.729   5.644   5.075  0.2911  0.1956  0.0892
 9477TIP3    H149846   0.822   5.653   5.054  0.0045  1.5988 -0.7246
 9477TIP3    H249847   0.727   5.604   5.162  1.6567  0.7013  0.3708
 9478TIP3   OH249848   6.691   4.614  13.995 -0.5061 -0.3790  0.2495
 9478TIP3    H149849   6.684   4.543  13.931 -3.0267  1.3229 -1.5319
 9478TIP3    H249850   6.603   4.625  14.030 -0.2699  1.9802  0.3089
 9479TIP3   OH249851   6.419   6.541   2.611  0.2660 -0.3986  0.3012
 9479TIP3    H149852   6.385   6.452   2.604 -2.6086  0.5594  0.7576
 9479TIP3    H249853   6.474   6.552   2.533 -0.0460 -2.2701 -0.2252
 9480TIP3   OH249854   6.709   1.134  13.319  0.0376 -0.1906 -0.0569
 9480TIP3    H149855   6.792   1.143  13.365  0.0688 -1.4121  0.1485
 9480TIP3    H249856   6.643   1.163  13.383  0.3243  1.3618 -0.4254
 9481TIP3   OH249857   1.222   6.164   0.839  0.6901  0.7946  0.3942
 9481TIP3    H149858   1.210   6.259   0.845 -0.5004  0.9313 -2.3804
 9481TIP3    H249859   1.141   6.127   0.872 -0.6939  1.0177 -2.4515
 9482TIP3   OH249860   2.903   0.542  16.232 -0.2789  0.6140  0.5280
 9482TIP3    H149861   2.966   0.577  16.169 -0.9235  1.8816  0.5479
 9482TIP3    H249862   2.829   0.514  16.178  0.0274 -0.2847  0.5579
 9483TIP3   OH249863   0.852   1.875   2.049  0.2819 -0.0200  0.6427
 9483TIP3    H149864   0.829   1.851   1.959 -0.9753  1.4103  0.5350
 9483TIP3    H249865   0.777   1.926   2.080  0.5985 -0.6558  2.5924
 9484TIP3   OH249866   5.140   0.862  12.851 -0.1393 -0.4777 -0.0291
 9484TIP3    H149867   5.165   0.772  12.870 -0.0411 -0.8482 -1.7782
 9484TIP3    H249868   5.115   0.862  12.759 -0.2846  1.2540 -0.0351
 9485TIP3   OH249869   0.957   1.898   0.307  0.0042 -0.2006  0.2878
 9485TIP3    H149870   0.961   1.871   0.215 -0.5593 -0.0219  0.2016
 9485TIP3    H249871   0.919   1.823   0.352  0.9097 -0.5459  0.4940
 9486TIP3   OH249872   1.193   2.658   3.657  0.2117 -0.3326 -0.4432
 9486TIP3    H149873   1.104   2.691   3.667 -0.0370 -0.8043 -1.0195
 9486TIP3    H249874   1.231   2.664   3.745 -1.0191 -1.9106  0.2400
 9487TIP3   OH249875   3.919   4.179   1.686  0.6767  0.6852 -0.0260
 9487TIP3    H149876   3.836   4.201   1.644 -0.6986 -0.2484  2.0080
 9487TIP3    H249877   3.931   4.248   1.752  0.2567 -0.4195  1.2587
 9488TIP3   OH249878   4.043   0.357   1.896  0.4688 -0.3760  0.1242
 9488TIP3    H149879   4.110   0.359   1.827  0.0637  0.8046 -0.2438
 9488TIP3    H249880   4.012   0.447   1.902 -1.9592 -1.0971 -0.5606
 9489TIP3   OH249881   0.275   6.216  16.585 -0.2402 -0.0172  0.3494
 9489TIP3    H149882   0.310   6.300  16.554 -0.9137  1.1816  2.6204
 9489TIP3    H249883   0.206   6.194  16.523 -1.2293  2.0241  0.6602
 9490TIP3   OH249884   6.666   1.228   0.567 -0.2745  0.7005  0.4979
 9490TIP3    H149885   6.590   1.172   0.547 -0.1070  0.5542  0.2721
 9490TIP3    H249886   6.729   1.208   0.498  1.4175 -1.8252  2.6249
 9491TIP3   OH249887   2.627   6.409   1.665  0.4401  0.9523 -0.1343
 9491TIP3    H149888   2.596   6.325   1.699  2.4383  0.1180 -0.1828
 9491TIP3    H249889   2.586   6.417   1.580 -1.2507  0.9661  0.6501
 9492TIP3   OH249890   3.190   5.715   2.779 -0.8514 -0.3481  0.0886
 9492TIP3    H149891   3.241   5.768   2.717 -0.5603 -0.4596  0.2286
 9492TIP3    H249892   3.160   5.640   2.728 -0.6754 -0.4013  0.0638
 9493TIP3   OH249893   4.243   0.063  11.700 -0.2295 -0.2087  0.3999
 9493TIP3    H149894   4.244   0.065  11.605 -0.7789  0.3312  0.4088
 9493TIP3    H249895   4.315   0.003  11.723  1.0714  1.0325 -0.3028
 9494TIP3   OH249896   0.539   0.019  12.112  0.2227  0.4861  0.4896
 9494TIP3    H149897   0.616  -0.036  12.129  0.6666  1.7265  2.8164
 9494TIP3    H249898   0.507  -0.011  12.027  0.6422 -3.0864  1.4341
 9495TIP3   OH249899   2.530   4.504  16.522  0.0043 -0.0643 -0.2314
 9495TIP3    H149900   2.465   4.435  16.536  1.6521 -1.5294  0.7239
 9495TIP3    H249901   2.583   4.473  16.449  1.2033 -0.1996  0.6610
 9496TIP3   OH249902   6.291   6.617  13.915 -0.0889 -0.7612 -0.3198
 9496TIP3    H149903   6.239   6.579  13.844  0.8698 -0.5744 -1.1461
 9496TIP3    H249904   6.235   6.610  13.992 -1.7321  0.3147 -1.3641
 9497TIP3   OH249905   5.732   4.990  14.079 -0.6370 -0.8762  0.3469
 9497TIP3    H149906   5.723   4.962  14.170  1.3095  0.0601  0.8806
 9497TIP3    H249907   5.678   5.069  14.074 -1.1010 -1.1706  0.5500
 9498TIP3   OH249908   1.290   0.020   3.982  0.2551  0.4901  0.8192
 9498TIP3    H149909   1.241  -0.008   3.905 -0.1449  0.0203  1.2434
 9498TIP3    H249910   1.235   0.087   4.023 -0.6073 -0.8732  1.9512
 9499TIP3   OH249911   0.553   2.988  14.200  0.2238  0.2608  0.5898
 9499TIP3    H149912   0.562   3.080  14.174  0.0021  0.5663  1.5305
 9499TIP3    H249913   0.532   2.942  14.119  1.5126  0.8500 -0.1106
 9500TIP3   OH249914   6.195   3.479  17.237  0.3451 -0.2767  0.5392
 9500TIP3    H149915   6.166   3.566  17.264 -1.0662 -0.8025  0.8348
 9500TIP3    H249916   6.280   3.493  17.197  0.2968  1.1899  0.8965
 9501TIP3   OH249917   0.231   1.486   2.855 -0.0134 -0.2898  0.3162
 9501TIP3    H149918   0.249   1.463   2.946 -2.4474 -2.2423  0.4403
 9501TIP3    H249919   0.237   1.403   2.807  0.3536  0.5395 -1.1557
 9502TIP3   OH249920   0.810   1.160  11.984 -0.0119  0.3255  0.2445
 9502TIP3    H149921   0.808   1.230  11.918 -0.1899 -0.5631 -0.7132
 9502TIP3    H249922   0.889   1.178  12.035  0.2552  0.9030 -0.3472
 9503TIP3   OH249923   5.192   4.491  15.509  0.0010 -0.4847 -0.3363
 9503TIP3    H149924   5.204   4.519  15.600 -1.6980  3.7940 -1.1747
 9503TIP3    H249925   5.263   4.533  15.461  0.9920 -2.8535 -1.0842
 9504TIP3   OH249926   6.759   0.168   4.144 -0.4478  0.4232 -0.1738
 9504TIP3    H149927   6.714   0.251   4.127  1.8284  2.0796  1.3192
 9504TIP3    H249928   6.779   0.133   4.057 -0.3921  2.0552 -0.8396
 9505TIP3   OH249929   2.837   6.276   0.183  0.0151 -0.0864  0.5192
 9505TIP3    H149930   2.918   6.225   0.173  1.1863  1.6068  0.7874
 9505TIP3    H249931   2.850   6.352   0.126 -0.8490  0.8176  1.4918
 9506TIP3   OH249932   4.311   6.725   1.596  0.0958 -0.4418 -0.1811
 9506TIP3    H149933   4.323   6.798   1.536 -1.4808 -1.5679 -2.0135
 9506TIP3    H249934   4.272   6.764   1.674 -1.8759  0.5970 -1.5828
 9507TIP3   OH249935   5.754   6.431   1.799 -0.0948 -0.4719 -0.2076
 9507TIP3    H149936   5.836   6.403   1.840 -0.1154 -0.9962 -0.5151
 9507TIP3    H249937   5.746   6.377   1.720 -0.7996 -0.5261 -0.1119
 9508TIP3   OH249938   1.092   3.631   1.917 -0.2839 -0.5053  0.0806
 9508TIP3    H149939   1.089   3.711   1.969  0.4199  0.3540 -1.1510
 9508TIP3    H249940   1.141   3.655   1.838 -2.6462 -1.2950 -1.7670
 9509TIP3   OH249941   0.642   2.218  16.452  0.2837  0.3418  0.0063
 9509TIP3    H149942   0.630   2.241  16.360  0.1047  0.3491  0.0323
 9509TIP3    H249943   0.565   2.253  16.496 -0.1417 -0.5485  0.0018
 9510TIP3   OH249944   0.264   0.217  16.776  0.3166 -0.1525 -0.4479
 9510TIP3    H149945   0.171   0.239  16.776 -0.0068 -1.2950  1.5568
 9510TIP3    H249946   0.303   0.277  16.839  0.8779 -0.0102 -0.9196
 9511TIP3   OH249947   0.655   2.364   1.929  0.0406  0.3288 -0.1693
 9511TIP3    H149948   0.620   2.346   2.017  0.5439 -1.7341 -0.3421
 9511TIP3    H249949   0.746   2.337   1.934  0.0890  0.2476 -1.3221
 9512TIP3   OH249950   5.204   5.747   4.154 -0.6150 -0.3728  0.3981
 9512TIP3    H149951   5.167   5.799   4.226  0.0432  0.1834  0.3536
 9512TIP3    H249952   5.294   5.729   4.182 -0.8736 -1.6121  0.4650
 9513TIP3   OH249953   1.526   3.782   0.861 -0.0194  0.1326 -0.1893
 9513TIP3    H149954   1.516   3.687   0.856 -1.8451  0.2874 -0.2124
 9513TIP3    H249955   1.571   3.806   0.780  0.7922 -0.7398 -0.0078
 9514TIP3   OH249956   5.408   3.469  12.759 -0.4165  0.0422  0.7745
 9514TIP3    H149957   5.427   3.422  12.840 -0.9790  0.8845  1.4155
 9514TIP3    H249958   5.343   3.534  12.785 -1.0900 -0.1012 -0.4928
 9515TIP3   OH249959   4.259   3.868  11.481 -0.5880 -0.3082 -0.3526
 9515TIP3    H149960   4.249   3.773  11.476  0.1702 -0.3818 -0.6698
 9515TIP3    H249961   4.273   3.895  11.390 -0.4522  0.0602 -0.2241
 9516TIP3   OH249962   4.732   4.557  15.028  0.0798  0.0738 -0.0119
 9516TIP3    H149963   4.702   4.635  15.074 -0.5116 -0.9476  1.4372
 9516TIP3    H249964   4.657   4.530  14.975 -0.3923 -0.4904  0.8957
 9517TIP3   OH249965   5.316   3.391   5.613  0.2928 -0.0925 -0.0184
 9517TIP3    H149966   5.238   3.399   5.668  1.1295 -0.7996  1.3257
 9517TIP3    H249967   5.386   3.366   5.673  1.4732  0.0550 -1.2631
 9518TIP3   OH249968   6.628   0.291  11.069  0.7959 -0.2319  0.0467
 9518TIP3    H149969   6.586   0.204  11.069  3.7912 -1.8369 -1.0888
 9518TIP3    H249970   6.624   0.319  11.161 -1.5483 -0.8128  0.1902
 9519TIP3   OH249971   0.782   3.491   6.458  0.0589  0.0940  0.0681
 9519TIP3    H149972   0.731   3.526   6.531  0.6962 -1.3033  1.2370
 9519TIP3    H249973   0.720   3.440   6.407 -0.3773  1.0285 -0.3631
 9520TIP3   OH249974   2.516   5.235  11.606 -0.3431  0.5806 -0.0475
 9520TIP3    H149975   2.487   5.217  11.517 -1.6301 -0.1484  0.4972
 9520TIP3    H249976   2.593   5.180  11.618 -0.7362 -0.0495 -0.3937
 9521TIP3   OH249977   0.827   0.190  16.929  0.1303 -0.4705 -0.1042
 9521TIP3    H149978   0.886   0.241  16.985 -1.0192  0.9787 -0.1348
 9521TIP3    H249979   0.788   0.255  16.870  0.2232 -1.7466 -1.6316
 9522TIP3   OH249980   5.304   3.170  10.452  0.0850 -0.0904 -0.4684
 9522TIP3    H149981   5.282   3.078  10.462  0.8368 -0.2146  0.1354
 9522TIP3    H249982   5.395   3.177  10.482  0.6645  0.5194 -2.2426
 9523TIP3   OH249983   0.705   2.828  12.667  0.3910  0.4358  0.0677
 9523TIP3    H149984   0.783   2.788  12.705  0.1756  0.2890  0.3546
 9523TIP3    H249985   0.716   2.816  12.573  0.4097 -0.1596  0.1384
 9524TIP3   OH249986   4.204   5.306  16.215 -0.3668  0.0436 -0.1413
 9524TIP3    H149987   4.236   5.253  16.288 -0.8570  0.0343  0.0755
 9524TIP3    H249988   4.140   5.249  16.171  0.3300 -0.1493 -0.9096
 9525TIP3   OH249989   2.596   0.104  12.631  0.1774  0.3824  0.0200
 9525TIP3    H149990   2.675   0.096  12.578 -0.3415  0.3735 -0.7655
 9525TIP3    H249991   2.599   0.193  12.665  1.1614 -0.0126  1.0486
 9526TIP3   OH249992   5.384   2.517  16.905  0.0860 -0.1404  0.2907
 9526TIP3    H149993   5.348   2.431  16.882 -2.6577  1.1478 -0.6603
 9526TIP3    H249994   5.423   2.549  16.824 -1.5343  0.6629 -0.2193
 9527TIP3   OH249995   2.390   3.231   2.025 -0.1234  0.3707  0.2181
 9527TIP3    H149996   2.450   3.234   2.099  0.6937  1.3154 -0.4715
 9527TIP3    H249997   2.374   3.137   2.011  0.3508  0.1590  1.0620
 9528TIP3   OH249998   5.356   6.517  16.214 -0.4714 -0.1197 -0.2003
 9528TIP3    H149999   5.310   6.600  16.212 -1.9225 -0.8795 -2.4316
 9528TIP3    H250000   5.343   6.484  16.303 -0.2986  1.7826  0.5555
 9529TIP3   OH250001   3.780   5.751   6.260 -0.3721  0.5010 -0.2352
 9529TIP3    H150002   3.809   5.797   6.339  0.6012 -0.3334 -0.0779
 9529TIP3    H250003   3.835   5.673   6.257 -0.1716  0.6765 -1.9060
 9530TIP3   OH250004   3.240   5.976  15.334  0.7302  0.3702 -0.9140
 9530TIP3    H150005   3.269   5.892  15.299  0.0978 -0.7322  1.0368
 9530TIP3    H250006   3.145   5.977  15.321  0.5583  0.1790  0.1865
 9531TIP3   OH250007   4.467   2.023   3.907  0.2874  0.0554 -0.3138
 9531TIP3    H150008   4.414   1.943   3.905  1.3660 -0.7180  0.4836
 9531TIP3    H250009   4.412   2.089   3.865 -1.7351 -0.4459  1.3152
 9532TIP3   OH250010   0.600   3.719  12.710  0.1163  0.5845  0.0644
 9532TIP3    H150011   0.669   3.785  12.717  0.3220  0.4049 -0.2596
 9532TIP3    H250012   0.566   3.711  12.799  0.4174  0.7733  0.1994
 9533TIP3   OH250013   3.877   5.174  16.171 -0.2021 -0.0690  0.4968
 9533TIP3    H150014   3.815   5.115  16.215 -0.6311  0.4166  0.5495
 9533TIP3    H250015   3.888   5.247  16.232 -0.0652  0.1518  0.2127
 9534TIP3   OH250016   3.355   3.692   1.652 -0.1202  0.0565 -0.5426
 9534TIP3    H150017   3.340   3.696   1.747 -2.7622 -0.9620 -0.8268
 9534TIP3    H250018   3.302   3.763   1.617  0.2688 -0.0234 -1.3036
 9535TIP3   OH250019   4.351   1.949  10.707 -0.4346 -0.1076 -0.8310
 9535TIP3    H150020   4.299   1.869  10.711  0.4006 -0.6392  0.4183
 9535TIP3    H250021   4.437   1.923  10.741 -0.1721  1.3473 -0.2946
 9536TIP3   OH250022   0.101   3.549   5.548 -0.2979 -0.1101 -0.5145
 9536TIP3    H150023   0.171   3.576   5.489  1.7097 -0.6889  1.4724
 9536TIP3    H250024   0.133   3.569   5.636 -1.7699 -2.2005  0.6114
 9537TIP3   OH250025   3.189   6.013   5.691 -0.2389  0.1194  0.1808
 9537TIP3    H150026   3.111   5.969   5.724  0.5821  0.2762  2.5184
 9537TIP3    H250027   3.229   5.950   5.630 -1.6336 -0.3575 -0.2646
 9538TIP3   OH250028   2.187   1.677  17.268 -0.5388  0.2229  0.1309
 9538TIP3    H150029   2.101   1.637  17.257 -0.5017  0.6630 -2.3281
 9538TIP3    H250030   2.172   1.771  17.259  0.2793  0.2523 -1.3066
 9539TIP3   OH250031   6.192   1.663  14.529 -0.2566 -0.0977  0.4312
 9539TIP3    H150032   6.264   1.606  14.557 -1.8731 -1.5362  1.8768
 9539TIP3    H250033   6.194   1.660  14.433  0.8252 -1.0969  0.4683
 9540TIP3   OH250034   6.306   1.641   1.464 -0.1408 -0.5878  0.0405
 9540TIP3    H150035   6.264   1.556   1.455  0.5380 -1.0133  0.8293
 9540TIP3    H250036   6.365   1.646   1.388 -1.0562 -0.2879 -0.6752
 9541TIP3   OH250037   6.523   4.114  13.210  0.0143  0.2230 -0.1851
 9541TIP3    H150038   6.618   4.123  13.215  0.2945 -2.5520  1.6891
 9541TIP3    H250039   6.510   4.052  13.138 -0.3486  0.4554 -0.3156
 9542TIP3   OH250040   1.267   3.039  16.415 -0.2324 -0.8867  0.7203
 9542TIP3    H150041   1.354   3.001  16.414  0.4548  0.6146  0.1228
 9542TIP3    H250042   1.258   3.077  16.503 -0.6151 -1.7261  1.0535
 9543TIP3   OH250043   1.931   5.936   6.554 -0.0175  0.1378 -0.4585
 9543TIP3    H150044   1.925   6.030   6.571 -2.7258  0.2679 -1.6517
 9543TIP3    H250045   1.906   5.926   6.462  0.0586 -1.7569 -0.3184
 9544TIP3   OH250046   5.674   1.738   3.182 -0.1044  0.0463  0.1396
 9544TIP3    H150047   5.624   1.656   3.180  0.6565 -0.4199 -1.6515
 9544TIP3    H250048   5.765   1.710   3.186  0.1149  0.8538  0.9512
 9545TIP3   OH250049   1.433   5.032   0.740  0.7475 -0.0738 -0.2565
 9545TIP3    H150050   1.409   5.087   0.815 -0.2828 -1.6358  0.6083
 9545TIP3    H250051   1.411   4.943   0.768  1.3259 -0.8086 -2.0389
 9546TIP3   OH250052   4.569   6.445   3.815 -0.0425 -0.0073  0.5930
 9546TIP3    H150053   4.601   6.378   3.755 -2.0815  0.8517 -1.6113
 9546TIP3    H250054   4.496   6.404   3.860 -0.9600  0.5251 -0.3764
 9547TIP3   OH250055   5.264   6.064  14.779 -0.4072 -0.0873 -0.0404
 9547TIP3    H150056   5.319   6.017  14.842  0.2330  0.6428 -0.0560
 9547TIP3    H250057   5.325   6.113  14.725 -1.0189  0.0259 -0.6361
 9548TIP3   OH250058   1.014   3.012  12.603  0.3414 -0.1532 -0.0028
 9548TIP3    H150059   1.090   2.982  12.553  0.9503  0.3046  0.6344
 9548TIP3    H250060   0.958   2.935  12.608 -0.4926  0.1697 -2.7137
 9549TIP3   OH250061   2.374   1.771   0.275 -0.6290  0.2800  0.6224
 9549TIP3    H150062   2.380   1.768   0.371  0.0414 -1.5174  0.5578
 9549TIP3    H250063   2.322   1.695   0.252  0.4336 -0.1259 -0.5215
 9550TIP3   OH250064   2.426   1.703  15.067 -0.0921  0.0660  0.0220
 9550TIP3    H150065   2.397   1.749  14.989 -1.3512 -1.6572 -0.5739
 9550TIP3    H250066   2.346   1.685  15.116  0.4788 -0.6159  0.7419
 9551TIP3   OH250067   1.486   0.086  11.831  0.0718  0.0113  0.4114
 9551TIP3    H150068   1.432   0.007  11.842  1.4665 -1.5090 -2.4933
 9551TIP3    H250069   1.519   0.105  11.919 -1.8747 -1.4473  1.5274
 9552TIP3   OH250070   4.735   2.302   3.523 -0.2446 -0.0525  0.0736
 9552TIP3    H150071   4.652   2.260   3.499 -0.0176 -0.8818  0.7092
 9552TIP3    H250072   4.709   2.388   3.557 -0.7108  0.3870 -1.2916
 9553TIP3   OH250073   0.334   6.207  15.097  0.0114  0.7154  0.4555
 9553TIP3    H150074   0.275   6.227  15.025 -1.1018 -0.0420  1.1162
 9553TIP3    H250075   0.393   6.140  15.062 -0.3580  0.5350  0.1704
 9554TIP3   OH250076   1.692   3.180   5.936  0.4855  0.2963  0.5188
 9554TIP3    H150077   1.687   3.105   5.876  0.0473  1.4208 -0.9111
 9554TIP3    H250078   1.618   3.168   5.995 -0.0688  0.0239 -0.2145
 9555TIP3   OH250079   5.639   6.592  16.365 -0.8310  0.0541 -0.6911
 9555TIP3    H150080   5.655   6.603  16.271  1.8468  0.0515 -0.2898
 9555TIP3    H250081   5.634   6.681  16.399 -0.5124  0.0510 -0.6381
 9556TIP3   OH250082   1.244   2.679  16.287  0.2233  0.0903  0.2525
 9556TIP3    H150083   1.205   2.698  16.373 -1.3433  2.0393 -0.8019
 9556TIP3    H250084   1.338   2.694  16.299  0.0413  0.2303  1.6319
 9557TIP3   OH250085   1.743   0.421  14.466 -0.4575  0.6670 -0.2714
 9557TIP3    H150086   1.774   0.373  14.389 -0.7354  0.3529 -0.1905
 9557TIP3    H250087   1.761   0.513  14.446 -0.2208  0.5562 -0.5680
 9558TIP3   OH250088   4.326   0.906  12.390  0.2277 -0.5325 -0.2243
 9558TIP3    H150089   4.283   0.847  12.452 -3.4171  0.8903 -1.1226
 9558TIP3    H250090   4.259   0.924  12.324  2.5642  1.3310 -2.2712
 9559TIP3   OH250091   4.436   2.342  11.941  0.0598 -0.4197  0.1921
 9559TIP3    H150092   4.464   2.282  11.872 -0.1689 -0.9759  0.5832
 9559TIP3    H250093   4.518   2.372  11.981  0.1680 -0.6133  0.1180
 9560TIP3   OH250094   0.130   5.501   0.508  0.3039  0.5624  0.3130
 9560TIP3    H150095   0.126   5.442   0.433  0.7307  0.2340  0.5396
 9560TIP3    H250096   0.043   5.496   0.547 -0.1676  1.3348 -0.5933
 9561TIP3   OH250097   2.264   0.062   3.420 -0.6351 -0.5478 -0.2493
 9561TIP3    H150098   2.244   0.143   3.372 -1.2440 -0.9846 -0.7531
 9561TIP3    H250099   2.235  -0.008   3.362  0.4217 -1.1582 -0.0723
 9562TIP3   OH250100   1.675   1.181  11.847  0.0845 -0.2160  0.3395
 9562TIP3    H150101   1.700   1.274  11.849 -2.1106  0.4080  1.6101
 9562TIP3    H250102   1.732   1.140  11.912  0.5182  0.3786  0.3476
 9563TIP3   OH250103   4.217   2.234   5.599 -0.2902  0.1983 -0.1410
 9563TIP3    H150104   4.167   2.269   5.524 -1.1362  0.6542  0.6059
 9563TIP3    H250105   4.212   2.139   5.589  2.9411  0.1512 -2.8013
 9564TIP3   OH250106   0.268   0.052  13.902 -0.3286  0.0583  0.1509
 9564TIP3    H150107   0.175   0.039  13.881 -0.6834  1.1928  0.8936
 9564TIP3    H250108   0.302  -0.036  13.916 -1.0681 -0.4343 -1.0251
 9565TIP3   OH250109   0.946   2.573  15.450  0.2096  0.1459  0.1771
 9565TIP3    H150110   0.991   2.606  15.372  1.1319 -0.7067  0.3338
 9565TIP3    H250111   1.015   2.534  15.503 -0.7186 -1.2550  0.4040
 9566TIP3   OH250112   2.515   5.340   5.372 -0.0074 -0.0262 -0.0438
 9566TIP3    H150113   2.434   5.387   5.351  1.3910  1.0656 -4.0149
 9566TIP3    H250114   2.582   5.408   5.373  1.5661 -1.3636 -2.5096
 9567TIP3   OH250115   0.685   3.464   5.944  0.0850 -0.2128 -0.1885
 9567TIP3    H150116   0.628   3.496   5.874 -0.2246  0.6201  0.4263
 9567TIP3    H250117   0.633   3.398   5.990 -0.5045  0.7346  0.5356
 9568TIP3   OH250118   5.421   5.937   3.618  0.9350  0.0153 -0.3236
 9568TIP3    H150119   5.369   5.993   3.560 -0.3427 -0.3355  0.4613
 9568TIP3    H250120   5.508   5.937   3.578  0.8794  2.2003 -0.6062
 9569TIP3   OH250121   2.359   2.355   0.870 -0.0084  0.3391  0.3822
 9569TIP3    H150122   2.290   2.387   0.928 -0.5182 -0.7069  0.3694
 9569TIP3    H250123   2.439   2.394   0.904 -0.0705 -1.4064  2.7373
 9570TIP3   OH250124   3.947   0.881   2.915 -0.1724  0.2713 -0.5411
 9570TIP3    H150125   4.033   0.920   2.900  0.2704 -0.8276 -1.0063
 9570TIP3    H250126   3.926   0.837   2.832 -0.1314 -1.4037  0.3004
 9571TIP3   OH250127   0.122   6.396   2.778  0.1111  0.4551  0.1533
 9571TIP3    H150128   0.144   6.345   2.700  0.4473  0.7838  0.0296
 9571TIP3    H250129   0.062   6.340   2.827 -1.8095  1.0460 -1.3559
 9572TIP3   OH250130   3.061   5.328  12.651  0.3419  0.0604 -0.0088
 9572TIP3    H150131   3.117   5.284  12.586 -1.1194 -1.3975 -0.3602
 9572TIP3    H250132   2.973   5.317  12.616 -0.2568  1.4324  1.0291
 9573TIP3   OH250133   4.980   4.636   5.384 -0.0654 -0.1905 -0.0570
 9573TIP3    H150134   4.947   4.676   5.465  0.9050  0.5322 -0.0038
 9573TIP3    H250135   4.913   4.657   5.318  0.0607  0.9050  0.1338
 9574TIP3   OH250136   6.373   3.003   4.853  0.5893  0.7107  0.3144
 9574TIP3    H150137   6.303   3.046   4.803  0.2101 -0.4889 -0.2262
 9574TIP3    H250138   6.349   3.016   4.945  0.0020  0.8713  0.1420
 9575TIP3   OH250139   3.441   1.171   4.751 -0.4715  0.4221  0.2382
 9575TIP3    H150140   3.464   1.263   4.747  1.4205  0.2669  3.8364
 9575TIP3    H250141   3.500   1.129   4.688 -0.0864  1.4702 -0.1162
 9576TIP3   OH250142   6.708   1.719  15.764  0.1285  0.6978 -0.3390
 9576TIP3    H150143   6.703   1.787  15.831  0.8007  0.9569 -0.5388
 9576TIP3    H250144   6.675   1.640  15.807 -2.0616  1.4290 -0.5262
 9577TIP3   OH250145   2.972   3.513  16.761 -0.7052  0.5231  0.0609
 9577TIP3    H150146   3.004   3.548  16.844  0.2448 -0.7302  0.2522
 9577TIP3    H250147   2.877   3.528  16.763 -0.8495 -0.4056  1.8401
 9578TIP3   OH250148   5.718   0.637   5.039 -1.1053  0.1995  0.2795
 9578TIP3    H150149   5.724   0.733   5.033 -2.0069  0.3286  1.1369
 9578TIP3    H250150   5.713   0.608   4.949  2.6044  0.6683 -0.2176
 9579TIP3   OH250151   6.524   3.048   3.048  0.3439 -0.1890  0.2316
 9579TIP3    H150152   6.613   3.074   3.026 -0.6430  1.3577 -2.3118
 9579TIP3    H250153   6.515   2.959   3.012  0.7727 -0.2447  0.2656
 9580TIP3   OH250154   2.733   2.711  13.028  0.6781 -0.0192  0.5240
 9580TIP3    H150155   2.801   2.746  13.085  1.5706 -0.8695  0.0043
 9580TIP3    H250156   2.702   2.632  13.072 -1.0258  1.1186  1.4777
 9581TIP3   OH250157   5.982   6.612  11.424  0.2543  0.3568  0.6347
 9581TIP3    H150158   5.962   6.566  11.505 -0.5487  1.3080  1.0026
 9581TIP3    H250159   5.950   6.554  11.355  1.8958 -0.9467  0.9041
 9582TIP3   OH250160   1.245   2.608   6.281  0.3698  0.3485  0.0696
 9582TIP3    H150161   1.317   2.598   6.219 -0.1158 -1.1258 -0.2905
 9582TIP3    H250162   1.178   2.547   6.251 -0.1900  0.1634  1.5957
 9583TIP3   OH250163   1.872   2.502  11.491 -0.6608 -0.0139 -0.0780
 9583TIP3    H150164   1.858   2.477  11.400 -1.1844  1.0922 -0.3160
 9583TIP3    H250165   1.815   2.578  11.505  1.7454  1.8527  0.2441
 9584TIP3   OH250166   0.010   3.002  11.511 -0.6842  0.3436 -0.1444
 9584TIP3    H150167  -0.048   3.008  11.587  1.3564 -0.9050  1.6334
 9584TIP3    H250168   0.049   3.089  11.504 -1.1065  0.5522  0.0138
 9585TIP3   OH250169   4.450   2.730  13.404 -0.0260  0.1006  0.3426
 9585TIP3    H150170   4.366   2.690  13.382  0.4600 -0.3348 -0.7939
 9585TIP3    H250171   4.434   2.824  13.394 -0.8125  0.1605  1.7704
 9586TIP3   OH250172   5.616   6.334   0.561  0.5686  0.2432  0.0400
 9586TIP3    H150173   5.611   6.430   0.561 -1.4683  0.1831 -0.1291
 9586TIP3    H250174   5.615   6.309   0.653 -1.4685  0.3460  0.0857
 9587TIP3   OH250175   4.582   2.530  13.637 -0.0115 -0.0158  0.8285
 9587TIP3    H150176   4.563   2.610  13.588  0.9739 -0.5437 -0.4804
 9587TIP3    H250177   4.498   2.487  13.647 -0.2588  0.1691 -0.3268
 9588TIP3   OH250178   5.084   5.560  12.031  0.7195  0.0633  0.0419
 9588TIP3    H150179   5.020   5.499  12.070 -0.3774  2.0198  1.4650
 9588TIP3    H250180   5.053   5.571  11.941  0.0039 -0.2798  0.2340
 9589TIP3   OH250181   6.064   3.823  16.096 -0.3205 -0.2289 -0.0836
 9589TIP3    H150182   6.157   3.814  16.117 -0.3647  0.2321  0.3363
 9589TIP3    H250183   6.022   3.752  16.144 -0.4102  0.7693  1.3720
 9590TIP3   OH250184   1.382   4.738   0.629 -0.1654  0.6560 -0.1807
 9590TIP3    H150185   1.358   4.785   0.549  2.3629 -0.4285 -1.6881
 9590TIP3    H250186   1.368   4.646   0.608  0.3241  0.3675  0.7022
 9591TIP3   OH250187   3.975   1.994   6.590 -0.5269 -0.3793  0.2283
 9591TIP3    H150188   3.926   2.073   6.564 -0.5502 -0.2913  0.5456
 9591TIP3    H250189   4.039   2.024   6.653  1.6134 -0.0610 -1.9651
 9592TIP3   OH250190   6.171   6.015   5.247 -0.2406 -0.3809  0.4163
 9592TIP3    H150191   6.179   5.930   5.289  0.2758  0.3663  1.9425
 9592TIP3    H250192   6.119   6.067   5.309  1.2022  0.9981  0.5466
 9593TIP3   OH250193   1.544   1.367   0.974 -0.9550 -0.3741  0.4656
 9593TIP3    H150194   1.519   1.292   0.921 -1.5239  1.9019 -2.8326
 9593TIP3    H250195   1.639   1.360   0.983 -0.9320 -1.1978 -0.2773
 9594TIP3   OH250196   5.015   5.717   5.694 -0.4467  0.5368 -0.3247
 9594TIP3    H150197   4.921   5.723   5.709 -0.3014 -0.1173  0.9607
 9594TIP3    H250198   5.024   5.718   5.599 -2.0495 -3.0934 -0.6624
 9595TIP3   OH250199   2.677   2.399   4.035 -0.0049 -0.3652  0.1739
 9595TIP3    H150200   2.749   2.370   4.090  1.2192  1.3601 -0.4191
 9595TIP3    H250201   2.627   2.459   4.090 -0.7141 -1.1602  0.4177
 9596TIP3   OH250202   5.893   1.807  14.726 -0.5630 -0.0408 -0.1023
 9596TIP3    H150203   5.954   1.734  14.714 -0.9952 -0.8809  2.3344
 9596TIP3    H250204   5.833   1.778  14.794 -1.8603  1.9408 -0.3009
 9597TIP3   OH250205   5.622   0.542  15.295 -0.0060  0.2190 -0.1628
 9597TIP3    H150206   5.627   0.565  15.203  0.1636  0.2492 -0.1458
 9597TIP3    H250207   5.582   0.455  15.296  1.7748 -0.6362 -0.3746
 9598TIP3   OH250208   4.771   4.510  17.273 -0.5243 -0.2962 -0.5731
 9598TIP3    H150209   4.735   4.555  17.349 -0.1840 -0.9874  0.0103
 9598TIP3    H250210   4.724   4.426  17.271  1.0382 -1.2403  0.2359
 9599TIP3   OH250211   1.888   6.278  12.189 -0.3165  0.2404  0.4135
 9599TIP3    H150212   1.946   6.302  12.261 -0.2014  0.6832  0.1776
 9599TIP3    H250213   1.849   6.361  12.161  0.2851  0.1974 -0.5865
 9600TIP3   OH250214   4.475   5.975  10.829  0.5392  0.7000 -0.0978
 9600TIP3    H150215   4.548   5.920  10.802  1.2222  2.0851 -1.1895
 9600TIP3    H250216   4.397   5.931  10.795  1.1392  0.7839 -1.6235
 9601TIP3   OH250217   2.563   4.591   3.487 -0.6291  0.0908 -0.3051
 9601TIP3    H150218   2.555   4.605   3.581 -1.1640  0.3563 -0.3832
 9601TIP3    H250219   2.512   4.662   3.448  0.0538  0.3060 -0.8069
 9602TIP3   OH250220   3.039   6.374   6.737  0.4272  0.6149  0.3701
 9602TIP3    H150221   2.974   6.338   6.799 -0.0272 -0.3874 -0.6467
 9602TIP3    H250222   3.092   6.298   6.711  0.9086  1.1069 -0.1114
 9603TIP3   OH250223   6.703   4.118  16.352  0.6905 -0.4954  0.4976
 9603TIP3    H150224   6.755   4.132  16.273  1.6001  0.5066  1.2388
 9603TIP3    H250225   6.763   4.077  16.413  0.4182  0.0622  1.1498
 9604TIP3   OH250226   1.816   1.373   0.920 -0.1900 -0.2456  0.4304
 9604TIP3    H150227   1.853   1.290   0.949  0.3003  0.0385  0.6280
 9604TIP3    H250228   1.773   1.352   0.837  0.7208 -0.5191  0.0128
 9605TIP3   OH250229   5.155   2.281  14.153 -0.0625  0.1049  0.6391
 9605TIP3    H150230   5.221   2.240  14.210  1.5048  1.8644  0.1860
 9605TIP3    H250231   5.140   2.368  14.192  2.1212  1.9587 -2.2704
 9606TIP3   OH250232   3.471   6.205   0.815 -0.0243 -0.1923 -0.5914
 9606TIP3    H150233   3.454   6.249   0.898 -0.1403 -2.1001  0.4475
 9606TIP3    H250234   3.452   6.272   0.749 -0.7209  1.1354  0.8734
 9607TIP3   OH250235   4.366   0.737  12.019 -0.0604 -1.1583 -0.0627
 9607TIP3    H150236   4.304   0.693  12.078 -2.0629  2.1166  0.5606
 9607TIP3    H250237   4.321   0.741  11.935 -1.1101  1.7635  0.5416
 9608TIP3   OH250238   4.821   2.388   1.340  0.7841  0.0032 -0.2867
 9608TIP3    H150239   4.743   2.441   1.357  2.0872  1.6491  0.7437
 9608TIP3    H250240   4.786   2.301   1.318 -1.3272  0.6602  0.2706
 9609TIP3   OH250241   2.230   4.525   3.116 -0.4278  0.0845 -0.0109
 9609TIP3    H150242   2.276   4.609   3.116 -0.3977  0.0814  1.3419
 9609TIP3    H250243   2.145   4.544   3.075  0.0150  0.5124 -0.7444
 9610TIP3   OH250244   5.175   3.549   2.843  0.0065 -0.3158 -0.5416
 9610TIP3    H150245   5.263   3.547   2.803 -0.2152  1.5472 -1.2146
 9610TIP3    H250246   5.177   3.479   2.908  1.2840 -1.7242 -1.9856
 9611TIP3   OH250247   5.319   3.833  15.770  0.4429 -0.1874  0.3137
 9611TIP3    H150248   5.391   3.879  15.726 -0.5878  1.6655  0.4772
 9611TIP3    H250249   5.362   3.787  15.843  1.5438  0.3400  0.0236
 9612TIP3   OH250250   4.841   4.378   1.818  0.1286 -0.6511  0.1685
 9612TIP3    H150251   4.821   4.383   1.912  0.2924  1.8450  0.1435
 9612TIP3    H250252   4.756   4.383   1.775  0.2067  2.6603  0.1837
 9613TIP3   OH250253   4.202   0.228   3.295 -0.6843  0.7296 -0.3969
 9613TIP3    H150254   4.213   0.134   3.279  0.5996  0.7030  0.4768
 9613TIP3    H250255   4.236   0.241   3.383 -1.5018  1.9164 -0.2338
 9614TIP3   OH250256   2.758   2.442   0.720 -0.0395 -0.5900  0.1347
 9614TIP3    H150257   2.680   2.490   0.693 -0.2694 -2.0205 -1.9026
 9614TIP3    H250258   2.830   2.491   0.681 -0.2146 -1.3925 -1.2317
 9615TIP3   OH250259   0.600   2.020  17.086  0.1144  0.4449  0.0823
 9615TIP3    H150260   0.597   2.100  17.138  0.5080 -0.7853  2.0705
 9615TIP3    H250261   0.599   1.949  17.150  2.6651 -1.1399 -1.4673
 9616TIP3   OH250262   2.667   0.029   3.206 -0.1415  0.2781 -0.5036
 9616TIP3    H150263   2.675   0.104   3.264  0.9188 -0.1295 -0.0958
 9616TIP3    H250264   2.733   0.044   3.138  0.1578 -0.3305 -0.3550
 9617TIP3   OH250265   0.917   2.599   2.815  0.2894  0.1640 -0.1460
 9617TIP3    H150266   0.845   2.561   2.764 -0.9715  0.3721  1.4010
 9617TIP3    H250267   0.884   2.602   2.905  1.9878  0.9161  0.4993
 9618TIP3   OH250268   1.347   0.198   2.053  0.5157 -0.4195 -0.1474
 9618TIP3    H150269   1.338   0.287   2.019  2.9075  0.0868  0.3243
 9618TIP3    H250270   1.371   0.146   1.976 -0.4588 -0.5733 -0.3487
 9619TIP3   OH250271   6.634   4.816  12.528  0.1947 -0.2655  0.3122
 9619TIP3    H150272   6.652   4.910  12.525  0.0827 -0.2595 -0.3415
 9619TIP3    H250273   6.606   4.800  12.618 -0.3584  0.4336  0.2762
 9620TIP3   OH250274   3.477   5.885  13.750  0.4419  0.2778  0.4062
 9620TIP3    H150275   3.432   5.951  13.803 -0.7896 -0.4541  0.3021
 9620TIP3    H250276   3.442   5.898  13.662  1.3053  0.4486  0.0797
 9621TIP3   OH250277   0.365   5.080  14.335 -0.2146  0.1816  0.6338
 9621TIP3    H150278   0.448   5.066  14.290 -0.7167  0.9671 -0.5734
 9621TIP3    H250279   0.353   5.000  14.388  0.7455 -0.4333 -0.0461
 9622TIP3   OH250280   3.254   6.029  16.731  0.1822  0.0154  0.3649
 9622TIP3    H150281   3.292   5.943  16.713 -0.7344 -0.4056  0.3859
 9622TIP3    H250282   3.167   6.026  16.690 -1.6847 -0.6903  3.9578
 9623TIP3   OH250283   1.480   0.566  17.157 -0.7534 -0.1660  0.3272
 9623TIP3    H150284   1.484   0.588  17.064  0.1245 -1.9924 -0.1147
 9623TIP3    H250285   1.566   0.527  17.177 -1.0614 -0.1755  1.8013
 9624TIP3   OH250286   4.639   6.119  15.912 -0.1564 -0.1604  0.1906
 9624TIP3    H150287   4.734   6.118  15.901 -0.2079  1.0053 -0.5285
 9624TIP3    H250288   4.610   6.035  15.878  0.6365 -0.6488  0.6959
 9625TIP3   OH250289   3.114   2.042  13.769 -0.2014  0.3745 -0.4123
 9625TIP3    H150290   3.073   2.101  13.833 -1.5829  0.1949 -1.1019
 9625TIP3    H250291   3.059   2.049  13.691 -0.0638 -1.3804 -0.7064
 9626TIP3   OH250292   4.061   5.068   3.706  0.0566 -0.0434  0.0325
 9626TIP3    H150293   4.109   5.135   3.657 -1.6906  1.5852  0.4202
 9626TIP3    H250294   3.984   5.049   3.653 -0.8363  0.2757  1.1720
 9627TIP3   OH250295   1.654   4.730   5.120  0.0686  0.2926 -0.5044
 9627TIP3    H150296   1.588   4.779   5.072  0.3098 -0.7638 -1.9728
 9627TIP3    H250297   1.737   4.752   5.077  0.5122  0.5337  0.4353
 9628TIP3   OH250298   5.046   5.953  11.058  0.3908 -0.8551 -0.2513
 9628TIP3    H150299   4.954   5.946  11.033  0.4690 -0.8062 -0.5576
 9628TIP3    H250300   5.077   5.862  11.063  0.0919 -0.9137  0.7537
 9629TIP3   OH250301   6.288   6.449  16.137 -0.7495 -0.5970 -0.0126
 9629TIP3    H150302   6.326   6.463  16.223  0.3346  0.2647 -0.6118
 9629TIP3    H250303   6.285   6.353  16.127  0.2591 -0.6894  0.4936
 9630TIP3   OH250304   2.681   5.475   0.217  0.0818 -0.2815  0.1523
 9630TIP3    H150305   2.633   5.558   0.214  0.4334 -0.0619  0.5178
 9630TIP3    H250306   2.738   5.482   0.294  0.9774 -0.3891 -0.4822
 9631TIP3   OH250307   4.985   2.687  14.673 -0.0462  0.1497 -0.3578
 9631TIP3    H150308   5.049   2.750  14.639  1.3375 -0.0214  1.7579
 9631TIP3    H250309   4.906   2.739  14.688  0.6796  1.1319  0.1942
 9632TIP3   OH250310   1.475   5.066  15.478  0.5755  0.3838 -0.6157
 9632TIP3    H150311   1.561   5.081  15.439  0.1308 -1.7292 -2.7024
 9632TIP3    H250312   1.413   5.101  15.414 -0.1401 -0.0474 -0.1737
 9633TIP3   OH250313   2.117   0.212  15.113  0.0224  0.4325 -0.3292
 9633TIP3    H150314   2.079   0.299  15.099 -1.2101 -0.4302 -3.1642
 9633TIP3    H250315   2.178   0.201  15.040 -1.2992 -1.7621 -1.2114
 9634TIP3   OH250316   4.611   6.675   6.457  0.2895  0.1424  0.0971
 9634TIP3    H150317   4.644   6.757   6.492 -4.2065  2.1254  0.4278
 9634TIP3    H250318   4.583   6.697   6.368  0.4764 -1.5112 -0.4012
 9635TIP3   OH250319   1.993   5.259   1.956 -0.8546 -0.0175 -0.2732
 9635TIP3    H150320   1.973   5.208   1.878 -0.7214 -0.2106 -0.1822
 9635TIP3    H250321   1.908   5.279   1.994 -0.9906  1.1003 -1.1108
 9636TIP3   OH250322   3.003   5.243  12.025  0.2121 -0.2099  0.0845
 9636TIP3    H150323   3.073   5.243  11.959 -0.0773  0.5178 -0.2277
 9636TIP3    H250324   2.931   5.289  11.983  0.1247  0.5276  1.0108
 9637TIP3   OH250325   5.658   5.105   2.143  0.0575  0.6399 -0.2659
 9637TIP3    H150326   5.703   5.029   2.106  0.7738  0.3093  1.1816
 9637TIP3    H250327   5.568   5.098   2.112 -0.2641 -1.6240  0.9356
 9638TIP3   OH250328   0.180   0.572   3.355 -0.0282  0.1352  0.0383
 9638TIP3    H150329   0.153   0.488   3.317 -4.1617  0.8517  0.8553
 9638TIP3    H250330   0.203   0.551   3.446 -1.3559 -0.1529  0.3335
 9639TIP3   OH250331   2.475   2.941   5.282  0.3087  0.2389  0.4181
 9639TIP3    H150332   2.529   2.862   5.282  2.2698  1.5195  0.5404
 9639TIP3    H250333   2.385   2.908   5.288  0.9368 -2.0367 -1.3321
 9640TIP3   OH250334   4.191   6.307  10.826  0.1724 -0.2081  0.1979
 9640TIP3    H150335   4.108   6.353  10.819  0.2608  0.1122  1.0847
 9640TIP3    H250336   4.191   6.246  10.753 -0.7650 -0.1000  0.0960
 9641TIP3   OH250337   6.169   6.468  13.715  0.2594 -0.3168 -0.3928
 9641TIP3    H150338   6.137   6.390  13.761  1.3141 -2.4086 -2.9477
 9641TIP3    H250339   6.120   6.468  13.632 -0.1120  2.1265 -0.2398
 9642TIP3   OH250340   4.356   1.566  16.746 -0.1870 -0.1689  0.1656
 9642TIP3    H150341   4.402   1.515  16.679 -1.1770 -0.9944  0.1042
 9642TIP3    H250342   4.400   1.544  16.828  0.8282  0.6063 -0.1493
 9643TIP3   OH250343   2.360   0.345   4.356 -0.0672 -0.3675 -0.0667
 9643TIP3    H150344   2.356   0.405   4.430  0.3311 -0.6530  0.1899
 9643TIP3    H250345   2.447   0.358   4.320 -0.2730 -0.2038 -0.5128
 9644TIP3   OH250346   5.856   0.201   2.947  0.3545 -0.5771  0.0340
 9644TIP3    H150347   5.782   0.147   2.975  0.3957 -0.4958  0.3029
 9644TIP3    H250348   5.896   0.152   2.876  1.4717 -1.7873  1.4415
 9645TIP3   OH250349   3.374   5.138   0.785 -0.1106 -0.7357  0.6571
 9645TIP3    H150350   3.369   5.062   0.843  0.2424 -0.8570  0.5285
 9645TIP3    H250351   3.405   5.103   0.702 -0.0461 -0.4664  0.5679
 9646TIP3   OH250352   1.700   5.563  13.978 -0.2767  0.3951 -0.0654
 9646TIP3    H150353   1.703   5.508  14.056  1.6441  2.2661  1.2928
 9646TIP3    H250354   1.698   5.653  14.011 -0.2199  1.2404 -2.1728
 9647TIP3   OH250355   2.305   2.939   1.424 -0.1606  0.2891 -0.5577
 9647TIP3    H150356   2.322   2.846   1.409 -1.8002 -0.1122 -0.0978
 9647TIP3    H250357   2.214   2.942   1.453  0.0925  1.9752  0.1388
 9648TIP3   OH250358   4.113   3.143  14.429 -0.1530 -0.0992  0.9742
 9648TIP3    H150359   4.102   3.066  14.484 -1.3603  1.6744  3.4041
 9648TIP3    H250360   4.126   3.215  14.491  1.2912  1.6426 -1.1939
 9649TIP3   OH250361   1.564   0.753   2.664 -0.3554 -0.7616  0.3016
 9649TIP3    H150362   1.535   0.843   2.648  1.6692  0.4496  2.8671
 9649TIP3    H250363   1.483   0.702   2.664 -1.4581  0.7573 -2.4696
 9650TIP3   OH250364   4.720   0.515   3.600  0.0504  0.6461  0.2319
 9650TIP3    H150365   4.646   0.477   3.646  0.9003  0.8230  1.8223
 9650TIP3    H250366   4.683   0.592   3.555 -0.6598  0.9732  1.3366
 9651TIP3   OH250367   0.263   3.938  15.163 -0.0032 -0.0080 -0.1038
 9651TIP3    H150368   0.261   3.861  15.106  3.1218  0.4862 -1.0397
 9651TIP3    H250369   0.297   3.905  15.247 -0.4726  0.0368  0.1065
 9652TIP3   OH250370   1.816   5.039   1.127  0.0165  0.4768 -0.2492
 9652TIP3    H150371   1.801   5.133   1.118 -2.3708  0.1372 -0.4503
 9652TIP3    H250372   1.796   5.021   1.219 -0.3771  0.0448 -0.4160
 9653TIP3   OH250373   0.716   6.691  13.812  0.2296 -0.2782  1.0341
 9653TIP3    H150374   0.641   6.695  13.752 -0.4359  0.5082  1.8861
 9653TIP3    H250375   0.792   6.692  13.754 -0.3989  0.3265  0.1864
 9654TIP3   OH250376   6.327   4.516   3.961  0.1697 -0.1353 -0.0546
 9654TIP3    H150377   6.407   4.515   3.908  0.8856 -0.7408  0.9924
 9654TIP3    H250378   6.336   4.593   4.017 -0.6859  0.6268 -0.9332
 9655TIP3   OH250379   0.331   5.392   0.904 -0.4363 -0.0647  0.2523
 9655TIP3    H150380   0.245   5.403   0.945 -0.6332  0.7178 -0.3568
 9655TIP3    H250381   0.358   5.480   0.879  1.6509  0.0696  2.5707
 9656TIP3   OH250382   0.131   3.771   2.482 -0.4471  0.8641 -0.1800
 9656TIP3    H150383   0.086   3.853   2.463  0.1306  0.7917 -2.0376
 9656TIP3    H250384   0.066   3.703   2.465 -0.3432  0.8585 -0.5580
 9657TIP3   OH250385   5.299   4.621   1.825  0.3384  0.0037  0.0171
 9657TIP3    H150386   5.227   4.614   1.888  0.6414 -0.8107  0.2877
 9657TIP3    H250387   5.356   4.688   1.861  0.6928 -0.7077  0.8166
 9658TIP3   OH250388   6.598   6.693   1.908  0.5998  0.6631 -0.3967
 9658TIP3    H150389   6.518   6.689   1.961  0.5296 -1.0327 -0.5935
 9658TIP3    H250390   6.663   6.646   1.960  0.8148 -0.0935 -1.3365
 9659TIP3   OH250391   6.342   6.038  13.956  0.0557 -0.0063  0.1999
 9659TIP3    H150392   6.421   5.998  13.922  0.5965 -0.1873  1.5857
 9659TIP3    H250393   6.364   6.131  13.967  0.0208 -0.0215  0.4127
 9660TIP3   OH250394   4.654   2.437  16.955 -0.3398  0.3775  0.4357
 9660TIP3    H150395   4.693   2.386  16.884  1.2527 -0.0082  1.5296
 9660TIP3    H250396   4.717   2.508  16.971 -0.5830  0.3491  1.5790
 9661TIP3   OH250397   2.040   2.282   0.638  0.0668 -0.3454 -0.0861
 9661TIP3    H150398   1.985   2.325   0.573  0.3636 -0.0869 -0.1741
 9661TIP3    H250399   2.128   2.285   0.600  0.6611  1.7728  1.2401
 9662TIP3   OH250400   3.630   1.104   5.078 -0.0034 -0.6988 -0.3196
 9662TIP3    H150401   3.654   1.062   4.995  0.4678  0.6979 -0.9249
 9662TIP3    H250402   3.709   1.100   5.131  0.1481 -0.2579 -0.5131
 9663TIP3   OH250403   3.823   1.157  11.665  0.0868  0.2273 -0.0007
 9663TIP3    H150404   3.800   1.069  11.696 -0.8914  1.0554  1.7997
 9663TIP3    H250405   3.739   1.198  11.646  0.5543  0.6814 -1.1992
 9664TIP3   OH250406   0.719   1.034  10.719 -0.1076  0.4371 -0.2974
 9664TIP3    H150407   0.774   0.963  10.753 -0.0091  0.3288 -0.6682
 9664TIP3    H250408   0.709   1.012  10.626 -1.7877 -0.2017  0.0060
 9665TIP3   OH250409   5.002   1.467   2.377 -0.0650 -0.0923 -0.4853
 9665TIP3    H150410   4.998   1.409   2.302 -0.3434  0.4066 -0.8552
 9665TIP3    H250411   5.022   1.553   2.341 -0.0075  0.1171  0.0269
 9666TIP3   OH250412   5.539   5.857   1.370 -0.2824 -0.0350  0.2378
 9666TIP3    H150413   5.623   5.901   1.358 -1.9921  2.9312 -3.1000
 9666TIP3    H250414   5.499   5.903   1.444 -0.7909  2.1754 -1.2807
 9667TIP3   OH250415   0.614   0.189   0.526  0.3738 -0.1233  0.0241
 9667TIP3    H150416   0.688   0.214   0.583 -0.0739  2.1763 -0.2819
 9667TIP3    H250417   0.638   0.224   0.440 -0.5020 -0.4873 -0.3735
 9668TIP3   OH250418   6.243   1.172   3.937 -0.0485 -0.2010  0.2353
 9668TIP3    H150419   6.239   1.076   3.934  2.0975 -0.3209 -0.7707
 9668TIP3    H250420   6.300   1.192   4.011 -1.3507  0.3750  1.1140
 9669TIP3   OH250421   1.648   0.328   0.785 -0.3499  0.2401  0.2613
 9669TIP3    H150422   1.741   0.349   0.778 -0.2458  0.0095  0.9298
 9669TIP3    H250423   1.628   0.285   0.701  0.6135 -1.4597  0.8432
 9670TIP3   OH250424   2.583   3.119   1.043 -0.4711  0.8113 -0.6054
 9670TIP3    H150425   2.505   3.076   1.079  0.1644  1.4368  1.6478
 9670TIP3    H250426   2.655   3.058   1.061 -0.0314  1.4455 -0.2075
 9671TIP3   OH250427   3.150   6.026  17.012  0.5047  0.7382  0.3420
 9671TIP3    H150428   3.225   5.983  16.971  1.0841  0.2656  1.8513
 9671TIP3    H250429   3.081   6.023  16.945  1.2037 -0.6110 -0.3530
 9672TIP3   OH250430   6.744   3.162  10.970  0.5954  0.3523 -0.3277
 9672TIP3    H150431   6.751   3.235  10.909  1.9591  1.9680  1.6349
 9672TIP3    H250432   6.815   3.103  10.945  0.2082  0.2327 -1.1984
 9673TIP3   OH250433   3.375   5.848   1.357 -0.2672  0.4872 -0.0704
 9673TIP3    H150434   3.366   5.753   1.351  2.3011  0.0235  1.7660
 9673TIP3    H250435   3.399   5.865   1.448 -1.3970  3.0110 -0.1603
 9674TIP3   OH250436   3.105   6.564  13.872 -0.6550  0.1133  0.3344
 9674TIP3    H150437   3.190   6.532  13.840 -0.7326  2.1368 -2.2126
 9674TIP3    H250438   3.127   6.641  13.925 -0.8477  0.2863  0.1644
 9675TIP3   OH250439   1.023   1.828   3.381  0.4052 -0.7724 -0.2153
 9675TIP3    H150440   1.100   1.848   3.328 -0.8456  1.4749 -1.2901
 9675TIP3    H250441   0.959   1.795   3.318 -0.5618  0.4229  0.1168
 9676TIP3   OH250442   4.410   3.487  15.788  0.0362  0.1038  0.8732
 9676TIP3    H150443   4.459   3.569  15.789  0.2199  0.1322 -1.8347
 9676TIP3    H250444   4.381   3.474  15.878  1.5484  2.1844  1.7200
 9677TIP3   OH250445   1.655   4.164  14.167  0.1846  0.8706 -0.3827
 9677TIP3    H150446   1.656   4.197  14.257 -0.4160 -0.3033  0.0769
 9677TIP3    H250447   1.742   4.184  14.133  1.3656 -0.9236  1.3335
 9678TIP3   OH250448   0.559   3.189   5.844  0.9955 -0.2093  0.2383
 9678TIP3    H150449   0.489   3.215   5.903 -0.0920 -2.1043 -0.1273
 9678TIP3    H250450   0.611   3.126   5.894  1.9422  0.5258  0.2099
 9679TIP3   OH250451   0.739   1.017  12.818  0.4962 -0.7687  0.8233
 9679TIP3    H150452   0.691   1.045  12.740 -0.0857  0.5403  1.6167
 9679TIP3    H250453   0.831   1.016  12.791  0.3708  0.3407  0.2818
 9680TIP3   OH250454   0.879   6.281   6.501  0.1950 -0.1272 -0.0257
 9680TIP3    H150455   0.916   6.361   6.538 -0.5500 -0.3727  1.3443
 9680TIP3    H250456   0.826   6.244   6.572  2.1807 -2.9871  0.1599
 9681TIP3   OH250457   1.877   6.713  16.518  0.2514  0.1626 -0.2312
 9681TIP3    H150458   1.901   6.694  16.427 -1.1751  0.7249 -0.7360
 9681TIP3    H250459   1.825   6.638  16.545 -0.1270  0.4401 -0.1879
 9682TIP3   OH250460   0.181   2.495   0.955 -0.7354 -0.4237 -0.5458
 9682TIP3    H150461   0.123   2.470   1.026 -0.3334  1.9364  0.7030
 9682TIP3    H250462   0.263   2.521   0.998 -0.9178  2.3483 -1.6638
 9683TIP3   OH250463   0.646   3.938   1.577  0.3867 -0.0162  0.4365
 9683TIP3    H150464   0.590   3.907   1.506 -0.7611  0.0202  1.3091
 9683TIP3    H250465   0.624   3.882   1.651  0.9217  0.5408  1.0268
 9684TIP3   OH250466   6.052   5.706   0.668 -0.0069 -0.0304  0.1390
 9684TIP3    H150467   6.025   5.772   0.604 -0.1867 -0.3132 -0.0816
 9684TIP3    H250468   5.998   5.724   0.745  1.3958  1.3724  0.8357
 9685TIP3   OH250469   5.592   1.602   5.107  0.2657  1.1439 -0.7239
 9685TIP3    H150470   5.612   1.513   5.134  2.4301  1.4441 -1.1550
 9685TIP3    H250471   5.499   1.614   5.128 -0.1390 -1.2712 -0.8997
 9686TIP3   OH250472   3.048   6.367  11.605 -0.1722 -0.0338 -0.1348
 9686TIP3    H150473   3.142   6.364  11.587 -0.1384  0.0307  0.0380
 9686TIP3    H250474   3.014   6.286  11.565 -0.2811  0.7036 -1.5842
 9687TIP3   OH250475   1.284   5.754  14.673 -0.8608 -0.6471 -0.3084
 9687TIP3    H150476   1.243   5.715  14.750 -0.7873 -0.1009  0.0081
 9687TIP3    H250477   1.352   5.811  14.708 -1.5213  0.4249 -0.7320
 9688TIP3   OH250478   3.370   5.444  17.123 -0.3210  0.4526 -0.0079
 9688TIP3    H150479   3.381   5.468  17.031 -0.8558  1.2010  0.1138
 9688TIP3    H250480   3.445   5.486  17.167 -0.0786  0.1148 -0.0958
 9689TIP3   OH250481   0.522   1.894   2.426 -0.3416  0.4256 -0.8137
 9689TIP3    H150482   0.544   1.968   2.370  0.1386 -0.4358 -1.7856
 9689TIP3    H250483   0.466   1.932   2.494  2.6452  2.3835  0.7897
 9690TIP3   OH250484   2.156   0.239  13.753 -0.4387  0.0213 -0.5123
 9690TIP3    H150485   2.071   0.201  13.733 -0.4042 -0.1080 -0.4110
 9690TIP3    H250486   2.217   0.165  13.749 -0.5502 -0.1744  0.9093
 9691TIP3   OH250487   1.201   4.228  15.783 -0.2845 -0.6028  0.7369
 9691TIP3    H150488   1.260   4.161  15.817  1.1104  0.4251  0.4442
 9691TIP3    H250489   1.154   4.261  15.860 -0.2263 -1.1927  1.0298
 9692TIP3   OH250490   4.454   1.807   3.523 -0.4181 -0.0946 -0.3697
 9692TIP3    H150491   4.390   1.821   3.592 -0.5245 -0.0650 -0.4741
 9692TIP3    H250492   4.426   1.865   3.452 -0.2314 -0.0221 -0.3857
 9693TIP3   OH250493   2.675   0.193  13.822  0.1970  0.0064 -1.0127
 9693TIP3    H150494   2.680   0.257  13.751 -0.6684 -1.7669 -2.7448
 9693TIP3    H250495   2.585   0.161  13.820  0.2381 -0.3227  0.7022
 9694TIP3   OH250496   0.964   2.660  11.831  0.0264  0.8679 -0.4479
 9694TIP3    H150497   1.000   2.736  11.877  0.8220  0.2332  0.0215
 9694TIP3    H250498   0.957   2.593  11.899 -0.3949  0.4378 -0.9128
 9695TIP3   OH250499   3.893   1.493  16.121 -0.5344  0.0069  0.1221
 9695TIP3    H150500   3.839   1.566  16.090 -1.6660 -1.4614 -1.4670
 9695TIP3    H250501   3.982   1.517  16.096 -0.9508  0.6456 -0.8077
 9696TIP3   OH250502   5.652   4.486   5.168  0.0115 -0.1805 -0.6750
 9696TIP3    H150503   5.685   4.554   5.110 -1.3465 -0.4594 -1.8211
 9696TIP3    H250504   5.682   4.404   5.128 -0.7077 -0.3597 -0.8655
 9697TIP3   OH250505   5.579   4.868   6.535 -0.1621  0.0531  0.4290
 9697TIP3    H150506   5.558   4.788   6.584 -0.9896 -0.6887 -1.0305
 9697TIP3    H250507   5.673   4.879   6.545  0.1555 -1.7266 -0.1663
 9698TIP3   OH250508   4.175   5.465   0.348 -0.1637  0.2509 -0.1530
 9698TIP3    H150509   4.235   5.396   0.377  0.1652  0.9890  1.0189
 9698TIP3    H250510   4.219   5.506   0.273 -0.0967 -0.4318 -0.4921
 9699TIP3   OH250511   6.495   6.102  11.693  0.0758  0.4761 -0.3225
 9699TIP3    H150512   6.408   6.063  11.689  0.0590  0.3245  1.0154
 9699TIP3    H250513   6.511   6.115  11.786  1.8848 -0.4069 -0.4644
 9700TIP3   OH250514   3.472   3.405   3.359 -0.6031  0.3364  0.1225
 9700TIP3    H150515   3.497   3.346   3.430  0.4331  0.3312 -0.2195
 9700TIP3    H250516   3.424   3.350   3.297  0.9059 -0.3351 -0.5047
 9701TIP3   OH250517   4.692   6.507  10.824 -0.3046 -0.5253 -0.0443
 9701TIP3    H150518   4.609   6.526  10.780  0.0415  0.1834 -0.4193
 9701TIP3    H250519   4.755   6.567  10.783  0.0874 -0.0223  1.2372
 9702TIP3   OH250520   6.391   0.391   3.872 -0.3661 -0.2648 -0.0052
 9702TIP3    H150521   6.399   0.341   3.953 -0.5070 -0.4027 -0.0763
 9702TIP3    H250522   6.477   0.382   3.830  0.1024  0.7670  0.6744
 9703TIP3   OH250523   0.521   0.144   1.674 -0.2775 -0.3708  0.4369
 9703TIP3    H150524   0.563   0.231   1.674  0.9712 -0.9400 -0.6881
 9703TIP3    H250525   0.587   0.086   1.712 -0.1367 -1.2271 -1.0508
 9704TIP3   OH250526   5.543   0.957  15.079  0.3085  0.2395  0.0041
 9704TIP3    H150527   5.634   0.930  15.068 -0.5025 -2.2319 -1.6159
 9704TIP3    H250528   5.528   1.021  15.010  0.7877  0.6177  0.2463
 9705TIP3   OH250529   3.261   6.364  14.050 -0.2209 -0.7511 -0.2640
 9705TIP3    H150530   3.178   6.341  14.008 -1.4198  0.2806  1.4143
 9705TIP3    H250531   3.260   6.459  14.055  0.2351 -0.7945  1.2951
 9706TIP3   OH250532   3.332   3.709   4.198  0.0221  0.1057  0.2292
 9706TIP3    H150533   3.368   3.665   4.122 -0.0342  0.5307 -0.0439
 9706TIP3    H250534   3.327   3.801   4.173  1.7320  0.5596  1.3860
 9707TIP3   OH250535   4.874   1.043   0.824  0.1073  0.0049 -0.6106
 9707TIP3    H150536   4.910   1.000   0.902 -0.2692  0.4859 -0.1580
 9707TIP3    H250537   4.780   1.047   0.841  0.2506  2.3648  0.1002
 9708TIP3   OH250538   6.222   2.821   5.594 -0.7624 -0.0024  0.5155
 9708TIP3    H150539   6.192   2.853   5.679 -0.5968  0.1345  0.5209
 9708TIP3    H250540   6.315   2.804   5.606 -0.2908  1.9110 -0.1996
 9709TIP3   OH250541   6.265   4.459   2.969 -0.0026  0.3920 -0.2121
 9709TIP3    H150542   6.182   4.506   2.969  0.1594  0.6788 -0.4155
 9709TIP3    H250543   6.324   4.514   3.020 -0.4776 -0.7936  1.7113
 9710TIP3   OH250544   0.068   5.330   2.607  0.4098  0.9296  0.3957
 9710TIP3    H150545   0.082   5.422   2.583 -0.0584  0.8402 -0.2397
 9710TIP3    H250546   0.156   5.297   2.629  0.5610  1.5615  0.7660
 9711TIP3   OH250547   0.605   6.151   4.322 -0.0837  0.0267  0.0358
 9711TIP3    H150548   0.568   6.087   4.383  0.7436  0.1991  0.7459
 9711TIP3    H250549   0.576   6.236   4.356  0.6335  0.1403  0.3760
 9712TIP3   OH250550   2.387   1.144  14.196 -0.9341  0.0368  0.1074
 9712TIP3    H150551   2.456   1.115  14.256 -0.9713  2.4853  1.4200
 9712TIP3    H250552   2.423   1.123  14.109  0.4002 -0.9063  0.8339
 9713TIP3   OH250553   4.449   2.441  14.557  0.3158  0.0932 -0.0859
 9713TIP3    H150554   4.526   2.428  14.611 -0.5928  0.2251  1.2857
 9713TIP3    H250555   4.375   2.434  14.617 -0.7939 -0.6014 -1.4449
 9714TIP3   OH250556   0.924   4.753   4.177  0.1622 -0.0165 -0.3839
 9714TIP3    H150557   0.934   4.661   4.199 -1.0663 -0.6379 -2.2099
 9714TIP3    H250558   0.836   4.760   4.140  0.3608  1.8119 -0.6245
 9715TIP3   OH250559   2.287   6.633  16.375 -0.2531 -0.3827 -0.3819
 9715TIP3    H150560   2.207   6.684  16.389 -0.1426  0.1062 -1.4634
 9715TIP3    H250561   2.358   6.696  16.387 -0.1365 -0.0107 -2.5843
 9716TIP3   OH250562   0.309   1.935  15.898  0.4389  0.0626 -0.0326
 9716TIP3    H150563   0.342   1.965  15.983  1.9562 -0.7834 -0.2881
 9716TIP3    H250564   0.312   2.013  15.843 -2.1231  1.0513  1.0455
 9717TIP3   OH250565   3.862   5.975   5.417 -0.1122  0.4443  0.2043
 9717TIP3    H150566   3.930   6.028   5.376  1.0218 -0.6967  0.5390
 9717TIP3    H250567   3.902   5.944   5.498 -1.1004 -0.1250  0.4883
 9718TIP3   OH250568   4.379   1.894  16.987 -0.3500  0.0776 -0.2445
 9718TIP3    H150569   4.436   1.892  17.064 -2.7058 -1.4517  1.5994
 9718TIP3    H250570   4.419   1.832  16.926  0.0097 -0.9253  0.9780
 9719TIP3   OH250571   1.637   5.391   6.411  0.3816 -0.3849 -0.1900
 9719TIP3    H150572   1.727   5.413   6.436  0.2123  1.4618 -1.0507
 9719TIP3    H250573   1.583   5.437   6.475  0.0172 -1.5545  0.3715
 9720TIP3   OH250574   0.618   2.966  13.694 -0.1716 -0.1221  0.8902
 9720TIP3    H150575   0.638   2.879  13.659 -0.2411 -0.0600  0.6936
 9720TIP3    H250576   0.651   3.027  13.627 -1.5569 -0.0270  0.2687
 9721TIP3   OH250577   3.867   3.339   5.782 -0.6689 -0.6219  0.0065
 9721TIP3    H150578   3.840   3.248   5.797 -0.7928 -0.6095 -0.1327
 9721TIP3    H250579   3.800   3.375   5.725  0.1321 -0.8771 -1.1409
 9722TIP3   OH250580   0.543   3.914  11.785  0.0459  0.2623 -0.0384
 9722TIP3    H150581   0.514   3.868  11.706 -0.1168 -0.0286  0.1877
 9722TIP3    H250582   0.576   3.845  11.842 -1.5291  0.2295  0.8866
 9723TIP3   OH250583   6.653   4.964   3.342  0.3923  0.4740  0.1276
 9723TIP3    H150584   6.598   4.930   3.271 -0.3273  1.4803  0.1724
 9723TIP3    H250585   6.686   4.887   3.387  1.1687 -0.2060 -1.5305
 9724TIP3   OH250586   3.304   5.084  15.624  0.1948  0.3001  0.3704
 9724TIP3    H150587   3.385   5.128  15.597 -0.3591  0.9312 -0.2815
 9724TIP3    H250588   3.291   5.112  15.715  1.1044 -0.4113  0.7381
 9725TIP3   OH250589   4.215   2.124   4.225  0.1203 -0.0567 -0.3688
 9725TIP3    H150590   4.172   2.143   4.309  2.3198  0.5065  0.7141
 9725TIP3    H250591   4.166   2.174   4.161  0.2426  2.0419  1.0759
 9726TIP3   OH250592   6.605   5.627  17.046  0.0111 -0.5106  0.0092
 9726TIP3    H150593   6.525   5.663  17.009  0.3735 -0.5275 -0.8139
 9726TIP3    H250594   6.591   5.628  17.141 -0.3072  1.0301 -0.0362
 9727TIP3   OH250595   1.620   2.157  15.385 -0.0531 -0.3576 -0.9261
 9727TIP3    H150596   1.689   2.091  15.380  0.2335 -0.1197 -0.1687
 9727TIP3    H250597   1.573   2.148  15.302  0.7033 -0.7169 -1.3309
 9728TIP3   OH250598   1.351   1.819  12.206  0.2273 -1.1891  0.2688
 9728TIP3    H150599   1.428   1.872  12.187 -0.1467 -0.7175  0.0553
 9728TIP3    H250600   1.362   1.793  12.297  1.0815 -1.8747 -0.0243
 9729TIP3   OH250601   6.526   1.464  16.469  0.1486 -0.1802  0.1062
 9729TIP3    H150602   6.617   1.488  16.456  0.2208  0.4112  1.4953
 9729TIP3    H250603   6.480   1.547  16.479 -0.5079 -0.4790 -0.3378
 9730TIP3   OH250604   6.720   4.626   2.161 -0.4688 -0.6995 -0.2193
 9730TIP3    H150605   6.666   4.559   2.120 -0.4058 -1.0490  0.2590
 9730TIP3    H250606   6.727   4.695   2.096 -0.7498 -1.0467 -0.6186
 9731TIP3   OH250607   0.302   2.396   5.133 -0.6616  0.1703 -0.1797
 9731TIP3    H150608   0.262   2.364   5.052 -0.4020 -0.7353  0.0340
 9731TIP3    H250609   0.240   2.460   5.167 -0.4173  1.1449 -1.4877
 9732TIP3   OH250610   6.275   4.341   2.692 -0.0611 -0.1546  0.4288
 9732TIP3    H150611   6.244   4.340   2.783  3.0357 -1.9423  1.6481
 9732TIP3    H250612   6.296   4.249   2.673  0.2454  0.3168 -1.7655
 9733TIP3   OH250613   4.475   6.277   4.435  0.1650  0.1153 -0.5661
 9733TIP3    H150614   4.546   6.316   4.384  0.6379 -1.0835 -0.8463
 9733TIP3    H250615   4.412   6.348   4.446  2.0132  1.6461  0.9120
 9734TIP3   OH250616   0.221   0.991  12.258  0.6167  0.1997  0.2582
 9734TIP3    H150617   0.317   0.983  12.258  0.8295  2.1232 -0.9245
 9734TIP3    H250618   0.199   1.001  12.165 -0.5213  1.7006  0.6592
 9735TIP3   OH250619   6.156   5.363  12.952 -0.0816  0.4361 -0.4295
 9735TIP3    H150620   6.152   5.344  12.859  1.2757  1.0956 -0.6464
 9735TIP3    H250621   6.068   5.392  12.975 -0.0028  1.9607 -1.8939
 9736TIP3   OH250622   1.044   1.073   0.448  0.0763 -0.0303 -0.5952
 9736TIP3    H150623   0.983   1.147   0.456  0.9570  0.7896 -1.1882
 9736TIP3    H250624   1.116   1.107   0.395  1.0084 -0.9986 -0.0011
 9737TIP3   OH250625   2.204   3.859   0.713 -0.3152  0.3787  0.2188
 9737TIP3    H150626   2.253   3.783   0.684  0.1785  0.1723  1.4968
 9737TIP3    H250627   2.214   3.859   0.809 -0.5085  1.8942  0.2716
 9738TIP3   OH250628   2.095   0.184   2.034 -0.0747 -0.2928  0.2476
 9738TIP3    H150629   2.142   0.197   2.117  2.7407 -3.5231 -0.6080
 9738TIP3    H250630   2.042   0.106   2.049 -0.0439 -0.5148 -0.7549
 9739TIP3   OH250631   5.738   5.952  16.776  0.1794  0.2694  0.3789
 9739TIP3    H150632   5.774   6.023  16.830  3.2656 -1.5455  0.9337
 9739TIP3    H250633   5.704   5.888  16.839 -0.0523 -0.0063 -0.0196
 9740TIP3   OH250634   3.578   6.115   4.698 -0.1829 -0.3290 -0.1126
 9740TIP3    H150635   3.574   6.082   4.788  1.1364  1.1837  0.5443
 9740TIP3    H250636   3.671   6.129   4.681 -0.3409 -1.2427 -1.9984
 9741TIP3   OH250637   0.922   1.180  17.101 -0.1235  0.5196 -0.3012
 9741TIP3    H150638   0.961   1.231  17.030 -0.2730  1.1073  0.0401
 9741TIP3    H250639   0.931   1.235  17.178  1.5215 -0.7756  0.5016
 9742TIP3   OH250640   4.411   2.701  12.276  0.1000  0.7616 -0.7556
 9742TIP3    H150641   4.500   2.679  12.251 -0.0301  0.3917 -0.8982
 9742TIP3    H250642   4.385   2.633  12.338  1.3569  3.0816  2.5839
 9743TIP3   OH250643   2.563   6.368   0.547 -0.4811  0.4674 -0.2862
 9743TIP3    H150644   2.576   6.287   0.596  2.9456  1.4995  0.7757
 9743TIP3    H250645   2.575   6.343   0.455  1.7083 -0.1348  0.1030
 9744TIP3   OH250646   6.029   1.522   4.858  0.1509  0.4330  0.8144
 9744TIP3    H150647   5.954   1.468   4.885 -0.0167  0.3971  0.2827
 9744TIP3    H250648   6.101   1.460   4.849 -0.2461  0.1556 -0.6219
 9745TIP3   OH250649   3.502   5.886  12.632 -0.2313  0.2113  0.0062
 9745TIP3    H150650   3.590   5.887  12.668  0.4678 -0.2151 -1.6081
 9745TIP3    H250651   3.446   5.867  12.707  1.2494 -1.7235  0.6998
 9746TIP3   OH250652   2.915   1.572   3.713 -0.0731 -0.1788  0.1358
 9746TIP3    H150653   2.835   1.546   3.758 -0.4010 -1.9206 -1.3379
 9746TIP3    H250654   2.942   1.493   3.665  2.0459  0.6317 -0.0838
 9747TIP3   OH250655   4.672   5.017   0.804 -0.1339  0.1334 -0.2611
 9747TIP3    H150656   4.697   4.971   0.884  2.6533 -0.3317 -1.2675
 9747TIP3    H250657   4.655   5.107   0.833  2.9873  0.5392  0.6975
 9748TIP3   OH250658   1.773   6.480   0.073 -0.2659 -0.4280 -0.0751
 9748TIP3    H150659   1.762   6.575   0.077 -1.5256 -0.5897  0.6818
 9748TIP3    H250660   1.866   6.466   0.091  0.0272  0.6813 -0.6408
 9749TIP3   OH250661   1.157   0.408  11.729  0.2032  0.6053 -0.6850
 9749TIP3    H150662   1.209   0.414  11.809  0.4970  0.8645 -0.8930
 9749TIP3    H250663   1.174   0.490  11.683 -0.0437  0.5016 -0.9640
 9750TIP3   OH250664   1.757   6.261   5.163  0.2166  0.0644  0.4502
 9750TIP3    H150665   1.807   6.222   5.091 -0.3116  0.5491 -0.1919
 9750TIP3    H250666   1.812   6.332   5.196  0.4870 -0.2002  0.5696
 9751TIP3   OH250667   4.139   1.675  17.015 -0.0748 -0.1456  0.6394
 9751TIP3    H150668   4.204   1.727  17.062 -0.5266  1.7668 -0.7325
 9751TIP3    H250669   4.059   1.685  17.067  0.4317 -1.6063  1.7417
 9752TIP3   OH250670   3.392   3.139  17.175  0.0821 -0.7197 -0.1634
 9752TIP3    H150671   3.352   3.132  17.088 -0.1441 -2.2328  0.0368
 9752TIP3    H250672   3.422   3.051  17.194  0.2771 -0.3668  1.2354
 9753TIP3   OH250673   0.376   5.677   2.559  0.0391 -0.1558 -0.0071
 9753TIP3    H150674   0.452   5.734   2.572  1.2720 -1.8427  0.5824
 9753TIP3    H250675   0.412   5.599   2.517 -1.4722 -0.8083 -0.1408
 9754TIP3   OH250676   5.895   2.432  15.446  0.1061  0.1177  0.3166
 9754TIP3    H150677   5.892   2.443  15.351 -0.7453  1.3386  0.4630
 9754TIP3    H250678   5.956   2.359  15.460  0.8594  0.4398 -1.1201
 9755TIP3   OH250679   5.831   1.822  12.764 -0.0694 -0.0572  0.2529
 9755TIP3    H150680   5.759   1.868  12.806  0.5255  0.4465  0.7386
 9755TIP3    H250681   5.910   1.858  12.805  0.4143 -1.5541  0.7288
 9756TIP3   OH250682   2.227   5.881  15.174 -0.2262 -0.3092  0.3269
 9756TIP3    H150683   2.296   5.887  15.108  0.4943  0.0678  1.0829
 9756TIP3    H250684   2.274   5.892  15.257 -1.1068 -0.7823  0.8951
 9757TIP3   OH250685   2.065   1.285  12.850 -0.3637  0.0038  0.0705
 9757TIP3    H150686   2.043   1.343  12.777  0.7032  1.1557  0.6259
 9757TIP3    H250687   1.981   1.249  12.879 -0.9463  0.6106 -0.8393
 9758TIP3   OH250688   3.877   3.529  14.399  0.1002  0.2429 -0.2219
 9758TIP3    H150689   3.876   3.622  14.423  1.3462 -0.1484  1.4938
 9758TIP3    H250690   3.966   3.514  14.367 -0.1019 -0.3741 -0.4975
 9759TIP3   OH250691   0.392   6.568   0.867 -0.1031  0.8721 -0.4630
 9759TIP3    H150692   0.456   6.516   0.819 -0.2394 -3.0321  3.0163
 9759TIP3    H250693   0.443   6.612   0.935 -0.5036  2.3161 -1.0573
 9760TIP3   OH250694   5.405   5.538   4.955  0.1060  0.2327  0.0967
 9760TIP3    H150695   5.346   5.505   5.023 -1.2618 -0.3457 -1.3016
 9760TIP3    H250696   5.399   5.633   4.962 -0.9282  0.1808  0.0427
 9761TIP3   OH250697   4.497   5.588   5.490  0.9982 -0.2217  0.3552
 9761TIP3    H150698   4.425   5.529   5.509 -0.3602  1.5069  0.8184
 9761TIP3    H250699   4.464   5.645   5.421  2.0485  0.3747  0.3230
 9762TIP3   OH250700   5.667   6.014  13.148  0.2146 -0.1003  0.3020
 9762TIP3    H150701   5.672   6.110  13.153  0.7930 -0.0992 -0.2114
 9762TIP3    H250702   5.591   5.997  13.092 -1.5252 -0.0015  2.4952
 9763TIP3   OH250703   4.408   4.827   3.037  0.0846  0.4284  0.2770
 9763TIP3    H150704   4.365   4.904   3.074  1.2175  0.5544  1.3750
 9763TIP3    H250705   4.361   4.753   3.076 -0.3252  0.5527  0.0310
 9764TIP3   OH250706   2.124   6.682   5.435 -0.1361  0.0023 -0.5122
 9764TIP3    H150707   2.149   6.767   5.472 -2.1114  0.7253 -0.6867
 9764TIP3    H250708   2.195   6.623   5.461  0.9760  1.5490  0.1777
 9765TIP3   OH250709   4.294   2.909  11.202  0.2721 -0.0719  0.1502
 9765TIP3    H150710   4.305   2.814  11.196 -0.0365 -0.0236 -1.7809
 9765TIP3    H250711   4.364   2.945  11.149 -0.5003  0.7284 -0.3381
 9766TIP3   OH250712   2.654   3.958   0.241  0.1821 -0.3191 -0.1081
 9766TIP3    H150713   2.649   4.053   0.257  1.1204  0.1353 -2.0953
 9766TIP3    H250714   2.605   3.946   0.159 -0.2840 -1.6480  0.3473
 9767TIP3   OH250715   4.370   6.605   5.946 -0.3486 -0.4906  0.1397
 9767TIP3    H150716   4.374   6.523   5.994 -2.0220 -1.7020 -1.5947
 9767TIP3    H250717   4.283   6.641   5.968 -0.6127 -0.4315 -0.9468
 9768TIP3   OH250718   5.672   1.642  15.301  0.2408 -0.0255 -0.1510
 9768TIP3    H150719   5.766   1.626  15.298  0.1603 -0.9114  1.3595
 9768TIP3    H250720   5.656   1.705  15.230  2.3444  2.1475  1.1558
 9769TIP3   OH250721   0.670   4.777  10.511 -0.2471  0.7245 -0.0397
 9769TIP3    H150722   0.595   4.731  10.548 -0.5137  0.8383 -0.4307
 9769TIP3    H250723   0.746   4.736  10.552 -0.5379  2.9689  3.2364
 9770TIP3   OH250724   5.680   5.581   5.899 -0.0755  0.4664 -0.0617
 9770TIP3    H150725   5.633   5.588   5.816 -0.9137 -1.4273  0.1936
 9770TIP3    H250726   5.711   5.490   5.901 -0.3502  0.3866  1.8291
 9771TIP3   OH250727   5.264   5.856   4.474  0.4205  0.5200  0.7401
 9771TIP3    H150728   5.339   5.831   4.527  0.1406 -2.2798 -0.0646
 9771TIP3    H250729   5.190   5.810   4.513  0.0467 -0.8770 -1.4589
 9772TIP3   OH250730   1.184   6.440   0.848 -0.0794 -0.8292 -0.4968
 9772TIP3    H150731   1.140   6.509   0.897  0.0372 -0.6354 -0.6674
 9772TIP3    H250732   1.205   6.479   0.763  1.5496 -0.5171  0.0128
 9773TIP3   OH250733   1.544   2.939  16.438 -0.5511  0.3142  0.7214
 9773TIP3    H150734   1.512   2.857  16.401  1.9498 -1.0141  1.2918
 9773TIP3    H250735   1.536   2.928  16.532  0.2667  0.5281  0.8186
 9774TIP3   OH250736   0.499   4.200   3.253 -0.0367  0.0195  0.6392
 9774TIP3    H150737   0.588   4.213   3.287 -0.0413 -0.8780  1.0135
 9774TIP3    H250738   0.512   4.185   3.159  0.4521 -2.3323  1.0221
 9775TIP3   OH250739   1.918   4.913  14.897  0.2204  0.2398  0.1605
 9775TIP3    H150740   1.827   4.891  14.878  0.6000 -1.0694 -0.2476
 9775TIP3    H250741   1.922   4.916  14.992  0.3814 -2.8075  0.3351
 9776TIP3   OH250742   1.818   0.018   0.766 -0.4262  0.4092  0.0003
 9776TIP3    H150743   1.828   0.087   0.700  0.6174 -1.2053 -1.6107
 9776TIP3    H250744   1.889   0.034   0.828 -1.0787  1.6110  0.4854
 9777TIP3   OH250745   1.325   3.997  12.295  0.4012  0.2025  0.3804
 9777TIP3    H150746   1.373   4.010  12.377  1.3871 -0.3205 -0.0939
 9777TIP3    H250747   1.321   3.902  12.285 -0.0945  0.2551  0.0300
 9778TIP3   OH250748   2.132   2.531  11.603  0.3708  0.4524 -0.1830
 9778TIP3    H150749   2.046   2.543  11.561  0.6846 -0.8145 -1.2449
 9778TIP3    H250750   2.123   2.449  11.651  1.0326  0.2428 -0.4174
 9779TIP3   OH250751   0.235   0.817  16.344 -0.1380 -0.1324  0.4237
 9779TIP3    H150752   0.179   0.889  16.314 -0.8046 -1.2550 -1.1412
 9779TIP3    H250753   0.180   0.767  16.405 -0.8862 -1.2259 -1.1001
 9780TIP3   OH250754   1.819   3.624   6.253 -0.1128  0.4160  0.2144
 9780TIP3    H150755   1.855   3.694   6.308  1.1553  0.5391 -0.7114
 9780TIP3    H250756   1.730   3.612   6.285  0.4684  0.6903  2.0733
 9781TIP3   OH250757   3.415   3.182   4.689 -0.4922  0.2254 -0.4417
 9781TIP3    H150758   3.363   3.261   4.675 -1.3991 -0.3666 -0.4891
 9781TIP3    H250759   3.375   3.116   4.631  0.8481 -0.0186 -1.1413
 9782TIP3   OH250760   3.383   1.162   0.044  0.9730 -0.7227  0.5047
 9782TIP3    H150761   3.296   1.160   0.084  0.4809 -0.3586 -0.5304
 9782TIP3    H250762   3.392   1.076   0.002  1.6999 -1.3087  1.7822
 9783TIP3   OH250763   4.598   2.077  16.105 -0.2664 -0.1567 -0.5243
 9783TIP3    H150764   4.683   2.036  16.095  1.4488  2.7281  0.8726
 9783TIP3    H250765   4.555   2.028  16.175  1.9912  0.6903  1.5990
 9784TIP3   OH250766   4.463   5.255  12.509  1.0481  0.0828 -0.3503
 9784TIP3    H150767   4.457   5.192  12.581 -0.7068  1.1698  0.5271
 9784TIP3    H250768   4.425   5.209  12.434 -2.2103  0.6573  0.7728
 9785TIP3   OH250769   4.450   2.012   1.455 -0.1964 -0.0831  0.1780
 9785TIP3    H150770   4.410   2.052   1.378  0.7563  1.0235  0.2384
 9785TIP3    H250771   4.390   1.942   1.480  0.1699 -1.4714 -2.4538
 9786TIP3   OH250772   5.070   3.123   6.668 -0.0825 -0.1136 -0.1505
 9786TIP3    H150773   5.060   3.039   6.623 -0.4005  0.7275 -1.7355
 9786TIP3    H250774   4.992   3.130   6.723 -1.5818  0.3612 -2.1936
 9787TIP3   OH250775   3.723   0.260   5.458  0.5406  0.0299  0.5313
 9787TIP3    H150776   3.636   0.220   5.452 -0.2125  1.4517  1.4656
 9787TIP3    H250777   3.730   0.289   5.549  1.5809  0.8486  0.2125
 9788TIP3   OH250778   4.683   1.285  11.424  0.4730  1.1634  0.3508
 9788TIP3    H150779   4.665   1.222  11.493  0.2849  1.4491  0.5671
 9788TIP3    H250780   4.706   1.232  11.348 -0.3575  0.8139  0.3345
 9789TIP3   OH250781   2.075   4.984   5.126  0.2353  0.1721 -0.1137
 9789TIP3    H150782   2.083   5.007   5.219  0.8974  2.9003 -0.7400
 9789TIP3    H250783   2.036   5.062   5.086  2.1637  0.0472 -2.4618
 9790TIP3   OH250784   3.705   2.807  12.769  0.0078  0.0499 -0.3771
 9790TIP3    H150785   3.642   2.766  12.828 -1.2762  0.1257 -1.6294
 9790TIP3    H250786   3.748   2.733  12.726  1.2945 -0.0139  0.9603
 9791TIP3   OH250787   2.358   1.375  14.892 -0.0135 -0.2308 -0.0225
 9791TIP3    H150788   2.317   1.457  14.919  2.0590  0.8634 -0.0013
 9791TIP3    H250789   2.300   1.340  14.824 -0.8745  1.3204 -0.1300
 9792TIP3   OH250790   0.428   5.975  16.543  0.3216  0.5776 -0.1208
 9792TIP3    H150791   0.385   5.909  16.598 -1.1021  1.6495  0.1138
 9792TIP3    H250792   0.376   6.054  16.556 -0.1609  0.8474 -3.1564
 9793TIP3   OH250793   1.880   5.583   1.810  0.2059  0.4163 -0.5333
 9793TIP3    H150794   1.974   5.581   1.827  0.1693 -0.6044 -0.4185
 9793TIP3    H250795   1.856   5.676   1.820  0.9208  0.4713  0.9200
 9794TIP3   OH250796   5.816   4.556  16.907 -0.2929  0.5231  0.0482
 9794TIP3    H150797   5.803   4.622  16.974 -0.3273  1.7522 -1.1168
 9794TIP3    H250798   5.858   4.603  16.835 -1.4627 -0.4016 -1.3112
 9795TIP3   OH250799   4.740   6.618  13.112 -0.5934 -0.6379 -0.5658
 9795TIP3    H150800   4.691   6.700  13.118 -0.3981 -0.5345 -0.3828
 9795TIP3    H250801   4.829   6.644  13.088 -0.0916 -0.6468  1.1773
 9796TIP3   OH250802   2.772   2.844  16.673 -0.7492 -0.3922 -0.1933
 9796TIP3    H150803   2.802   2.935  16.673  0.7045 -0.8118 -1.9781
 9796TIP3    H250804   2.690   2.846  16.623  0.5221 -0.3419 -2.4106
 9797TIP3   OH250805   0.968   5.336  16.964  0.4102 -0.3602  0.0055
 9797TIP3    H150806   1.007   5.263  16.915  1.2512 -0.6530  1.0691
 9797TIP3    H250807   0.880   5.306  16.986  0.6453 -0.9427  0.1730
 9798TIP3   OH250808   0.966   6.514  14.372 -0.0201 -0.2331 -0.1633
 9798TIP3    H150809   0.882   6.500  14.330 -0.8978 -1.3730  1.8062
 9798TIP3    H250810   1.012   6.431  14.361  0.8569  0.3782 -1.2144
 9799TIP3   OH250811   3.690   6.111   1.623  0.2254  0.2406  0.6689
 9799TIP3    H150812   3.615   6.102   1.564  0.2718 -1.9444  0.8466
 9799TIP3    H250813   3.766   6.119   1.564  0.1041 -0.2475  0.4406
 9800TIP3   OH250814   1.081   4.265  14.116  0.5878  0.0259  0.6709
 9800TIP3    H150815   1.070   4.287  14.023  2.3812  0.1966  0.4598
 9800TIP3    H250816   1.160   4.211  14.119  0.5464 -0.0040  2.1010
 9801TIP3   OH250817   2.338   5.224  11.406 -0.5002  0.5371 -0.4957
 9801TIP3    H150818   2.255   5.272  11.417 -1.2821 -0.8068 -0.2942
 9801TIP3    H250819   2.313   5.144  11.359  0.2618 -1.0061  1.5804
 9802TIP3   OH250820   6.654   1.822   2.875 -0.4151 -0.1025 -0.3505
 9802TIP3    H150821   6.738   1.867   2.869 -1.2294  2.0567  2.4875
 9802TIP3    H250822   6.676   1.736   2.912  0.6211  0.0288 -0.6215
 9803TIP3   OH250823   3.376   4.239   4.791  0.1905  0.3603  0.5864
 9803TIP3    H150824   3.396   4.154   4.831  0.9676  1.4522  2.6438
 9803TIP3    H250825   3.420   4.303   4.846  0.6153  2.0653 -1.6012
 9804TIP3   OH250826   5.354   4.164  15.968  0.1705 -0.2309 -0.3430
 9804TIP3    H150827   5.273   4.114  15.953 -1.5581  1.5364  2.2529
 9804TIP3    H250828   5.424   4.105  15.940 -1.9198 -2.4189 -1.3591
 9805TIP3   OH250829   2.612   3.401   1.059  0.5753 -0.1234 -0.1573
 9805TIP3    H150830   2.569   3.316   1.058 -0.0591  0.1577  1.1724
 9805TIP3    H250831   2.704   3.382   1.042  0.2059 -0.8950 -1.4344
 9806TIP3   OH250832   2.348   0.153  16.214  0.2687  0.1334  0.1972
 9806TIP3    H150833   2.283   0.110  16.270 -1.2430  1.5683 -0.3788
 9806TIP3    H250834   2.431   0.113  16.240 -0.6435 -0.8027  1.9104
 9807TIP3   OH250835   5.463   3.288  14.317  0.0071 -0.2474  0.3452
 9807TIP3    H150836   5.446   3.371  14.363 -0.4172  0.2739 -0.7073
 9807TIP3    H250837   5.556   3.272  14.331  1.0677  2.3703 -2.3947
 9808TIP3   OH250838   4.532   0.122  16.228  0.1588  0.5017  0.1074
 9808TIP3    H150839   4.456   0.137  16.172  0.9407 -0.4251 -1.2611
 9808TIP3    H250840   4.586   0.059  16.179  2.2817  1.8640  0.5637
 9809TIP3   OH250841   2.421   3.753   3.231 -0.1322 -0.2659 -0.6983
 9809TIP3    H150842   2.376   3.678   3.191 -1.5775  1.0465 -1.6446
 9809TIP3    H250843   2.351   3.804   3.271  0.7484  0.8858 -0.5826
 9810TIP3   OH250844   3.926   5.589  12.541  0.0444  0.1770 -0.5278
 9810TIP3    H150845   3.912   5.530  12.615 -0.2007  0.3176 -0.4593
 9810TIP3    H250846   3.869   5.555  12.472 -0.8125  0.8787 -0.1781
 9811TIP3   OH250847   0.881   4.886  11.244  0.2949 -0.9003 -0.7784
 9811TIP3    H150848   0.825   4.956  11.209  0.6460 -0.1745  0.0679
 9811TIP3    H250849   0.826   4.842  11.308  0.8464  0.2079  0.5106
 9812TIP3   OH250850   6.455   6.426   3.269 -0.1457  0.1598  0.4645
 9812TIP3    H150851   6.406   6.459   3.344  1.2762 -0.4717  1.7234
 9812TIP3    H250852   6.545   6.420   3.300  0.3852 -0.6571 -1.1240
 9813TIP3   OH250853   4.147   0.901  16.785  0.3577 -0.1276 -0.0772
 9813TIP3    H150854   4.059   0.891  16.821  0.7418  0.7880  1.1681
 9813TIP3    H250855   4.132   0.939  16.698 -0.4740  0.2942  0.2345
 9814TIP3   OH250856   0.291   3.650  14.362 -0.0303 -0.7972  0.7491
 9814TIP3    H150857   0.288   3.558  14.389  0.7094 -0.9049  0.4754
 9814TIP3    H250858   0.384   3.669  14.354 -0.2023 -0.6621 -1.3581
 9815TIP3   OH250859   4.072   4.566  12.368 -0.4121 -0.3190 -0.3701
 9815TIP3    H150860   3.983   4.550  12.397 -0.6829 -0.0070 -1.0031
 9815TIP3    H250861   4.063   4.598  12.278  0.4329 -1.8576 -1.0376
 9816TIP3   OH250862   3.104   3.082  11.752  0.1612 -0.1602  0.0930
 9816TIP3    H150863   3.115   3.033  11.833 -0.7329 -0.8888 -0.2107
 9816TIP3    H250864   3.183   3.062  11.701  0.0481 -0.8626  0.1927
 9817TIP3   OH250865   5.596   1.138   4.652 -0.1682  0.1492 -0.1269
 9817TIP3    H150866   5.602   1.132   4.748 -1.1479  0.8547  0.0018
 9817TIP3    H250867   5.526   1.202   4.637  0.0839  0.1665 -1.3206
 9818TIP3   OH250868   5.955   2.197   5.659 -0.0016 -0.0262 -0.0170
 9818TIP3    H150869   6.001   2.187   5.742 -2.9991 -2.1515  1.6104
 9818TIP3    H250870   5.874   2.243   5.682 -1.2460 -1.3236 -1.5239
 9819TIP3   OH250871   1.985   5.117   2.974  0.0397 -0.3321  0.1595
 9819TIP3    H150872   1.956   5.120   3.065 -0.6673 -0.5189 -0.0522
 9819TIP3    H250873   1.932   5.048   2.935 -0.3451  0.4019 -0.6324
 9820TIP3   OH250874   3.151   1.891  16.405 -0.1768 -0.1119  0.2136
 9820TIP3    H150875   3.246   1.899  16.415 -0.0897 -1.8882  1.1524
 9820TIP3    H250876   3.119   1.865  16.492 -1.2828 -1.3667 -0.5250
 9821TIP3   OH250877   6.481   5.887   2.117  0.6166  0.1414  0.1361
 9821TIP3    H150878   6.534   5.879   2.197 -0.4544  1.1718  0.9984
 9821TIP3    H250879   6.412   5.822   2.128  0.2851  0.5032  0.2016
 9822TIP3   OH250880   1.690   0.711   4.840 -0.8750 -0.2595  0.0387
 9822TIP3    H150881   1.720   0.628   4.803 -0.6403 -1.6643  3.0975
 9822TIP3    H250882   1.595   0.702   4.847 -0.6171 -1.8693  3.5149
 9823TIP3   OH250883   2.703   6.251   2.527 -0.0474 -0.1275 -0.0284
 9823TIP3    H150884   2.708   6.223   2.436 -0.0894  1.0617 -0.4166
 9823TIP3    H250885   2.614   6.229   2.554  0.1177 -0.9249 -0.1112
 9824TIP3   OH250886   6.216   5.093  13.001  0.8187 -0.0186  0.7557
 9824TIP3    H150887   6.187   5.056  12.918  0.1997  0.0104  0.9581
 9824TIP3    H250888   6.179   5.181  13.002  1.6657  0.3526  0.6115
 9825TIP3   OH250889   3.108   0.603   0.485 -0.3882  0.3875 -0.5114
 9825TIP3    H150890   3.070   0.630   0.569 -2.7850  2.5133 -2.1266
 9825TIP3    H250891   3.052   0.531   0.455  0.8662 -0.8225 -0.0661
 9826TIP3   OH250892   4.861   4.372   0.837 -0.2951  0.5619 -0.4787
 9826TIP3    H150893   4.926   4.352   0.770 -1.2054  0.1175 -1.2697
 9826TIP3    H250894   4.903   4.436   0.894  1.3861 -0.8541 -0.0490
 9827TIP3   OH250895   5.003   6.161  12.269 -0.0350 -0.7795 -0.3894
 9827TIP3    H150896   5.075   6.099  12.257 -0.0440 -0.5968 -1.4445
 9827TIP3    H250897   4.937   6.134  12.205  0.7925  1.5158 -2.3416
 9828TIP3   OH250898   4.339   4.563  14.198  0.4570 -0.5214 -0.1596
 9828TIP3    H150899   4.248   4.580  14.224  0.5859  0.0190 -0.0359
 9828TIP3    H250900   4.391   4.621  14.254  0.9731 -1.6779  0.5979
 9829TIP3   OH250901   6.305   2.853  17.088 -0.3382 -0.3420  0.9012
 9829TIP3    H150902   6.289   2.759  17.089  1.0813 -0.6028  1.9327
 9829TIP3    H250903   6.249   2.888  17.157  0.9486 -0.8059  2.2424
 9830TIP3   OH250904   2.817   3.264  15.815 -0.1097 -0.3275  0.4741
 9830TIP3    H150905   2.894   3.314  15.839  0.3984 -0.3107 -1.0618
 9830TIP3    H250906   2.744   3.325  15.823  0.0197 -0.3236  1.8589
 9831TIP3   OH250907   1.151   4.368  11.220  0.5963  0.0362  0.0799
 9831TIP3    H150908   1.212   4.437  11.249  2.1785 -1.4919  0.5643
 9831TIP3    H250909   1.086   4.363  11.291  1.0795  0.3030  0.5559
 9832TIP3   OH250910   6.388   5.763  16.949  0.3498 -0.2398  0.1370
 9832TIP3    H150911   6.376   5.793  16.859  1.8774  0.1853  0.0479
 9832TIP3    H250912   6.361   5.838  17.002 -0.8368 -0.5935  0.0681
 9833TIP3   OH250913   2.220   4.190  13.101  0.6937 -0.2107 -1.0898
 9833TIP3    H150914   2.309   4.174  13.072  0.5886  0.1688 -1.6456
 9833TIP3    H250915   2.168   4.193  13.020  0.0507 -1.1694 -0.7291
 9834TIP3   OH250916   2.233   2.412  13.785  0.3999  0.2997  0.2331
 9834TIP3    H150917   2.187   2.402  13.702 -0.3215 -2.2402  0.8752
 9834TIP3    H250918   2.322   2.436  13.760  0.2395 -0.5788 -1.2944
 9835TIP3   OH250919   6.130   4.386   6.761  0.0022 -0.1494 -0.3896
 9835TIP3    H150920   6.150   4.403   6.669 -1.4064  0.6371 -0.5890
 9835TIP3    H250921   6.180   4.307   6.783  1.2097  0.2667 -1.5038
 9836TIP3   OH250922   3.428   4.373   4.224  0.1882  0.2673 -0.0267
 9836TIP3    H150923   3.333   4.385   4.229  0.0860 -0.5638  0.0745
 9836TIP3    H250924   3.464   4.460   4.243 -0.4523 -0.1022  3.3318
 9837TIP3   OH250925   5.208   6.635  10.239 -0.0614 -0.6008 -0.3086
 9837TIP3    H150926   5.230   6.544  10.221 -0.3717 -1.1289  1.7565
 9837TIP3    H250927   5.236   6.649  10.329  0.7331  1.6143 -0.8260
 9838TIP3   OH250928   5.095   1.148  16.573  0.2457  0.2216  0.0807
 9838TIP3    H150929   5.158   1.134  16.502  1.6662  0.3280  1.2631
 9838TIP3    H250930   5.143   1.201  16.637 -1.9204  2.6109 -0.1154
 9839TIP3   OH250931   5.324   3.282  16.991 -0.6183  0.3796 -0.3051
 9839TIP3    H150932   5.274   3.233  17.057 -0.7582 -1.0991 -1.4492
 9839TIP3    H250933   5.305   3.237  16.909 -0.4328  2.1746 -1.3697
 9840TIP3   OH250934   0.012   5.839  15.571 -0.0686  0.3746  0.1130
 9840TIP3    H150935  -0.020   5.906  15.632 -0.8542  3.0219 -2.9415
 9840TIP3    H250936  -0.067   5.810  15.525  0.8727  1.2976 -2.2194
 9841TIP3   OH250937   4.703   0.044  15.115  1.0449 -0.4542  0.0641
 9841TIP3    H150938   4.672   0.103  15.047 -0.5068  0.9246  1.8538
 9841TIP3    H250939   4.798   0.037  15.101  0.9376  0.7938 -1.4284
 9842TIP3   OH250940   6.038   5.322   1.241  0.2201 -0.0420 -0.0207
 9842TIP3    H150941   5.998   5.409   1.240  0.1216 -0.0575 -2.0717
 9842TIP3    H250942   6.121   5.333   1.194 -0.6078 -1.3683 -1.9045
 9843TIP3   OH250943   5.509   3.967  11.432 -0.0191 -0.3469  0.1954
 9843TIP3    H150944   5.553   3.910  11.369 -0.6759 -1.0584  0.3784
 9843TIP3    H250945   5.430   3.997  11.387 -0.5393 -0.9342  0.7043
 9844TIP3   OH250946   0.055   2.543  13.232  0.1945 -0.3752  0.3653
 9844TIP3    H150947   0.080   2.591  13.311  2.5906 -1.0079  0.0644
 9844TIP3    H250948   0.124   2.479  13.220 -1.9361 -2.6973 -0.3052
 9845TIP3   OH250949   5.726   5.367   4.091 -0.8376 -0.1761 -0.2419
 9845TIP3    H150950   5.660   5.396   4.027 -0.9275 -0.8437 -0.4555
 9845TIP3    H250951   5.682   5.299   4.142 -0.1957 -0.9064 -0.6450
 9846TIP3   OH250952   5.295   6.092  13.192  0.7268 -0.2802 -0.2820
 9846TIP3    H150953   5.201   6.107  13.188  0.4619 -0.9109  1.9197
 9846TIP3    H250954   5.325   6.144  13.267  2.3426  0.6768 -1.5031
 9847TIP3   OH250955   0.795   6.368   3.302  0.5267  0.1952 -0.1908
 9847TIP3    H150956   0.704   6.375   3.331  0.5752  0.6510 -0.1401
 9847TIP3    H250957   0.789   6.361   3.206  0.4819  1.4036 -0.2929
 9848TIP3   OH250958   3.526   6.635   0.537  0.3653  0.0571 -0.2712
 9848TIP3    H150959   3.616   6.618   0.508  0.3607 -1.7622  0.6119
 9848TIP3    H250960   3.520   6.591   0.622 -1.5644 -0.4586 -0.6197
 9849TIP3   OH250961   3.911   4.932   1.321  0.3354  0.7727 -0.1089
 9849TIP3    H150962   3.832   4.940   1.376  0.5926 -1.2782  0.6551
 9849TIP3    H250963   3.983   4.951   1.381  0.5217  0.3626 -0.1974
 9850TIP3   OH250964   4.350   3.828  10.362 -0.0958  0.4581 -0.0497
 9850TIP3    H150965   4.289   3.774  10.414  0.5511 -0.6542 -0.4011
 9850TIP3    H250966   4.355   3.911  10.409 -1.2888  0.2920  0.4047
 9851TIP3   OH250967   6.022   2.928   4.984  0.2624  0.1830 -0.4321
 9851TIP3    H150968   5.967   2.850   4.982  0.3314  0.1387 -0.5656
 9851TIP3    H250969   5.981   2.988   4.922  0.2085  0.2532 -0.3290
 9852TIP3   OH250970   3.065   3.857  14.505  0.7074 -0.1512 -0.4008
 9852TIP3    H150971   3.082   3.765  14.486  0.5196 -0.2259 -0.1989
 9852TIP3    H250972   2.973   3.870  14.484  0.9707  0.2307 -1.3917
 9853TIP3   OH250973   0.536   2.863  11.414  0.2217  0.0313  0.5848
 9853TIP3    H150974   0.625   2.894  11.429  0.1899 -0.5228  2.1670
 9853TIP3    H250975   0.480   2.938  11.433  0.3490  0.8111 -1.7840
 9854TIP3   OH250976   1.366   1.592  12.069  0.5231  0.3741  0.5624
 9854TIP3    H150977   1.349   1.676  12.111 -1.6918 -0.7126  2.0662
 9854TIP3    H250978   1.371   1.530  12.142 -0.5933 -1.1612 -0.5968
 9855TIP3   OH250979   4.301   4.263   3.622 -0.0208 -0.3551 -0.4067
 9855TIP3    H150980   4.248   4.237   3.547 -1.9657  0.1992  0.7091
 9855TIP3    H250981   4.306   4.185   3.676  0.7762 -0.5485 -0.7381
 9856TIP3   OH250982   1.174   5.994  11.164  0.5726 -0.1996 -0.3645
 9856TIP3    H150983   1.091   6.031  11.194  1.2902 -0.1622  1.7891
 9856TIP3    H250984   1.225   6.070  11.137 -0.6368 -0.3501 -3.4413
 9857TIP3   OH250985   6.700   0.473  16.683  0.2423  0.6866 -0.0781
 9857TIP3    H150986   6.783   0.467  16.729  0.5351  4.4213  0.1859
 9857TIP3    H250987   6.646   0.531  16.737 -1.5820  0.4857 -1.5529
 9858TIP3   OH250988   3.149   0.448   3.693  0.4697 -0.5560  0.0862
 9858TIP3    H150989   3.237   0.481   3.710  0.9126 -1.4070 -0.4872
 9858TIP3    H250990   3.146   0.363   3.736 -0.4323 -0.0952  0.9744
 9859TIP3   OH250991   4.053   4.559   0.855 -0.2657  0.5110  0.3313
 9859TIP3    H150992   3.961   4.543   0.834 -0.3038 -1.2889  1.6213
 9859TIP3    H250993   4.054   4.646   0.895 -1.9615 -0.5606  2.9837
 9860TIP3   OH250994   1.273   0.702  16.184 -0.7616 -0.1646  0.1678
 9860TIP3    H150995   1.361   0.733  16.163 -1.0973  1.7509  1.4017
 9860TIP3    H250996   1.281   0.667  16.273 -1.1838 -0.2260  0.1810
 9861TIP3   OH250997   3.312   5.462   4.357 -0.5730 -0.1678  0.0272
 9861TIP3    H150998   3.393   5.419   4.383 -0.3224 -0.5288 -1.2726
 9861TIP3    H250999   3.264   5.474   4.439  0.9119  0.3386  0.8470
 9862TIP3   OH251000   0.900   2.135   0.428 -0.1950 -0.1778  0.2367
 9862TIP3    H151001   0.848   2.112   0.505  0.6028  0.7453  1.0817
 9862TIP3    H251002   0.920   2.051   0.386 -0.2905 -0.7287  1.2681
 9863TIP3   OH251003   1.711   1.478  12.518  0.2780 -0.3649  0.1819
 9863TIP3    H151004   1.794   1.430  12.515  1.6740  1.8871  0.4766
 9863TIP3    H251005   1.715   1.527  12.600 -0.7969  0.7240 -0.3875
 9864TIP3   OH251006   4.875   1.638  13.813 -0.0541 -0.1733 -0.3869
 9864TIP3    H151007   4.865   1.542  13.813 -1.7580 -0.0354 -1.2295
 9864TIP3    H251008   4.922   1.657  13.732 -3.0244 -0.1087 -2.2593
 9865TIP3   OH251009   3.030   6.348  14.430  0.2957 -0.0028  0.7673
 9865TIP3    H151010   3.118   6.327  14.399 -0.6322 -0.3448 -1.9124
 9865TIP3    H251011   3.017   6.291  14.506  2.1472 -0.3930  0.8414
 9866TIP3   OH251012   0.314   2.992  16.421 -0.3062  0.3381  0.4214
 9866TIP3    H151013   0.223   2.995  16.451 -0.2848 -1.1374  0.6956
 9866TIP3    H251014   0.313   2.927  16.351  0.7476 -0.5429  1.1985
 9867TIP3   OH251015   0.897   3.958  15.169 -0.1653  0.0831  0.2306
 9867TIP3    H151016   0.844   3.878  15.176 -1.3750  0.6469 -1.6277
 9867TIP3    H251017   0.953   3.957  15.246 -1.4023 -1.6589  1.1701
 9868TIP3   OH251018   5.863   6.369   4.614 -0.0424  0.7075  0.7415
 9868TIP3    H151019   5.933   6.305   4.629  1.0876  1.7430  0.0054
 9868TIP3    H251020   5.822   6.341   4.532 -0.3649  0.2293  1.0591
 9869TIP3   OH251021   4.963   6.153   0.723 -0.2261 -0.0261  0.0162
 9869TIP3    H151022   4.887   6.197   0.762 -2.2839 -3.5295  0.3809
 9869TIP3    H251023   4.950   6.162   0.629 -0.0356  1.0003  0.0811
 9870TIP3   OH251024   1.886   6.645   5.600  0.2290  0.2257  0.3838
 9870TIP3    H151025   1.970   6.675   5.565  1.5012 -2.0465  1.1892
 9870TIP3    H251026   1.862   6.571   5.545  0.4463 -1.1485  2.0237
 9871TIP3   OH251027   1.941   3.737  14.365 -0.0729 -0.1785 -0.0459
 9871TIP3    H151028   2.024   3.747  14.413  0.0928  0.7482 -0.4873
 9871TIP3    H251029   1.900   3.823  14.371 -1.0508 -0.6501  0.2210
 9872TIP3   OH251030   0.266   0.195  14.739 -0.0336  0.1254 -0.0340
 9872TIP3    H151031   0.234   0.285  14.748  1.2314  0.7576 -1.3901
 9872TIP3    H251032   0.349   0.194  14.786 -0.5999 -0.6795  0.9740
 9873TIP3   OH251033   2.229   2.397   0.208  0.4565 -0.0422 -0.4699
 9873TIP3    H151034   2.256   2.460   0.275  2.0821 -0.5220 -0.6329
 9873TIP3    H251035   2.157   2.441   0.163  1.5847  1.7940 -0.6331
 9874TIP3   OH251036   3.737   6.672  14.070  0.3416 -0.1759 -0.2021
 9874TIP3    H151037   3.688   6.695  13.991  1.8392  0.9343 -0.8686
 9874TIP3    H251038   3.811   6.621  14.037  1.0659  0.4270  0.4544
 9875TIP3   OH251039   0.529   2.751  10.671 -0.2670 -0.3455 -0.2340
 9875TIP3    H151040   0.594   2.702  10.721 -1.5713 -2.8865 -0.8296
 9875TIP3    H251041   0.567   2.757  10.583 -0.3906 -1.0077 -0.3436
 9876TIP3   OH251042   4.090   6.390   6.865  0.0508  0.2193  0.5434
 9876TIP3    H151043   4.153   6.428   6.804 -0.9939  1.0238 -0.0812
 9876TIP3    H251044   4.134   6.313   6.901  1.4803  0.9240  0.3624
 9877TIP3   OH251045   2.788   5.400  16.972 -0.0908  0.0357  0.4834
 9877TIP3    H151046   2.812   5.442  16.889  1.8457  1.1581  1.5404
 9877TIP3    H251047   2.707   5.442  16.998 -0.0235  0.6026 -0.1978
 9878TIP3   OH251048   3.971   0.222  15.473 -0.0222 -0.1688 -0.3458
 9878TIP3    H151049   3.937   0.282  15.540 -0.2627  1.4389 -1.8015
 9878TIP3    H251050   3.899   0.216  15.409  0.5658 -0.8209 -0.9566
 9879TIP3   OH251051   5.269   6.258   4.314 -0.4835 -0.7402 -0.0911
 9879TIP3    H151052   5.364   6.252   4.320 -0.4441 -1.1669 -1.0015
 9879TIP3    H251053   5.253   6.337   4.263 -0.6511 -0.2798  0.6469
 9880TIP3   OH251054   4.762   2.257   2.044 -0.6316 -0.4132  0.1000
 9880TIP3    H151055   4.724   2.201   2.111  0.0906 -1.6659 -0.4917
 9880TIP3    H251056   4.763   2.202   1.965 -2.0326  1.2064 -1.1276
 9881TIP3   OH251057   2.668   6.281   4.697  0.1220 -0.3020 -0.3205
 9881TIP3    H151058   2.646   6.302   4.606  0.3814  0.7430 -0.1570
 9881TIP3    H251059   2.726   6.206   4.691 -0.2323 -0.5314 -0.9925
 9882TIP3   OH251060   5.236   1.098  10.953 -0.5725  0.0805  0.1430
 9882TIP3    H151061   5.327   1.100  10.926 -1.3179 -0.5097 -2.7916
 9882TIP3    H251062   5.211   1.006  10.950 -1.5397  0.3321 -0.2736
 9883TIP3   OH251063   5.601   4.329  13.232  0.2211  0.5398  0.0344
 9883TIP3    H151064   5.648   4.298  13.309 -0.3201 -1.7595 -0.4717
 9883TIP3    H251065   5.667   4.332  13.162  0.3129  0.7101  0.1289
 9884TIP3   OH251066   1.484   5.443  11.673  0.1174 -0.4817  0.5365
 9884TIP3    H151067   1.505   5.486  11.757 -0.8061 -0.4784  0.7764
 9884TIP3    H251068   1.391   5.423  11.679 -0.1255  0.1565 -0.7858
 9885TIP3   OH251069   6.367   6.038   2.702 -0.2399  0.0559 -0.3091
 9885TIP3    H151070   6.387   6.031   2.795  0.3864 -1.3164 -0.5200
 9885TIP3    H251071   6.316   5.960   2.682 -1.0133  0.7122 -0.9770
 9886TIP3   OH251072   0.937   6.622   3.821 -0.3588  0.0343 -0.4527
 9886TIP3    H151073   1.027   6.623   3.789 -0.0578  0.9941  0.3808
 9886TIP3    H251074   0.932   6.544   3.876  0.3510  0.6458  0.5150
 9887TIP3   OH251075   0.405   6.195   1.206 -0.1629 -0.1575  0.3608
 9887TIP3    H151076   0.372   6.226   1.122 -1.0426 -1.8633  0.0277
 9887TIP3    H251077   0.369   6.257   1.271 -2.6036 -0.8945 -0.1732
 9888TIP3   OH251078   2.658   3.148  16.504  0.7651  0.3494  0.3657
 9888TIP3    H151079   2.670   3.061  16.465  1.4355  0.7761 -0.4155
 9888TIP3    H251080   2.727   3.155  16.570 -0.0393 -0.1687  1.2736
 9889TIP3   OH251081   1.282   3.394  14.382  0.0608 -0.3774 -0.6625
 9889TIP3    H151082   1.320   3.467  14.431  2.1285  0.1412 -2.8536
 9889TIP3    H251083   1.283   3.422  14.291 -1.6206 -2.1333 -1.2961
 9890TIP3   OH251084   6.184   3.928  10.864 -0.1984 -0.4070 -0.5180
 9890TIP3    H151085   6.100   3.961  10.895 -0.1763  0.7432 -1.5657
 9890TIP3    H251086   6.184   3.835  10.887 -2.7933 -1.0334 -2.5493
 9891TIP3   OH251087   0.858   5.781   4.794  0.2123 -0.2197  0.5189
 9891TIP3    H151088   0.933   5.763   4.851  0.2955  0.8071  0.7604
 9891TIP3    H251089   0.885   5.748   4.708  0.4992 -0.8435  0.8421
 9892TIP3   OH251090   6.644   6.045  13.260 -0.1171 -0.3650 -0.0664
 9892TIP3    H151091   6.638   6.136  13.287 -0.6992 -0.3222 -0.3241
 9892TIP3    H251092   6.580   5.999  13.314 -0.7022 -0.4098 -0.7777
 9893TIP3   OH251093   4.335   0.026   0.313 -0.2360  0.4799  0.1587
 9893TIP3    H151094   4.346   0.006   0.406  0.0524 -1.9806 -0.3202
 9893TIP3    H251095   4.285  -0.048   0.279  0.2375  0.9869 -1.7713
 9894TIP3   OH251096   2.568   0.733  12.555  0.6449 -0.0079  0.0125
 9894TIP3    H151097   2.581   0.781  12.637 -1.6692 -0.0300  0.4376
 9894TIP3    H251098   2.657   0.713  12.526  1.5782  1.5403  1.5834
 9895TIP3   OH251099   4.458   5.079   2.078 -0.3480 -0.0545  0.6846
 9895TIP3    H151100   4.508   5.011   2.033 -1.2070  0.6222 -1.3994
 9895TIP3    H251101   4.481   5.069   2.170  0.6689 -2.2100  0.2486
 9896TIP3   OH251102   4.675   3.768   0.862  0.4464  0.2416  0.0555
 9896TIP3    H151103   4.757   3.722   0.844  1.5445  2.3914 -0.9718
 9896TIP3    H251104   4.689   3.855   0.824 -0.6495  2.1618  3.6410
 9897TIP3   OH251105   4.135   3.839   3.625 -0.2809  0.0007 -0.1250
 9897TIP3    H151106   4.049   3.816   3.590 -1.0760  1.9082  0.4250
 9897TIP3    H251107   4.167   3.908   3.567  0.3265  0.1714  0.3975
 9898TIP3   OH251108   5.295   3.824  12.933 -0.5452  0.0225 -0.0009
 9898TIP3    H151109   5.249   3.772  12.868 -1.0899 -0.4377  0.7326
 9898TIP3    H251110   5.300   3.912  12.895  0.5019 -0.5784 -1.3056
 9899TIP3   OH251111   4.960   6.733  15.022 -0.2757  0.2785  0.0400
 9899TIP3    H151112   5.041   6.780  15.004  0.5195 -0.9663  0.2061
 9899TIP3    H251113   4.964   6.714  15.116 -1.1086  0.8207  0.1923
 9900TIP3   OH251114   2.976   1.360  13.298 -0.2631  0.4683 -0.0622
 9900TIP3    H151115   3.005   1.271  13.315  2.3399  1.0373 -1.1085
 9900TIP3    H251116   2.994   1.408  13.379  0.7170  0.5664 -0.3291
 9901TIP3   OH251117   2.608   3.918   5.386  0.7227  0.3144  0.9448
 9901TIP3    H151118   2.593   3.859   5.312 -1.0571  0.3139  1.2560
 9901TIP3    H251119   2.701   3.907   5.407  0.7305 -1.4576  0.2148
 9902TIP3   OH251120   4.934   2.828  15.208 -0.2011 -0.6189 -0.1430
 9902TIP3    H151121   4.845   2.839  15.243 -0.3823 -3.4657  0.5494
 9902TIP3    H251122   4.928   2.751  15.152  1.6599 -0.2957 -0.8408
 9903TIP3   OH251123   1.867   2.953   4.971  0.2466  0.7926  0.2872
 9903TIP3    H151124   1.838   3.038   5.005 -0.9430  0.1987  0.8086
 9903TIP3    H251125   1.796   2.924   4.914 -0.6387 -1.0579  2.1883
 9904TIP3   OH251126   1.292   0.402   1.834  0.1706 -0.1399 -0.4813
 9904TIP3    H151127   1.244   0.485   1.838  1.0605  0.3974 -0.6763
 9904TIP3    H251128   1.384   0.428   1.833  0.4498 -1.1266 -0.8803
 9905TIP3   OH251129   2.318   5.722   1.582  0.2677 -0.3332  0.8283
 9905TIP3    H151130   2.258   5.765   1.643 -0.3829  0.7139 -0.4927
 9905TIP3    H251131   2.262   5.664   1.530  0.4452  0.3099 -0.1100
 9906TIP3   OH251132   1.754   3.278  16.557  0.4091 -0.0778 -0.1011
 9906TIP3    H151133   1.718   3.222  16.488  1.2381 -0.7690  0.0103
 9906TIP3    H251134   1.846   3.289  16.533 -0.1498  2.8852 -1.1872
 9907TIP3   OH251135   1.679   5.153  15.970  0.3180 -0.0619 -0.2907
 9907TIP3    H151136   1.632   5.156  15.887 -1.7463 -0.9444  0.7821
 9907TIP3    H251137   1.767   5.124  15.946  0.0812  0.6539 -2.2516
 9908TIP3   OH251138   0.862   0.516  15.263  0.0069  0.1132  0.5916
 9908TIP3    H151139   0.938   0.479  15.307 -0.2944  0.2674  1.2565
 9908TIP3    H251140   0.890   0.529  15.172  0.3528 -1.0282  0.5275
 9909TIP3   OH251141   1.643   2.929   6.767  0.0011  0.5811 -0.1282
 9909TIP3    H151142   1.665   2.874   6.842 -2.8645  1.6345  1.6779
 9909TIP3    H251143   1.552   2.906   6.748 -0.0563  2.0239 -1.7927
 9910TIP3   OH251144   1.957   4.208   3.565 -0.2651 -0.0549 -0.1731
 9910TIP3    H151145   1.983   4.218   3.474  0.1238  1.5121  0.0774
 9910TIP3    H251146   1.862   4.202   3.562 -0.3129  0.7705 -0.6409
 9911TIP3   OH251147   6.271   3.311   0.192  0.0526 -0.0869  0.2929
 9911TIP3    H151148   6.343   3.271   0.142  1.6247  0.5692  1.9075
 9911TIP3    H251149   6.229   3.370   0.129  0.2946 -1.2148 -0.9712
 9912TIP3   OH251150   0.471   1.447  14.050 -1.0890  0.9066  0.1622
 9912TIP3    H151151   0.376   1.436  14.048 -1.0537  0.1553  1.3729
 9912TIP3    H251152   0.489   1.480  14.139  0.0361 -1.9334  1.0962
 9913TIP3   OH251153   0.180   0.833   3.847 -0.2311  0.4549  0.2720
 9913TIP3    H151154   0.222   0.765   3.796  1.0652  2.4252 -1.4614
 9913TIP3    H251155   0.246   0.858   3.912 -1.2183 -0.8084  1.8534
 9914TIP3   OH251156   2.546   6.403  14.091  0.5156  0.1251 -0.1247
 9914TIP3    H151157   2.548   6.457  14.012  1.0795  2.1418  1.1890
 9914TIP3    H251158   2.455   6.374  14.098 -0.8576  4.0971  1.0625
 9915TIP3   OH251159   5.861   3.617   4.930 -0.8732 -0.1636 -0.4628
 9915TIP3    H151160   5.836   3.710   4.927 -0.5790 -0.0747 -0.2144
 9915TIP3    H251161   5.811   3.577   4.859 -1.7548  0.0027  0.0479
 9916TIP3   OH251162   0.645   4.165   2.650  0.1154 -0.0800  0.0799
 9916TIP3    H151163   0.597   4.231   2.701 -2.8713 -1.9960 -0.0179
 9916TIP3    H251164   0.716   4.214   2.609 -1.7769  3.0662  0.1859
 9917TIP3   OH251165   0.855   5.588   3.906 -0.5027  0.2622  0.2300
 9917TIP3    H151166   0.938   5.586   3.954  1.8127 -4.5672 -3.1498
 9917TIP3    H251167   0.853   5.674   3.865  2.5185  0.8027  0.9873
 9918TIP3   OH251168   3.404   6.304  12.780 -0.0403  0.0802 -0.3503
 9918TIP3    H151169   3.412   6.398  12.766  0.7936  0.0613 -0.0492
 9918TIP3    H251170   3.419   6.265  12.694  2.1387  0.1134 -0.0564
 9919TIP3   OH251171   5.001   3.641   3.743  0.0582 -0.0648  0.0458
 9919TIP3    H151172   4.936   3.612   3.679 -1.3436  1.3161  0.7744
 9919TIP3    H251173   4.974   3.730   3.766  2.4274  0.6966  0.1293
 9920TIP3   OH251174   1.875   3.444   4.355 -0.1349 -0.8188  0.6344
 9920TIP3    H151175   1.793   3.395   4.342 -0.7156 -0.3361  2.2076
 9920TIP3    H251176   1.944   3.383   4.330 -0.9425 -1.5851  0.2128
 9921TIP3   OH251177   5.190   5.056   0.553  0.1480  0.5787  0.4631
 9921TIP3    H151178   5.241   4.991   0.505  1.5276  2.2399 -0.4374
 9921TIP3    H251179   5.099   5.034   0.534  0.5515 -1.3560  0.6120
 9922TIP3   OH251180   2.151   1.052   5.426  0.3743 -0.2591  0.2942
 9922TIP3    H151181   2.108   1.127   5.386  1.1649 -0.6782 -1.4300
 9922TIP3    H251182   2.080   1.002   5.466 -0.4718  0.1611 -0.6402
 9923TIP3   OH251183   3.103   4.348  11.511  0.0573  0.0788  0.8467
 9923TIP3    H151184   3.070   4.394  11.589  0.9277  1.5134  0.4093
 9923TIP3    H251185   3.059   4.390  11.438 -1.3572 -1.8000  0.5586
 9924TIP3   OH251186   0.790   2.265   3.744 -0.3281  0.0889 -0.1121
 9924TIP3    H151187   0.757   2.281   3.832  1.8645  0.6767  0.6689
 9924TIP3    H251188   0.881   2.296   3.746 -0.0079 -0.4893 -2.3917
 9925TIP3   OH251189   2.171   3.444  14.976 -0.6591  0.1884  0.5952
 9925TIP3    H151190   2.076   3.443  14.964 -0.5947  0.8434 -0.0077
 9925TIP3    H251191   2.184   3.484  15.062 -0.9133  0.3240  0.5703
 9926TIP3   OH251192   0.988   6.678   1.406 -0.8517 -0.1928 -0.0490
 9926TIP3    H151193   0.973   6.769   1.429  0.2455 -0.2717  1.1313
 9926TIP3    H251194   1.071   6.679   1.357 -1.5980 -0.3993 -1.3651
 9927TIP3   OH251195   6.305   6.692   4.295 -0.1671 -0.4184 -0.1739
 9927TIP3    H151196   6.292   6.778   4.333 -2.3693 -1.1515  0.9123
 9927TIP3    H251197   6.399   6.687   4.278  0.1416  1.8239  0.5653
 9928TIP3   OH251198   3.908   6.458   3.243  0.8848 -0.0946 -0.7798
 9928TIP3    H151199   3.897   6.482   3.151  2.2248  1.3682 -0.6142
 9928TIP3    H251200   3.999   6.481   3.263  0.7903 -0.9010  0.7644
 9929TIP3   OH251201   1.042   4.759   1.122 -0.3131 -0.1614  0.0376
 9929TIP3    H151202   1.029   4.695   1.053  0.9121  0.6975 -1.0491
 9929TIP3    H251203   1.112   4.722   1.176  1.4149  0.8323 -1.4170
 9930TIP3   OH251204   2.185   0.280  13.131  0.3248  0.2799  0.0041
 9930TIP3    H151205   2.121   0.263  13.062  2.1373  0.1265 -1.7436
 9930TIP3    H251206   2.195   0.196  13.176 -1.9778  0.7464  1.5331
 9931TIP3   OH251207   5.111   0.103   4.854  0.0124 -0.1476 -1.0162
 9931TIP3    H151208   5.187   0.047   4.842 -0.3048 -0.9754  0.5169
 9931TIP3    H251209   5.144   0.192   4.844  0.7624 -0.5505 -2.3318
 9932TIP3   OH251210   3.142   4.260  15.155  0.3611  0.2650  0.2976
 9932TIP3    H151211   3.061   4.250  15.206 -0.7472  3.0160 -0.7482
 9932TIP3    H251212   3.114   4.247  15.065  1.3849 -0.0104  0.0146
 9933TIP3   OH251213   2.893   2.109   3.991  0.0633 -0.0870  0.0395
 9933TIP3    H151214   2.976   2.067   3.972  0.3066  0.0879  0.6962
 9933TIP3    H251215   2.890   2.185   3.933  0.8868  0.5550  0.8028
 9934TIP3   OH251216   1.521   4.527   1.026 -0.6045  0.0039 -0.2668
 9934TIP3    H151217   1.565   4.579   1.093 -0.3806  0.3846 -0.7056
 9934TIP3    H251218   1.524   4.581   0.947 -3.4565  0.8653  0.0977
 9935TIP3   OH251219   1.980   2.834  15.347  0.0951  0.2169 -0.6185
 9935TIP3    H151220   2.071   2.855  15.328 -0.4025  0.6514 -2.8011
 9935TIP3    H251221   1.931   2.912  15.321 -1.1198 -0.9358 -2.0278
 9936TIP3   OH251222   2.977   2.276   3.719 -0.4062  0.0961 -0.0963
 9936TIP3    H151223   3.024   2.234   3.647 -1.7204  0.0390 -0.9546
 9936TIP3    H251224   2.907   2.325   3.677 -1.2158  0.0537  1.1367
 9937TIP3   OH251225   3.525   4.256  12.358  0.1758  0.3218  0.0525
 9937TIP3    H151226   3.595   4.269  12.294  0.1407  0.4906  0.0472
 9937TIP3    H251227   3.449   4.231  12.306  0.1326  0.5142  0.0231
 9938TIP3   OH251228   1.549   1.484  11.078  0.3379 -0.3710  0.1366
 9938TIP3    H151229   1.605   1.558  11.052  2.7134 -1.9610  0.4405
 9938TIP3    H251230   1.554   1.423  11.004  0.6493 -1.4157  0.9984
 9939TIP3   OH251231   6.412   6.486   2.993 -0.1285  0.0646 -0.2790
 9939TIP3    H151232   6.370   6.571   2.982  1.6130  1.2003  1.2828
 9939TIP3    H251233   6.429   6.479   3.087  0.1801 -1.8137 -0.4297
 9940TIP3   OH251234   6.175   5.584   2.808  0.1350  0.1164  0.2421
 9940TIP3    H151235   6.158   5.617   2.896 -0.4965 -0.0131  0.1791
 9940TIP3    H251236   6.144   5.493   2.810 -1.6218  0.6449 -0.6035
 9941TIP3   OH251237   3.057   1.298  17.182 -0.3969  0.1375  0.6020
 9941TIP3    H151238   3.152   1.295  17.175 -0.4022 -1.2084  0.7767
 9941TIP3    H251239   3.040   1.302  17.276 -0.5068 -1.1781  0.6591
 9942TIP3   OH251240   3.448   5.445   1.704 -0.3031  0.1934 -0.2701
 9942TIP3    H151241   3.413   5.493   1.628 -1.1335  0.6204  0.3677
 9942TIP3    H251242   3.385   5.374   1.718 -1.4735  1.4929  1.4381
 9943TIP3   OH251243   2.741   0.927   2.957  0.3488 -0.7346 -0.0503
 9943TIP3    H151244   2.756   0.846   2.907 -0.3622 -0.9317  0.0371
 9943TIP3    H251245   2.747   0.900   3.049  1.0452 -0.4942 -0.0203
 9944TIP3   OH251246   2.393   0.634   1.928  0.5471  0.1744  0.3072
 9944TIP3    H151247   2.336   0.699   1.969  0.8489  0.7017 -0.1080
 9944TIP3    H251248   2.344   0.605   1.850 -0.1879 -1.0876  1.1870
 9945TIP3   OH251249   0.695   4.869   1.216  0.4783 -0.0590 -0.5898
 9945TIP3    H151250   0.624   4.896   1.273 -0.3852  1.0050 -2.0862
 9945TIP3    H251251   0.773   4.910   1.253 -0.1297  0.9340 -0.3774
 9946TIP3   OH251252   0.214   3.439  15.277 -0.4418 -0.0271 -0.8027
 9946TIP3    H151253   0.251   3.437  15.189  1.9095  0.2408  0.1297
 9946TIP3    H251254   0.250   3.362  15.321  0.0716  0.9385  0.5336
 9947TIP3   OH251255   3.365   2.799   0.706 -0.6719 -0.3721 -0.0252
 9947TIP3    H151256   3.402   2.719   0.744  0.3824 -0.2667 -0.7737
 9947TIP3    H251257   3.291   2.769   0.654  0.7011 -1.1201 -1.6525
 9948TIP3   OH251258   0.000   2.978   0.145 -0.2545 -0.3321 -0.2168
 9948TIP3    H151259  -0.066   2.946   0.206 -1.5369 -0.3100 -1.5397
 9948TIP3    H251260   0.033   2.900   0.102 -0.4757 -0.2216 -0.5910
 9949TIP3   OH251261   0.268   0.700  13.872  0.0014 -0.0302 -0.0391
 9949TIP3    H151262   0.330   0.763  13.837  0.8961 -0.9375 -0.1439
 9949TIP3    H251263   0.322   0.626  13.901 -1.1390 -1.8582 -2.2477
 9950TIP3   OH251264   0.320   5.670  13.975 -0.0369 -0.2910 -0.2201
 9950TIP3    H151265   0.338   5.743  13.915  1.2256 -0.6021 -0.2510
 9950TIP3    H251266   0.393   5.671  14.037 -2.6095  1.6981  3.0969
 9951TIP3   OH251267   0.818   4.196  14.788 -0.0923  0.4017  0.0996
 9951TIP3    H151268   0.853   4.140  14.857 -0.1872 -0.7994 -0.7724
 9951TIP3    H251269   0.747   4.144  14.749 -1.8741  2.1573  0.8467
 9952TIP3   OH251270   5.920   4.347  12.402 -0.5014  0.0752  0.3289
 9952TIP3    H151271   5.929   4.405  12.477  2.2286 -0.6281  0.6633
 9952TIP3    H251272   5.983   4.277  12.418 -1.4307 -1.3139 -1.5729
 9953TIP3   OH251273   3.827   3.163   4.935  0.6876 -0.1098 -0.0283
 9953TIP3    H151274   3.876   3.243   4.953 -0.6911  0.3672  1.9377
 9953TIP3    H251275   3.779   3.182   4.855  1.3011  0.5584 -0.2522
 9954TIP3   OH251276   5.395   5.809  13.795 -0.2287  0.1044 -0.0996
 9954TIP3    H151277   5.385   5.743  13.727 -1.9074  0.0805  0.1292
 9954TIP3    H251278   5.324   5.872  13.778  0.1639  0.8175  0.8203
 9955TIP3   OH251279   0.997   6.404  11.553  0.1146  0.4522  0.4560
 9955TIP3    H151280   0.969   6.482  11.601 -0.5263  0.0989  0.6779
 9955TIP3    H251281   1.092   6.410  11.550  0.0764  1.1954  0.5462
 9956TIP3   OH251282   3.923   4.949   6.441  0.0405 -0.2626 -0.2145
 9956TIP3    H151283   3.848   4.889   6.436 -1.1302  0.8056  2.5779
 9956TIP3    H251284   3.977   4.914   6.512 -1.0440  2.2334  1.9951
 9957TIP3   OH251285   4.453   3.551  12.834  0.0395  0.1044  0.2172
 9957TIP3    H151286   4.428   3.644  12.839  1.2116  0.4814 -0.4949
 9957TIP3    H251287   4.381   3.510  12.785  0.9898  1.2829 -2.3538
 9958TIP3   OH251288   2.481   2.953  12.913  0.1215  0.3891 -0.2825
 9958TIP3    H151289   2.561   2.901  12.914 -0.1651 -0.0518  0.0020
 9958TIP3    H251290   2.471   2.981  12.822  0.8160  0.7889 -0.2434
 9959TIP3   OH251291   5.621   4.901  13.836  0.0354  0.4246 -0.4969
 9959TIP3    H151292   5.606   4.899  13.931  0.6878  0.9710 -0.3764
 9959TIP3    H251293   5.705   4.944  13.825  2.1789 -3.4709 -1.1174
 9960TIP3   OH251294   0.010   2.837   5.309 -0.1743  0.3932  0.2318
 9960TIP3    H151295  -0.014   2.744   5.317  0.9992  0.1764  1.4168
 9960TIP3    H251296  -0.072   2.884   5.327 -1.2619 -0.3794 -2.1918
 9961TIP3   OH251297   4.049   3.218   3.102 -0.1156 -0.3242  0.2530
 9961TIP3    H151298   4.127   3.225   3.158  1.4849 -2.0813 -1.5794
 9961TIP3    H251299   4.046   3.126   3.078 -1.6796  0.0788 -1.2444
 9962TIP3   OH251300   0.228   4.279  15.371  0.1025  0.8109  0.3374
 9962TIP3    H151301   0.141   4.245  15.350 -0.0047  0.7538  0.8621
 9962TIP3    H251302   0.277   4.203  15.402  1.6519 -0.0897 -3.6611
 9963TIP3   OH251303   0.870   2.682  16.693 -0.1876 -0.0625  0.6318
 9963TIP3    H151304   0.882   2.615  16.759 -0.6838 -1.6977 -0.8566
 9963TIP3    H251305   0.930   2.752  16.718  2.1234 -2.0485  0.9693
 9964TIP3   OH251306   1.066   1.781  12.089  0.0668  0.4518 -0.6503
 9964TIP3    H151307   1.136   1.835  12.125  0.0250 -0.4914  0.9659
 9964TIP3    H251308   0.985   1.830  12.107 -0.0755 -0.5417  1.7932
 9965TIP3   OH251309   3.540   1.274  13.547  0.3442  0.4564 -0.3818
 9965TIP3    H151310   3.574   1.362  13.561 -0.2044  0.5340  0.5046
 9965TIP3    H251311   3.604   1.216  13.590  0.9131  0.3793 -1.3024
 9966TIP3   OH251312   1.531   1.353  10.852  0.0294  0.1275  0.3154
 9966TIP3    H151313   1.513   1.431  10.800 -1.3355 -0.6775 -0.4771
 9966TIP3    H251314   1.493   1.281  10.802  2.3639 -1.2502  0.3917
 9967TIP3   OH251315   6.565   2.785   5.943 -0.0206  0.1570 -0.0869
 9967TIP3    H151316   6.610   2.703   5.964  0.0773 -0.1479 -1.3889
 9967TIP3    H251317   6.472   2.766   5.954  0.0199 -0.0362 -0.0886
 9968TIP3   OH251318   1.128   5.187  11.559  0.3470  0.1316  0.3240
 9968TIP3    H151319   1.084   5.262  11.599  1.6087  1.2518 -0.3040
 9968TIP3    H251320   1.183   5.151  11.628 -0.6636 -0.5656  0.7808
 9969TIP3   OH251321   1.722   1.762  10.432  0.4532  0.5018 -0.2915
 9969TIP3    H151322   1.811   1.791  10.447  0.6917 -0.4184  0.1348
 9969TIP3    H251323   1.700   1.709  10.509  0.0172 -0.3617 -0.9815
 9970TIP3   OH251324   0.847   4.028   2.983  0.4087  0.0242 -0.2640
 9970TIP3    H151325   0.814   4.006   2.896 -0.6896 -0.8073  0.3287
 9970TIP3    H251326   0.940   4.043   2.970  0.3684 -0.6367 -1.4920
 9971TIP3   OH251327   3.789   3.164  16.028 -0.1964  0.3926  0.3586
 9971TIP3    H151328   3.791   3.244  15.976  0.0414 -0.5681 -1.1563
 9971TIP3    H251329   3.814   3.094  15.967 -0.0754 -0.8062  1.7144
 9972TIP3   OH251330   1.975   1.763  13.851 -0.9747 -0.1282 -0.2408
 9972TIP3    H151331   2.025   1.740  13.773 -1.1220  0.0809 -0.3991
 9972TIP3    H251332   1.937   1.681  13.881  0.2936 -0.4678  0.4678
 9973TIP3   OH251333   3.389   4.512  15.003 -0.2780 -0.0782 -0.7570
 9973TIP3    H151334   3.415   4.453  14.932 -0.4233 -0.0951 -0.7952
 9973TIP3    H251335   3.432   4.595  14.981  0.7230 -0.4243 -0.1965
 9974TIP3   OH251336   3.031   1.004   1.420  0.7082 -0.4156  0.3399
 9974TIP3    H151337   3.085   1.072   1.382  1.2534 -1.7224 -1.3043
 9974TIP3    H251338   2.987   1.048   1.494  1.5593  1.4975 -0.2176
 9975TIP3   OH251339   2.219   3.476   3.278  0.0255 -0.0857 -0.2350
 9975TIP3    H151340   2.276   3.512   3.345 -2.1054 -0.0961  1.7166
 9975TIP3    H251341   2.271   3.479   3.197  1.6194  2.8567  0.7630
 9976TIP3   OH251342   3.652   1.038   0.136 -0.5725 -0.4743  0.4242
 9976TIP3    H151343   3.563   1.005   0.152 -0.8375 -0.1220 -0.2585
 9976TIP3    H251344   3.695   0.967   0.088 -1.1909  0.1789 -1.1794
 9977TIP3   OH251345   2.364   1.389  12.375 -0.4701 -0.0550 -0.3306
 9977TIP3    H151346   2.363   1.399  12.280  0.2012  0.2330 -0.3149
 9977TIP3    H251347   2.457   1.388  12.398 -0.6261 -0.3377  0.3005
 9978TIP3   OH251348   0.123   6.670  12.678 -0.0051 -0.2966 -0.1077
 9978TIP3    H151349   0.173   6.677  12.759 -0.4084  1.6710  0.0253
 9978TIP3    H251350   0.080   6.584  12.683  2.8526 -1.8283  0.0012
 9979TIP3   OH251351   5.969   1.219  14.219 -0.3996  0.0540  0.4697
 9979TIP3    H151352   5.875   1.234  14.217 -0.7155 -1.6401  0.7836
 9979TIP3    H251353   6.002   1.280  14.285 -0.9558  2.0585 -1.0253
 9980TIP3   OH251354   5.086   1.666   5.332  0.2690 -0.2283  0.2222
 9980TIP3    H151355   5.020   1.643   5.267  0.0615 -1.6283  0.9045
 9980TIP3    H251356   5.046   1.737   5.382 -0.6985 -1.0039  0.5785
 9981TIP3   OH251357   3.314   6.695   0.034 -0.0480  0.1061 -0.4303
 9981TIP3    H151358   3.235   6.642   0.027 -0.6639  1.1154 -1.5317
 9981TIP3    H251359   3.349   6.675   0.121 -2.5478  1.0582  0.9000
 9982TIP3   OH251360   3.544   4.197   0.549  0.2499  0.3325 -0.1390
 9982TIP3    H151361   3.472   4.144   0.514  0.9808 -0.6218 -0.2202
 9982TIP3    H251362   3.573   4.149   0.627  0.7021  0.7947 -0.0225
 9983TIP3   OH251363   0.359   3.437   2.915  0.2209  0.0254  0.3325
 9983TIP3    H151364   0.314   3.452   2.998 -1.6772 -0.6248 -0.5215
 9983TIP3    H251365   0.315   3.496   2.854  0.7361 -0.4325 -0.4916
 9984TIP3   OH251366   2.746   5.739  16.362  0.3376 -0.0812  0.2129
 9984TIP3    H151367   2.812   5.744  16.432 -1.9479  0.6193  2.4829
 9984TIP3    H251368   2.688   5.667  16.389 -0.8700  0.5175 -0.7051
 9985TIP3   OH251369   3.634   2.948   5.556 -0.6000  0.9028  0.0397
 9985TIP3    H151370   3.591   2.970   5.474  0.7288 -1.4788 -1.4150
 9985TIP3    H251371   3.574   2.886   5.598 -1.3577  2.2438  1.0296
 9986TIP3   OH251372   2.823   6.736   3.805  0.0787  0.3027 -0.9044
 9986TIP3    H151373   2.788   6.660   3.760  0.8958  0.0939 -1.2036
 9986TIP3    H251374   2.816   6.807   3.741 -1.0809  0.5950 -0.4786
 9987TIP3   OH251375   1.162   1.421   0.905 -0.4338  0.2468 -0.7803
 9987TIP3    H151376   1.253   1.411   0.932 -0.5700 -1.1408 -0.7730
 9987TIP3    H251377   1.114   1.431   0.987 -0.4219 -0.2931 -0.7015
 9988TIP3   OH251378   1.652   4.630   3.184  0.1364  0.5738 -0.1250
 9988TIP3    H151379   1.704   4.707   3.206 -0.4084  0.6172  1.0973
 9988TIP3    H251380   1.714   4.557   3.188  0.0439  0.5489  1.8716
 9989TIP3   OH251381   4.385   4.254   0.959 -0.1682 -0.3497  0.0637
 9989TIP3    H151382   4.386   4.259   0.863 -1.5449 -0.3857  0.0221
 9989TIP3    H251383   4.411   4.164   0.979 -1.5363 -0.8719 -0.3759
 9990TIP3   OH251384   4.710   4.894   3.555 -0.1778 -0.0158  0.2620
 9990TIP3    H151385   4.754   4.815   3.524  0.2155  0.7372 -1.1906
 9990TIP3    H251386   4.781   4.951   3.584 -0.2471  0.6876 -0.8682
 9991TIP3   OH251387   3.101   2.667  15.894 -0.0016  0.2287 -0.0686
 9991TIP3    H151388   3.182   2.657  15.845  2.3429  0.2719  3.4609
 9991TIP3    H251389   3.065   2.578  15.899 -0.4786  0.2727 -2.0018
 9992TIP3   OH251390   1.820   5.979   3.748 -0.3167 -0.2409  0.2810
 9992TIP3    H151391   1.888   5.915   3.770  0.3963  0.6252  0.6907
 9992TIP3    H251392   1.825   5.986   3.652  2.0651  1.7289  0.4275
 9993TIP3   OH251393   5.994   0.146  15.994  0.5832  0.3387  0.4068
 9993TIP3    H151394   5.956   0.065  15.962 -0.5854 -0.1878  2.8931
 9993TIP3    H251395   6.002   0.201  15.916 -0.7133 -1.3175 -0.9812
 9994TIP3   OH251396   3.813   5.110  14.197  0.0046 -0.1967 -0.1458
 9994TIP3    H151397   3.852   5.191  14.164 -1.0806 -0.3735 -2.0358
 9994TIP3    H251398   3.881   5.044  14.184  0.5910  0.2421  0.6179
 9995TIP3   OH251399   5.400   1.472  13.120  0.2853  0.0481  0.1551
 9995TIP3    H151400   5.365   1.499  13.035  1.2034  1.7290  0.2595
 9995TIP3    H251401   5.487   1.511  13.124  1.0191 -1.5818  1.1109
 9996TIP3   OH251402   5.795   5.261  12.589  0.0849  0.9238  0.1867
 9996TIP3    H151403   5.867   5.236  12.531 -0.9523 -0.1039 -0.6973
 9996TIP3    H251404   5.741   5.320  12.536 -2.6826 -2.5618 -1.2162
 9997TIP3   OH251405   3.903   5.781  13.680  0.1767 -0.4084 -0.0629
 9997TIP3    H151406   3.972   5.741  13.732  0.9062  2.3688  1.3058
 9997TIP3    H251407   3.858   5.840  13.741 -0.6627  1.0155 -1.9604
 9998TIP3   OH251408   4.511   2.351   3.927  0.2516 -0.0177 -0.0990
 9998TIP3    H151409   4.587   2.373   3.980  0.6763 -1.5364 -0.0251
 9998TIP3    H251410   4.496   2.258   3.944 -1.2114  0.0848 -0.6360
 9999TIP3   OH251411   5.806   5.121   0.401  0.2665 -0.4999  0.0384
 9999TIP3    H151412   5.712   5.142   0.400  0.3372 -0.1653  0.3018
 9999TIP3    H251413   5.820   5.079   0.486  0.4446 -0.1350  0.1897
10000TIP3   OH251414   0.177   0.321  11.582  0.6591 -0.1764 -0.0444
10000TIP3    H151415   0.227   0.275  11.515  0.3471  0.6399 -0.8429
10000TIP3    H251416   0.234   0.319  11.659 -0.1487 -3.7731  0.6776
10001TIP3   OH251417   5.978   5.808   5.423 -0.0952  0.0020  0.6430
10001TIP3    H151418   5.927   5.728   5.437  0.7052 -0.4926  0.7442
10001TIP3    H251419   5.912   5.875   5.401 -0.6817 -0.9188 -0.5152
10002TIP3   OH251420   6.214   0.217  16.620 -0.0915 -0.1892 -0.8065
10002TIP3    H151421   6.294   0.165  16.621  0.2900  0.3126 -2.1525
10002TIP3    H251422   6.150   0.164  16.668  0.4833 -1.5571 -1.4796
10003TIP3   OH251423   5.920   0.308   2.613 -0.0764 -0.3851 -0.1991
10003TIP3    H151424   5.902   0.395   2.649  0.2689  0.0039 -0.9456
10003TIP3    H251425   5.840   0.284   2.568 -0.1553 -0.4341 -0.0338
10004TIP3   OH251426   2.122   0.666  13.152 -0.1957 -0.0134  0.5512
10004TIP3    H151427   2.158   0.654  13.240 -0.9733 -0.2503  0.8462
10004TIP3    H251428   2.043   0.613  13.151  0.5225 -1.1215 -0.7572
10005TIP3   OH251429   0.872   5.394   1.881 -0.6350  0.2834 -0.4039
10005TIP3    H151430   0.869   5.396   1.977  0.9647 -1.5229 -0.2482
10005TIP3    H251431   0.784   5.417   1.853 -0.9602  1.5214  1.4658
10006TIP3   OH251432   6.113   4.475   0.129  0.5766  0.6624  0.6179
10006TIP3    H151433   6.085   4.556   0.087 -1.4936 -0.0089  0.5970
10006TIP3    H251434   6.081   4.405   0.072 -2.0263 -0.2632  2.9980
10007TIP3   OH251435   0.618   2.559  12.772  0.8062 -0.0075  0.0902
10007TIP3    H151436   0.526   2.538  12.790  0.9446 -0.1285  0.6851
10007TIP3    H251437   0.614   2.634  12.712  0.3161 -1.1521 -1.3684
10008TIP3   OH251438   4.558   1.159   6.419  0.3834 -0.4140 -0.2775
10008TIP3    H151439   4.599   1.165   6.333 -2.4948  0.0427 -1.7063
10008TIP3    H251440   4.466   1.178   6.404 -0.2103 -0.1194  2.9599
10009TIP3   OH251441   5.175   2.076  14.512  0.6863 -0.0835  0.2063
10009TIP3    H151442   5.225   2.018  14.454 -0.0463 -0.0215 -0.5160
10009TIP3    H251443   5.126   2.133  14.452  0.4131  0.4298  0.8999
10010TIP3   OH251444   0.844   1.295  14.088 -0.1715  0.2787  0.0619
10010TIP3    H151445   0.926   1.263  14.124  1.6766  0.9849 -3.1806
10010TIP3    H251446   0.781   1.226  14.108  2.2672 -2.5733 -1.3653
10011TIP3   OH251447   2.171   1.904  15.812 -1.1406 -0.5261  0.5445
10011TIP3    H151448   2.192   1.995  15.832  0.3533 -0.8247  0.4504
10011TIP3    H251449   2.076   1.899  15.822 -1.1042  0.6927  1.9387
10012TIP3   OH251450   6.326   1.000   2.841 -0.3233  0.6992 -0.4507
10012TIP3    H151451   6.303   0.932   2.777  2.3726 -2.4126  1.5745
10012TIP3    H251452   6.273   0.979   2.918 -0.8156  2.1180 -0.3792
10013TIP3   OH251453   3.886   4.726   2.570  0.2504  0.0375  0.0135
10013TIP3    H151454   3.828   4.800   2.555  1.7324  1.7969  2.2897
10013TIP3    H251455   3.830   4.649   2.561 -1.9653  1.5448  0.2528
10014TIP3   OH251456   4.375   0.932   3.044 -0.2074 -0.5962  0.1931
10014TIP3    H151457   4.337   0.865   2.988 -2.6840  0.0053  1.0169
10014TIP3    H251458   4.327   0.925   3.127 -0.1853  1.7934  0.4989
10015TIP3   OH251459   5.287   2.043  16.099  0.2037  0.0694  0.0785
10015TIP3    H151460   5.381   2.041  16.118  0.3856  1.3725 -0.5921
10015TIP3    H251461   5.253   2.112  16.156 -0.0884  0.5853 -0.6983
10016TIP3   OH251462   2.116   4.226  15.768  0.0029  1.1727 -0.1216
10016TIP3    H151463   2.167   4.170  15.826  0.5547  1.4421 -0.3349
10016TIP3    H251464   2.025   4.202  15.784  0.2666 -0.9072 -1.3452
10017TIP3   OH251465   2.963   1.532  13.543 -0.1998  0.0671  0.2746
10017TIP3    H151466   3.045   1.484  13.554 -0.1629  0.2137  0.6874
10017TIP3    H251467   2.981   1.619  13.580 -0.4684  0.1770  0.1488
10018TIP3   OH251468   5.791   5.421  16.672 -0.2714  0.3280  0.0286
10018TIP3    H151469   5.858   5.383  16.615 -0.6124  2.1822 -1.6900
10018TIP3    H251470   5.710   5.415  16.623 -1.1503 -0.5036  1.4866
10019TIP3   OH251471   1.879   2.926   1.908  0.5016  0.3250  0.3731
10019TIP3    H151472   1.822   2.973   1.968  1.3355  0.6307  0.9434
10019TIP3    H251473   1.905   2.847   1.956  0.3849  0.0782  0.0344
10020TIP3   OH251474   0.447   2.098  13.511 -0.1399  0.2274 -0.0884
10020TIP3    H151475   0.516   2.048  13.467 -0.3631 -2.0745  1.9659
10020TIP3    H251476   0.369   2.084  13.457 -0.1027 -1.4024  0.2272
10021TIP3   OH251477   4.142   3.392  11.809 -0.5516  0.1527  0.6655
10021TIP3    H151478   4.226   3.426  11.778 -0.8446  0.9776  0.7623
10021TIP3    H251479   4.086   3.392  11.731 -0.5047 -0.2899  0.6259
10022TIP3   OH251480   2.062   3.303   3.501  0.1125 -0.0532  0.3084
10022TIP3    H151481   2.121   3.338   3.568  0.4393  1.1338 -0.5688
10022TIP3    H251482   2.003   3.377   3.481 -0.6058 -0.7004 -0.0205
10023TIP3   OH251483   0.715   6.669  15.047  0.2827 -0.1111 -0.0631
10023TIP3    H151484   0.696   6.588  14.998  0.7514  0.4589 -1.2177
10023TIP3    H251485   0.786   6.710  14.998 -0.4533  1.3686  0.0811
10024TIP3   OH251486   3.718   6.306  14.663 -0.1286  0.2756 -0.2807
10024TIP3    H151487   3.668   6.232  14.628 -0.8635  0.9826 -0.7564
10024TIP3    H251488   3.809   6.286  14.641 -0.3095 -0.5438 -0.3049
10025TIP3   OH251489   0.899   2.608   3.117  0.4892 -0.8761 -0.0115
10025TIP3    H151490   0.977   2.607   3.172 -0.5559 -0.4893  1.5381
10025TIP3    H251491   0.858   2.692   3.134  0.4512 -0.4698 -1.9038
10026TIP3   OH251492   2.753   2.504  15.502 -0.4293 -0.1202 -0.2014
10026TIP3    H151493   2.763   2.500  15.407 -0.4028 -1.3823 -0.1614
10026TIP3    H251494   2.658   2.504  15.517 -0.4395  0.5770 -0.2337
10027TIP3   OH251495   5.577   0.051  13.353  0.4646 -0.2338 -1.0165
10027TIP3    H151496   5.638  -0.017  13.325  0.8577  0.3957 -1.7017
10027TIP3    H251497   5.566   0.036  13.447  1.3070 -0.6304 -0.9744
10028TIP3   OH251498   2.727   3.869   2.115 -0.1127  0.3848 -0.2608
10028TIP3    H151499   2.803   3.815   2.092 -1.0945 -0.2825 -2.0950
10028TIP3    H251500   2.657   3.806   2.130 -0.2720  0.9731  1.8353
10029TIP3   OH251501   1.702   1.781  12.242 -0.3553  0.4607  0.1381
10029TIP3    H151502   1.683   1.869  12.274 -1.1230  1.1737 -2.0934
10029TIP3    H251503   1.747   1.796  12.158 -2.9452 -1.1577 -1.6990
10030TIP3   OH251504   3.716   5.404  14.528  0.2323 -0.1556  0.3841
10030TIP3    H151505   3.636   5.454  14.512 -0.1583 -0.3783  1.4981
10030TIP3    H251506   3.786   5.455  14.487 -0.4382  0.1801 -0.3668
10031TIP3   OH251507   4.689   1.091  11.233 -0.0275 -0.0896  0.1865
10031TIP3    H151508   4.707   1.014  11.287  0.3012  0.9023  1.5251
10031TIP3    H251509   4.750   1.084  11.160  0.5810 -0.6687  0.7397
10032TIP3   OH251510   3.733   1.456   2.444  0.5428  0.1781  0.3752
10032TIP3    H151511   3.821   1.468   2.408  0.3521 -0.2546 -0.2545
10032TIP3    H251512   3.689   1.540   2.429 -0.2615 -0.6408 -2.5165
10033TIP3   OH251513   1.933   2.235   1.940  0.7336 -0.1887 -0.3823
10033TIP3    H151514   1.858   2.260   1.994 -0.4383 -0.3890 -1.8406
10033TIP3    H251515   1.921   2.284   1.858  1.2081 -1.5832 -1.3187
10034TIP3   OH251516   3.522   3.640  14.979 -0.2516  0.3066 -0.7877
10034TIP3    H151517   3.586   3.640  15.050  0.3298  2.8453 -1.2035
10034TIP3    H251518   3.566   3.593  14.908 -0.2546 -0.9368 -0.0083
10035TIP3   OH251519   4.246   4.986  17.088  0.3617 -0.2281 -0.3243
10035TIP3    H151520   4.171   5.000  17.030 -0.6309  0.8741  1.1403
10035TIP3    H251521   4.292   4.911  17.052 -2.5216 -2.1689 -0.2063
10036TIP3   OH251522   2.597   1.533  16.794  0.2990 -0.4015  0.5673
10036TIP3    H151523   2.552   1.555  16.713 -0.5664  0.1083  1.1664
10036TIP3    H251524   2.684   1.506  16.767  0.3536  0.7249 -0.4516
10037TIP3   OH251525   0.173   2.863  15.048  0.6361 -0.0725 -0.3261
10037TIP3    H151526   0.198   2.882  14.957  0.2783 -0.0162 -0.4161
10037TIP3    H251527   0.140   2.946  15.081 -0.4394 -0.3945 -0.5540
10038TIP3   OH251528   6.638   5.081   1.408 -0.3469 -0.3351  0.0060
10038TIP3    H151529   6.716   5.039   1.373  0.2623  0.5627  0.2398
10038TIP3    H251530   6.585   5.102   1.331  1.4851  2.6348 -0.6240
10039TIP3   OH251531   6.538   3.730  15.159 -0.1912 -0.1421  0.2030
10039TIP3    H151532   6.530   3.792  15.087  1.3207  0.6710  0.6949
10039TIP3    H251533   6.627   3.694  15.151 -0.2120 -0.4910  1.2938
10040TIP3   OH251534   2.336   0.881   5.534 -0.1761  0.3458 -0.2401
10040TIP3    H151535   2.276   0.943   5.492  0.2048 -0.3727 -1.9373
10040TIP3    H251536   2.308   0.878   5.625 -0.2219  2.9867 -0.0997
10041TIP3   OH251537   3.515   1.682   4.394 -0.1882 -0.2242 -0.4439
10041TIP3    H151538   3.522   1.750   4.461 -1.1572 -1.3353  0.8407
10041TIP3    H251539   3.461   1.721   4.326 -0.1529  0.5330 -0.0485
10042TIP3   OH251540   3.786   3.462  16.147 -0.9528  0.1297  0.1391
10042TIP3    H151541   3.778   3.428  16.058  1.4206 -1.2674  0.3638
10042TIP3    H251542   3.804   3.556  16.135 -1.4555  0.1182 -0.8085
10043TIP3   OH251543   0.173   4.824   1.384  0.5390 -0.3474  0.6434
10043TIP3    H151544   0.105   4.779   1.334 -1.3138 -0.1936  2.8744
10043TIP3    H251545   0.253   4.776   1.364 -0.4013 -1.2743 -1.1577
10044TIP3   OH251546   4.353   5.263   6.696 -0.1340  0.0377 -0.6308
10044TIP3    H151547   4.398   5.233   6.617 -0.7664  0.1533 -1.0370
10044TIP3    H251548   4.400   5.343   6.721  1.2726 -1.0079  0.2042
10045TIP3   OH251549   1.713   0.093  14.210 -0.1005  0.3006  0.6482
10045TIP3    H151550   1.667   0.067  14.290 -0.6958 -1.1455 -0.1293
10045TIP3    H251551   1.785   0.031  14.202 -0.5019 -0.0599 -0.3285
10046TIP3   OH251552   1.277   6.591   6.540 -0.2437  0.3379  0.2842
10046TIP3    H151553   1.268   6.558   6.629 -0.6607 -0.8470 -0.1615
10046TIP3    H251554   1.371   6.605   6.528 -0.2086  0.7074  0.9708
10047TIP3   OH251555   3.398   5.649  16.072  0.3327 -0.1656  0.4133
10047TIP3    H151556   3.408   5.736  16.111 -0.0181 -0.0457  0.2374
10047TIP3    H251557   3.482   5.633  16.029  0.0006  0.5980 -0.5743
10048TIP3   OH251558   1.365   6.540   2.397 -0.2032  0.5726  0.3731
10048TIP3    H151559   1.300   6.497   2.341  0.4802 -0.1991  0.1619
10048TIP3    H251560   1.316   6.564   2.476 -0.7036 -0.2131  0.3189
10049TIP3   OH251561   1.838   6.208  15.124  0.1973 -1.1654 -0.6799
10049TIP3    H151562   1.804   6.201  15.214  0.1916 -0.1528 -0.5899
10049TIP3    H251563   1.932   6.219  15.135  0.4582 -2.9242 -0.8906
10050TIP3   OH251564   1.016   1.192   3.615  0.5406  0.8801 -0.5841
10050TIP3    H151565   0.929   1.192   3.576  0.4510  3.5646 -0.5581
10050TIP3    H251566   1.073   1.156   3.546 -0.8092 -3.7820  0.4036
10051TIP3   OH251567   0.011   1.119  12.739  0.1640 -0.2938  0.9317
10051TIP3    H151568   0.069   1.193  12.724  0.6297 -0.4971  1.6983
10051TIP3    H251569  -0.029   1.102  12.654  2.5437 -1.2926 -0.0742
10052TIP3   OH251570   0.045   1.734   4.500  0.0012 -0.1430  0.1342
10052TIP3    H151571  -0.032   1.717   4.554 -0.1878  2.0263  0.6266
10052TIP3    H251572   0.061   1.652   4.454 -1.1834 -1.3635  1.7973
10053TIP3   OH251573   5.073   0.505  12.434 -0.0706 -0.8843 -0.1014
10053TIP3    H151574   5.109   0.589  12.462 -1.2880 -0.4096  0.1173
10053TIP3    H251575   4.978   0.514  12.447 -0.0900 -3.0331  1.9891
10054TIP3   OH251576   1.724   6.415  13.732  0.5750 -0.1250 -0.0871
10054TIP3    H151577   1.743   6.322  13.738  0.7165 -0.3209 -2.5021
10054TIP3    H251578   1.630   6.419  13.711  0.5564  0.2733  0.0554
10055TIP3   OH251579   1.922   3.541  12.410  0.0642 -0.3664  0.5377
10055TIP3    H151580   1.909   3.575  12.499  0.2348  0.6926  0.1801
10055TIP3    H251581   1.837   3.553  12.367  0.7993  2.1957 -0.3945
10056TIP3   OH251582   4.796   2.588  11.152 -0.4722 -0.1158  0.0875
10056TIP3    H151583   4.814   2.520  11.087 -0.3804 -0.5045  0.5160
10056TIP3    H251584   4.875   2.589  11.207  0.4758  1.8238 -1.1880
10057TIP3   OH251585   0.563   3.120  12.259 -0.4436 -0.1383 -0.4118
10057TIP3    H151586   0.607   3.188  12.209 -2.4869  1.4432 -0.1953
10057TIP3    H251587   0.558   3.155  12.348 -0.8763 -0.8918 -0.1292
10058TIP3   OH251588   4.516   2.138  17.018  0.0488  0.4989 -0.1914
10058TIP3    H151589   4.485   2.170  16.933  0.1921 -0.5654 -0.6632
10058TIP3    H251590   4.457   2.066  17.040  1.5498 -0.9244 -0.6419
10059TIP3   OH251591   1.357   2.368  10.626 -0.2293 -0.0249 -0.2319
10059TIP3    H151592   1.263   2.383  10.624 -0.1285  0.8760  0.8648
10059TIP3    H251593   1.395   2.447  10.587  0.0712 -0.3306 -0.5588
10060TIP3   OH251594   1.809   0.258   4.069  0.0358 -0.7295 -0.0047
10060TIP3    H151595   1.853   0.284   4.150  0.6246 -1.9377  0.0850
10060TIP3    H251596   1.764   0.176   4.091 -0.8514 -0.4067 -0.5654
10061TIP3   OH251597   2.482   6.731  11.590  0.1569  0.3680 -0.1406
10061TIP3    H151598   2.449   6.810  11.547 -0.4395  0.9018  1.2396
10061TIP3    H251599   2.418   6.712  11.657  0.2676 -1.3590 -0.4866
10062TIP3   OH251600   0.886   1.317   6.047 -0.4503 -0.1660  0.2011
10062TIP3    H151601   0.891   1.236   6.098 -0.2762  0.2617  0.8751
10062TIP3    H251602   0.835   1.377   6.102  1.7247  1.0958  0.9665
10063TIP3   OH251603   5.768   4.884  15.082  0.1207  0.3735 -0.5692
10063TIP3    H151604   5.699   4.877  15.016  2.5216 -0.3836 -3.1977
10063TIP3    H251605   5.811   4.798  15.082  1.6583  1.0898  0.2977
10064TIP3   OH251606   6.269   6.156   5.854  0.1387 -0.0344  0.4845
10064TIP3    H151607   6.344   6.169   5.796  0.4128 -2.9884  0.0145
10064TIP3    H251608   6.193   6.174   5.799  0.4425 -0.1561  0.0199
10065TIP3   OH251609   2.042   3.709  13.545  1.2153  0.3141  0.1578
10065TIP3    H151610   1.993   3.740  13.468  0.2752  1.0350  1.0263
10065TIP3    H251611   2.103   3.644  13.509 -0.9480 -1.2839 -0.8565
10066TIP3   OH251612   0.271   0.942  15.992 -0.4113 -0.5780 -0.2925
10066TIP3    H151613   0.260   0.963  15.899 -1.9049 -2.3900 -0.5903
10066TIP3    H251614   0.202   0.992  16.036  0.9112  1.0526  0.0184
10067TIP3   OH251615   4.202   0.812  13.486 -0.4490 -0.4096  0.5093
10067TIP3    H151616   4.256   0.821  13.565 -1.6091 -1.1320  1.4291
10067TIP3    H251617   4.245   0.744  13.435 -1.4216 -2.3907  2.1414
10068TIP3   OH251618   3.099   1.963  11.695 -0.4775  0.2632 -0.7786
10068TIP3    H151619   3.132   1.876  11.671  0.0558  0.9382 -2.7234
10068TIP3    H251620   3.062   1.997  11.614 -1.1311  1.6592  0.0774
10069TIP3   OH251621   3.994   4.313   3.766 -0.3841 -0.0413  0.3856
10069TIP3    H151622   4.006   4.348   3.854  0.0024  0.3896  0.1684
10069TIP3    H251623   4.079   4.324   3.724 -0.2317 -1.3398  0.3332
10070TIP3   OH251624   3.496   2.890   2.336 -0.1930 -0.0366 -0.8632
10070TIP3    H151625   3.571   2.937   2.372  0.2899  0.3594 -2.3077
10070TIP3    H251626   3.505   2.801   2.370  0.6959  0.1162 -0.6633
10071TIP3   OH251627   2.924   3.354   2.965  0.5758 -0.1398 -0.4798
10071TIP3    H151628   2.977   3.287   3.008 -1.9749 -1.2604  1.1562
10071TIP3    H251629   2.851   3.370   3.025 -0.9905  1.2876 -2.5947
10072TIP3   OH251630   2.772   5.033   2.285 -0.0822  0.2546 -0.2041
10072TIP3    H151631   2.821   4.951   2.295  0.6244  0.4199 -1.9189
10072TIP3    H251632   2.805   5.089   2.356  1.0364 -0.2136 -0.3234
10073TIP3   OH251633   4.511   5.170   1.205 -0.9410 -0.2367 -0.1870
10073TIP3    H151634   4.422   5.160   1.239 -1.3985  1.2602 -0.8278
10073TIP3    H251635   4.500   5.226   1.127  0.6967  1.0634  0.4568
10074TIP3   OH251636   4.263   3.952  13.083  0.2394 -0.5012 -0.2014
10074TIP3    H151637   4.319   3.985  13.153  1.2579 -1.2642 -0.6325
10074TIP3    H251638   4.275   4.014  13.011 -0.5327  0.0840  0.1567
10075TIP3   OH251639   2.293   4.674   0.998  0.5300  0.4549 -0.0337
10075TIP3    H151640   2.371   4.638   0.954  0.7904  1.9137 -0.8477
10075TIP3    H251641   2.309   4.769   1.001 -0.8197  0.6864  0.5845
10076TIP3   OH251642   4.874   3.350   4.632  0.3837  0.7790 -0.3450
10076TIP3    H151643   4.840   3.440   4.632  1.4465  1.2116  0.5173
10076TIP3    H251644   4.864   3.320   4.542  0.9967  2.1649 -0.9091
10077TIP3   OH251645   0.164   2.792   0.869 -0.6667  0.5583 -0.0433
10077TIP3    H151646   0.252   2.811   0.837 -0.1020  0.6329  1.4701
10077TIP3    H251647   0.165   2.698   0.888 -1.5898  0.1226 -1.9379
10078TIP3   OH251648   1.916   1.529   2.848  0.3542 -0.0368 -0.1846
10078TIP3    H151649   1.896   1.469   2.776 -0.2035  0.7505 -0.7062
10078TIP3    H251650   1.980   1.482   2.901 -0.6259 -1.4111 -0.1493
10079TIP3   OH251651   6.288   3.259   4.024 -0.3585 -0.3108 -0.4432
10079TIP3    H151652   6.275   3.271   3.930  0.2933  0.4982 -0.4383
10079TIP3    H251653   6.288   3.348   4.060 -0.8462 -0.6242  0.3603
10080TIP3   OH251654   0.940   6.457   5.350 -0.0430 -0.1431 -0.1589
10080TIP3    H151655   1.004   6.501   5.406 -0.0754  0.2094 -0.3999
10080TIP3    H251656   0.963   6.484   5.261  0.0733 -0.7809 -0.3286
10081TIP3   OH251657   4.517   0.693  16.753 -0.7687 -0.4045 -0.4882
10081TIP3    H151658   4.571   0.733  16.684 -1.4956 -1.6285 -1.8033
10081TIP3    H251659   4.484   0.767  16.803 -0.1423  0.5121 -1.3886
10082TIP3   OH251660   1.284   4.549   4.161  0.0530 -0.2188 -0.1999
10082TIP3    H151661   1.357   4.555   4.098 -0.5396 -0.7003 -0.9422
10082TIP3    H251662   1.313   4.603   4.235  1.1591 -0.3843 -0.4855
10083TIP3   OH251663   3.808   2.102   0.728 -0.1579 -0.7816  0.5637
10083TIP3    H151664   3.766   2.181   0.696 -1.7777 -1.5712  0.6497
10083TIP3    H251665   3.901   2.124   0.733 -0.7246  1.5761  1.9787
10084TIP3   OH251666   2.062   5.151   1.413  0.1857  0.2371 -0.6144
10084TIP3    H151667   2.010   5.210   1.359  0.0022 -0.9466 -1.8149
10084TIP3    H251668   2.126   5.114   1.352 -1.0000 -2.3119 -0.4703
10085TIP3   OH251669   2.092   4.087   3.135  0.4749  0.3479  0.1161
10085TIP3    H151670   2.121   4.002   3.166  0.7661 -0.0869 -1.2593
10085TIP3    H251671   2.098   4.144   3.211 -2.4685 -1.4611  1.8987
10086TIP3   OH251672   0.006   3.301  11.977  0.4973  0.0607  0.2722
10086TIP3    H151673  -0.077   3.253  11.975  0.2962  0.4091 -0.5236
10086TIP3    H251674   0.046   3.277  12.060 -0.6270  0.2674  0.8946
10087TIP3   OH251675   3.662   3.268   3.068  0.4432  0.1522  0.3103
10087TIP3    H151676   3.613   3.188   3.052  0.8889 -0.0319 -0.1466
10087TIP3    H251677   3.707   3.252   3.151 -0.3289  0.3565  0.7776
10088TIP3   OH251678   3.885   1.995   3.630 -0.5796 -0.2749  0.1692
10088TIP3    H151679   3.799   1.956   3.644 -1.3443  1.0858 -0.4519
10088TIP3    H251680   3.920   1.951   3.553 -1.5009  0.3414 -0.6258
10089TIP3   OH251681   2.895   3.409  13.745  0.3068 -0.5018  0.4665
10089TIP3    H151682   2.967   3.405  13.682  1.3001 -0.2363  1.5259
10089TIP3    H251683   2.849   3.490  13.723  0.7428 -0.3271  0.1722
10090TIP3   OH251684   0.181   5.031   0.816  0.1758 -0.8087  0.3701
10090TIP3    H151685   0.253   4.970   0.803  1.3820  0.3063  1.5098
10090TIP3    H251686   0.142   5.005   0.900  1.8677  0.9971  1.8303
10091TIP3   OH251687   6.430   1.672   3.146  0.6256  0.7790  0.3620
10091TIP3    H151688   6.516   1.711   3.156  0.0589  2.0049  0.6213
10091TIP3    H251689   6.391   1.676   3.233  1.1271 -1.9071  0.8195
10092TIP3   OH251690   2.392   4.210   0.127  0.0358  0.6358  0.3601
10092TIP3    H151691   2.354   4.191   0.213 -0.7113 -1.0588 -0.3032
10092TIP3    H251692   2.336   4.279   0.091 -0.4418  0.4276  0.6956
10093TIP3   OH251693   4.576   6.741   4.192  0.2371 -0.2092  0.3379
10093TIP3    H151694   4.615   6.682   4.128 -1.2438 -0.9441  0.0683
10093TIP3    H251695   4.607   6.828   4.167  3.4878 -0.8808  1.4779
10094TIP3   OH251696   1.360   5.791   2.912  0.7928 -0.0922  0.1145
10094TIP3    H151697   1.373   5.803   2.817  0.5423  0.4341  0.1434
10094TIP3    H251698   1.345   5.697   2.922  3.2528 -0.5568 -0.0730
10095TIP3   OH251699   0.829   1.554   5.731 -0.1614  0.4384  0.0312
10095TIP3    H151700   0.841   1.461   5.750 -2.7856  0.2611  1.1481
10095TIP3    H251701   0.846   1.598   5.815 -0.2477  0.8338 -0.1560
10096TIP3   OH251702   0.815   1.895  15.623  0.2410  0.2004  0.1154
10096TIP3    H151703   0.729   1.935  15.615 -0.5318 -1.6923 -3.3425
10096TIP3    H251704   0.868   1.938  15.555  0.4354 -1.9355 -1.2014
10097TIP3   OH251705   0.265   1.739   2.264  0.0352  0.4366 -0.1139
10097TIP3    H151706   0.183   1.690   2.250  0.5346 -0.0562 -1.5390
10097TIP3    H251707   0.236   1.830   2.276 -0.8599 -0.0669  1.9198
10098TIP3   OH251708   2.353   2.357   3.029 -0.1430 -0.0707  0.3526
10098TIP3    H151709   2.317   2.279   2.988 -3.2654  1.2276  0.3714
10098TIP3    H251710   2.356   2.335   3.122 -1.1701 -0.1530  0.3815
10099TIP3   OH251711   4.617   3.241   2.826 -0.0059  0.0786  0.0014
10099TIP3    H151712   4.664   3.284   2.897 -0.3190 -0.0732  0.3018
10099TIP3    H251713   4.685   3.197   2.775  0.0217 -1.5356  1.3849
10100TIP3   OH251714   0.433   5.212  12.260  0.1881  0.1046  0.3599
10100TIP3    H151715   0.423   5.184  12.169 -1.8769  0.2711  0.4915
10100TIP3    H251716   0.410   5.305  12.259 -2.3933 -0.4356  1.3827
10101TIP3   OH251717   5.540   6.561  10.997  0.3157 -0.5523 -0.0854
10101TIP3    H151718   5.499   6.504  10.932  0.7832  0.6652 -1.5330
10101TIP3    H251719   5.476   6.568  11.067 -0.0241 -2.2904 -0.1754
10102TIP3   OH251720   5.583   5.102  16.801  0.8716  0.0214 -0.2611
10102TIP3    H151721   5.532   5.181  16.782  0.3428  0.2899  2.0032
10102TIP3    H251722   5.674   5.131  16.793  0.6812  0.8370  0.3278
10103TIP3   OH251723   3.630   1.946  15.888 -0.2869 -0.1595 -0.3756
10103TIP3    H151724   3.630   1.854  15.862  2.0375 -0.1050 -0.7689
10103TIP3    H251725   3.722   1.966  15.903 -0.2350  2.9674 -3.5089
10104TIP3   OH251726   2.772   4.654   2.602  0.0824  0.0635  0.3464
10104TIP3    H151727   2.693   4.655   2.547 -0.1118 -0.4842  0.6140
10104TIP3    H251728   2.832   4.596   2.555 -0.1464 -0.5418  0.7941
10105TIP3   OH251729   5.034   4.172   4.570 -0.2890 -0.0728  0.3381
10105TIP3    H151730   5.036   4.211   4.483  1.0993 -2.3480 -0.7691
10105TIP3    H251731   5.009   4.243   4.629 -1.7283  1.4248 -1.9451
10106TIP3   OH251732   0.796   6.447   1.189  0.1669  0.1168  0.3056
10106TIP3    H151733   0.765   6.537   1.181 -1.0432 -0.3195 -0.1391
10106TIP3    H251734   0.887   6.450   1.159 -0.3709  0.9009 -1.3544
10107TIP3   OH251735   5.551   2.472  15.897  0.2362 -0.5637 -0.2913
10107TIP3    H151736   5.523   2.381  15.889  1.7065 -0.9398 -1.6498
10107TIP3    H251737   5.642   2.467  15.926 -0.5496  0.5969  2.8912
10108TIP3   OH251738   4.656   2.617  10.522  0.1829 -0.3547  0.0326
10108TIP3    H151739   4.749   2.607  10.539  0.1868 -1.8548 -0.6593
10108TIP3    H251740   4.627   2.529  10.496 -1.5472 -0.0545  0.8099
10109TIP3   OH251741   2.785   4.144  14.102  0.5692  0.4646 -0.1043
10109TIP3    H151742   2.748   4.112  14.184 -0.5501  0.4936 -0.5863
10109TIP3    H251743   2.800   4.065  14.049 -0.3559  0.5667 -0.5369
10110TIP3   OH251744   2.750   2.724   0.965  0.3726  0.0676 -0.4043
10110TIP3    H151745   2.699   2.732   0.884 -0.2181  2.1557  0.1083
10110TIP3    H251746   2.687   2.693   1.030  0.5610 -0.4483 -0.4600
10111TIP3   OH251747   1.165   0.227  12.399 -0.3344  0.1478  0.1484
10111TIP3    H151748   1.162   0.322  12.382  0.0064  0.1185 -0.0725
10111TIP3    H251749   1.075   0.205  12.423 -0.2893  0.6400  0.8097
10112TIP3   OH251750   5.125   1.318   3.523  0.0501 -0.2115 -0.8905
10112TIP3    H151751   5.104   1.332   3.615 -0.4134  0.2537 -1.0620
10112TIP3    H251752   5.211   1.275   3.524  0.7736  1.1897 -0.2913
10113TIP3   OH251753   3.014   0.107   2.667 -0.2651  0.2242  0.1568
10113TIP3    H151754   2.972   0.026   2.695  1.7399 -0.1927  2.3481
10113TIP3    H251755   2.988   0.171   2.733  2.9906 -0.2726  2.1429
10114TIP3   OH251756   6.212   0.962  16.921  0.1306 -0.6220 -0.4214
10114TIP3    H151757   6.247   0.894  16.863 -1.8409 -0.4294 -1.9393
10114TIP3    H251758   6.146   0.917  16.973  2.1119 -0.8759  2.0622
10115TIP3   OH251759   1.723   2.386   2.100 -0.0911 -0.0596 -0.3512
10115TIP3    H151760   1.630   2.369   2.085  0.1050 -2.6128  0.9468
10115TIP3    H251761   1.732   2.390   2.195  0.9704  1.4666 -0.4719
10116TIP3   OH251762   2.581   3.089  11.256  0.4304 -0.6334 -0.4847
10116TIP3    H151763   2.501   3.066  11.209  1.2258 -1.2742 -1.5632
10116TIP3    H251764   2.574   3.042  11.339 -2.3147  2.6723  1.4543
10117TIP3   OH251765   0.372   1.708  13.330  0.3585 -0.3462 -0.5442
10117TIP3    H151766   0.447   1.765  13.349  0.7966 -1.7352  2.5607
10117TIP3    H251767   0.302   1.741  13.387 -1.3018  0.5618 -2.9623
10118TIP3   OH251768   5.100   4.009  11.520  0.0705 -0.0043 -0.4273
10118TIP3    H151769   5.078   3.958  11.442 -2.8353 -0.0840  0.3499
10118TIP3    H251770   5.076   4.099  11.498 -0.3818  0.0414  0.2246
10119TIP3   OH251771   5.848   1.037  17.199 -0.9853 -0.2120 -0.1633
10119TIP3    H151772   5.881   1.038  17.289 -1.7314 -2.6303  0.1904
10119TIP3    H251773   5.832   1.130  17.179  0.5851  0.5233  1.6347
10120TIP3   OH251774   4.440   3.630   5.343 -0.1458  0.4168  0.3569
10120TIP3    H151775   4.498   3.697   5.306  1.5572 -1.6402 -0.9099
10120TIP3    H251776   4.453   3.638   5.438 -0.2491  2.0700  0.2629
10121TIP3   OH251777   5.877   4.252  16.968 -0.3027 -0.0808  0.1319
10121TIP3    H151778   5.972   4.245  16.956 -0.1928  0.0761  0.8498
10121TIP3    H251779   5.857   4.344  16.947 -0.6801 -0.6663 -2.3837
10122TIP3   OH251780   3.469   3.044   3.067 -0.5257  0.7406 -0.2616
10122TIP3    H151781   3.457   2.950   3.050  3.0246 -0.0144  0.6083
10122TIP3    H251782   3.461   3.052   3.162 -0.5751  1.3122 -0.3131
10123TIP3   OH251783   4.563   1.810   0.522 -0.6896 -0.1204 -0.4645
10123TIP3    H151784   4.499   1.870   0.559  1.3069  0.6172  2.0902
10123TIP3    H251785   4.569   1.739   0.585 -0.5102 -1.2931 -1.7364
10124TIP3   OH251786   1.329   3.196   6.124  0.6737 -0.2801 -0.5149
10124TIP3    H151787   1.309   3.222   6.214  0.3200 -0.1035 -0.6433
10124TIP3    H251788   1.412   3.148   6.131 -0.1767 -1.7419  0.1539
10125TIP3   OH251789   3.413   4.015  14.192 -0.1360  0.0853 -0.4772
10125TIP3    H151790   3.485   3.996  14.132 -0.3976 -1.7986 -0.2393
10125TIP3    H251791   3.335   4.009  14.137 -0.2142  0.8201 -0.4538
10126TIP3   OH251792   5.625   6.593  10.447 -0.2172  0.3265  0.2483
10126TIP3    H151793   5.558   6.620  10.384  1.6878  1.9711 -1.1833
10126TIP3    H251794   5.681   6.670  10.458  0.3132 -0.3291  2.9725
10127TIP3   OH251795   3.361   6.434  16.773  0.1352  0.4762  0.1835
10127TIP3    H151796   3.288   6.403  16.719  0.4311  1.2880 -0.7134
10127TIP3    H251797   3.384   6.519  16.736  2.1086 -0.1307 -0.1139
10128TIP3   OH251798   3.864   0.641  15.257 -0.5005  0.1000  0.5215
10128TIP3    H151799   3.785   0.611  15.212  0.5925  0.1833 -1.5522
10128TIP3    H251800   3.926   0.569  15.249  0.1983  0.6684  0.6593
10129TIP3   OH251801   5.911   0.282   3.211  0.0399  0.8855 -0.3593
10129TIP3    H151802   5.974   0.219   3.244  0.0437  1.7403  1.4203
10129TIP3    H251803   5.891   0.253   3.122  1.9395 -0.1334 -0.5001
10130TIP3   OH251804   1.575   1.815  11.238 -0.1761  0.3456 -0.4147
10130TIP3    H151805   1.615   1.887  11.189 -0.6076  1.4143  0.7439
10130TIP3    H251806   1.500   1.789  11.184  0.4546  0.2123 -1.2405
10131TIP3   OH251807   1.247   0.709  11.166 -0.1634  0.9548  0.2877
10131TIP3    H151808   1.173   0.770  11.164  0.1212  1.3173  0.7019
10131TIP3    H251809   1.324   0.764  11.152  0.0594  0.6266  0.2116
10132TIP3   OH251810   2.117   1.313  17.108 -0.0476 -0.1785 -0.1490
10132TIP3    H151811   2.184   1.319  17.040 -1.3995  0.7630 -1.4451
10132TIP3    H251812   2.167   1.319  17.190  1.4684  0.4397 -1.0605
10133TIP3   OH251813   5.583   0.096  16.431  0.8099  0.3043  0.2688
10133TIP3    H151814   5.614   0.142  16.509  1.8189  0.6240 -0.3047
10133TIP3    H251815   5.625   0.141  16.358 -0.0990 -0.0095 -0.4671
10134TIP3   OH251816   0.255   2.005  12.966 -0.3311 -0.0254 -0.3552
10134TIP3    H151817   0.313   2.056  13.023  2.3378 -0.5299 -2.4231
10134TIP3    H251818   0.268   1.914  12.994 -0.8376 -0.0674 -0.2489
10135TIP3   OH251819   0.964   1.351   4.469  0.1222  0.1763 -0.0264
10135TIP3    H151820   0.907   1.356   4.393  1.3678  1.6241 -0.9231
10135TIP3    H251821   1.044   1.310   4.436  1.4457  2.6403 -0.0613
10136TIP3   OH251822   5.713   2.208  14.296 -0.1469  0.3000 -0.1476
10136TIP3    H151823   5.631   2.164  14.319 -1.0920  0.4018 -2.9530
10136TIP3    H251824   5.686   2.293  14.262  1.4041  1.5884  1.5751
10137TIP3   OH251825   2.829   1.455  14.344 -0.3929  0.3058  0.9020
10137TIP3    H151826   2.843   1.464  14.439 -0.5463  1.6133  0.8215
10137TIP3    H251827   2.736   1.434  14.336 -0.2483 -0.4254  1.0587
10138TIP3   OH251828   5.045   2.535   5.821  0.0871 -0.1699 -0.1382
10138TIP3    H151829   5.133   2.520   5.789 -0.0235  0.0722 -0.5564
10138TIP3    H251830   5.054   2.606   5.885  0.2546 -0.4193  0.1156
10139TIP3   OH251831   0.937   5.778   1.201  0.1391 -0.1254 -0.0001
10139TIP3    H151832   0.989   5.698   1.206  3.1144  1.6896  0.4030
10139TIP3    H251833   0.933   5.799   1.108 -0.5880 -0.6665 -0.0998
10140TIP3   OH251834   6.406   3.779   6.272 -0.0939 -0.2883  0.2876
10140TIP3    H151835   6.470   3.849   6.255  0.2220 -0.8991 -1.1890
10140TIP3    H251836   6.343   3.819   6.331  0.7425  0.8680  0.4440
10141TIP3   OH251837   6.437   5.914   5.873  0.7429 -0.1507 -0.3339
10141TIP3    H151838   6.524   5.951   5.860  0.6659 -0.4959 -2.1171
10141TIP3    H251839   6.376   5.987   5.860  0.7448  0.1903  1.3523
10142TIP3   OH251840   5.199   2.569  17.102  0.0730 -0.0393  0.3590
10142TIP3    H151841   5.192   2.483  17.142  1.0885 -0.4465 -0.3058
10142TIP3    H251842   5.282   2.567  17.054  0.3563  1.4727  0.7259
10143TIP3   OH251843   2.759   3.709   1.721 -0.3804  0.4813 -0.1419
10143TIP3    H151844   2.724   3.661   1.646  2.1385 -1.3715 -0.2455
10143TIP3    H251845   2.797   3.788   1.684  1.8581 -0.9448 -1.1028
10144TIP3   OH251846   0.980   5.536   0.560 -0.2831  0.2316  0.0901
10144TIP3    H151847   0.999   5.468   0.625 -1.2973  0.3026  0.4781
10144TIP3    H251848   1.065   5.574   0.539  0.0866  0.0542  1.2151
10145TIP3   OH251849   0.999   1.454  12.825 -0.0656 -0.4903 -0.0416
10145TIP3    H151850   1.086   1.429  12.796  1.4208  1.7500  2.1300
10145TIP3    H251851   0.955   1.484  12.745  1.1474 -1.5390 -1.1529
10146TIP3   OH251852   2.348   2.326   1.767  0.0824 -0.4606  0.0551
10146TIP3    H151853   2.311   2.276   1.840 -1.2029  0.3676 -0.0020
10146TIP3    H251854   2.442   2.304   1.768  0.8879  2.1467  4.1396
10147TIP3   OH251855   0.958   0.007  15.722  0.2982 -0.3737 -0.4178
10147TIP3    H151856   0.888  -0.051  15.691 -0.0808 -0.0005 -0.2769
10147TIP3    H251857   0.986   0.055  15.645  1.8958 -2.0405 -0.9233
10148TIP3   OH251858   6.770   0.264  13.465  0.0377  0.3627 -0.0720
10148TIP3    H151859   6.702   0.211  13.506 -0.3233  1.9766  1.5686
10148TIP3    H251860   6.828   0.201  13.422 -0.4813 -1.3170  1.5871
10149TIP3   OH251861   3.984   3.406   2.909  0.2806  0.5345  0.2449
10149TIP3    H151862   4.008   3.350   2.983  2.9023  0.0911 -0.8285
10149TIP3    H251863   3.900   3.372   2.879  0.5432 -1.1020  1.2694
10150TIP3   OH251864   0.139   6.780  11.705  0.2032  0.1126 -0.3076
10150TIP3    H151865   0.182   6.855  11.747  0.6617  0.1940 -0.9046
10150TIP3    H251866   0.062   6.762  11.760  0.2410  0.8451 -0.0044
10151TIP3   OH251867   0.292   6.475   1.715 -0.0255  0.5881 -0.4690
10151TIP3    H151868   0.235   6.410   1.756  0.1994  1.8555  2.0536
10151TIP3    H251869   0.232   6.543   1.683 -0.2440 -0.6260 -2.9301
10152TIP3   OH251870   1.311   4.126   2.165  0.2779  0.1607 -0.4235
10152TIP3    H151871   1.230   4.119   2.116 -0.8800  1.9293  1.0753
10152TIP3    H251872   1.365   4.186   2.113  0.8898 -1.4290 -1.6874
10153TIP3   OH251873   4.124   4.247  16.211  0.4294  0.9007  0.6269
10153TIP3    H151874   4.211   4.277  16.185  0.0262  0.3267 -1.5748
10153TIP3    H251875   4.063   4.303  16.162 -0.3833 -0.2543  0.2653
10154TIP3   OH251876   6.446   0.802   4.972 -0.1352 -0.0860  0.0966
10154TIP3    H151877   6.397   0.864   5.026  0.3511 -0.6252  1.1899
10154TIP3    H251878   6.468   0.731   5.032  1.2700 -0.2441 -0.5743
10155TIP3   OH251879   2.407   3.677  15.374 -1.1258 -0.2320 -0.1226
10155TIP3    H151880   2.396   3.690  15.468 -2.2229 -1.3408 -0.0748
10155TIP3    H251881   2.488   3.626  15.366 -0.0862  1.3313  0.0728
10156TIP3   OH251882   4.440   2.194  13.404  0.1877 -0.5788  0.1955
10156TIP3    H151883   4.437   2.286  13.378  1.1624 -0.9408 -1.2652
10156TIP3    H251884   4.529   2.181  13.437  0.6592 -1.4271 -1.3394
10157TIP3   OH251885   4.883   1.628   5.149  0.6073 -0.7234  0.4487
10157TIP3    H151886   4.839   1.547   5.174 -0.8594 -0.0670  0.1098
10157TIP3    H251887   4.852   1.645   5.060 -1.6385  1.8071  1.5722
10158TIP3   OH251888   0.656   3.610   5.551 -0.0050 -0.0738  0.4814
10158TIP3    H151889   0.608   3.562   5.483  0.2416  1.6688 -0.9843
10158TIP3    H251890   0.747   3.584   5.539  0.1121  0.6220 -0.2389
10159TIP3   OH251891   6.032   4.190   0.634  0.3166 -0.4165 -0.1480
10159TIP3    H151892   6.105   4.132   0.615  1.6127  1.0911 -0.0211
10159TIP3    H251893   5.981   4.193   0.553  1.4271 -0.0848 -0.8524
10160TIP3   OH251894   2.565   0.988  15.981  0.2959  0.2085 -0.1953
10160TIP3    H151895   2.548   1.079  15.960 -0.1236 -0.0148 -0.8280
10160TIP3    H251896   2.542   0.939  15.902  0.0449 -0.4940  0.2923
10161TIP3   OH251897   3.178   0.461  13.061  0.5804 -0.0876  0.5472
10161TIP3    H151898   3.096   0.456  13.011  0.2615  2.5546  0.6304
10161TIP3    H251899   3.234   0.394  13.021 -0.9557 -0.6715 -0.7918
10162TIP3   OH251900   5.355   0.420  12.096  0.0903 -0.1676  0.1280
10162TIP3    H151901   5.343   0.329  12.069 -0.5115  0.5036 -2.0737
10162TIP3    H251902   5.351   0.470  12.014  2.8705  1.6362  0.9352
10163TIP3   OH251903   6.144   0.940   1.259  0.5087  0.1324  0.1760
10163TIP3    H151904   6.128   1.032   1.239  2.8692  0.2108 -1.7598
10163TIP3    H251905   6.211   0.941   1.327 -0.2659 -0.1865  0.9633
10164TIP3   OH251906   3.388   6.246  16.350  0.0195  0.3295 -0.4197
10164TIP3    H151907   3.466   6.290  16.383 -0.9072  1.4532  0.3755
10164TIP3    H251908   3.349   6.308  16.288  0.6343 -0.9249 -2.1265
10165TIP3   OH251909   0.660   5.020   4.997 -0.2468 -0.0533  0.2927
10165TIP3    H151910   0.640   5.079   4.925 -0.7364 -0.1880  0.3143
10165TIP3    H251911   0.630   5.067   5.075 -0.5632 -0.2913  0.3174
10166TIP3   OH251912   1.754   1.009  14.164  0.5322 -0.0661  0.4626
10166TIP3    H151913   1.825   1.026  14.226 -0.5440 -0.6025  1.9079
10166TIP3    H251914   1.691   0.958  14.214 -1.1166  0.8288 -0.6184
10167TIP3   OH251915   0.398   4.959   5.748  0.0693 -0.1694  0.2400
10167TIP3    H151916   0.479   5.005   5.770  0.2652 -1.0845  1.5696
10167TIP3    H251917   0.419   4.912   5.667  0.6381  0.1396  0.1976
10168TIP3   OH251918   6.649   2.855  15.082 -0.2728  0.0404 -0.3048
10168TIP3    H151919   6.708   2.827  15.012  0.3265 -1.0020  0.5873
10168TIP3    H251920   6.676   2.945  15.101  0.9774 -0.3859  0.0105
10169TIP3   OH251921   0.311   5.921  17.000 -0.3532 -0.5317 -0.0506
10169TIP3    H151922   0.268   5.918  16.915  0.0685  0.6976 -0.3309
10169TIP3    H251923   0.244   5.951  17.060 -0.2137  0.1989 -0.2591
10170TIP3   OH251924   4.203   5.698  11.011  0.2507 -0.1571  0.1679
10170TIP3    H151925   4.180   5.665  11.098  0.5016  0.8200  0.6144
10170TIP3    H251926   4.297   5.682  11.003  0.7086  1.7987  1.0279
10171TIP3   OH251927   1.562   3.993   1.632  0.5506  0.2613 -0.1142
10171TIP3    H151928   1.480   3.997   1.682  0.1473  1.1469 -0.8161
10171TIP3    H251929   1.591   4.084   1.627 -0.0194  0.3640 -2.4540
10172TIP3   OH251930   6.634   5.225   6.427 -0.2630  0.4511 -0.1675
10172TIP3    H151931   6.722   5.256   6.407 -1.1649  1.9582 -2.2012
10172TIP3    H251932   6.641   5.129   6.425  1.5271  0.5216  0.9351
10173TIP3   OH251933   3.223   6.332   4.309  0.9670  0.3853  0.3709
10173TIP3    H151934   3.266   6.362   4.389 -0.2365  0.5011  0.9933
10173TIP3    H251935   3.224   6.409   4.252  0.7778  0.6560  0.7276
10174TIP3   OH251936   1.013   0.834   3.489 -0.8611 -0.3266  0.0879
10174TIP3    H151937   0.933   0.874   3.525 -0.7660  0.5367 -0.6243
10174TIP3    H251938   1.002   0.840   3.394 -0.1525 -0.6170 -0.0189
10175TIP3   OH251939   4.934   1.039   5.009  0.0938 -0.5648  0.1033
10175TIP3    H151940   4.866   1.033   4.942 -0.1536 -0.4441  0.3428
10175TIP3    H251941   4.962   0.949   5.023  0.0819 -0.5996 -0.0986
10176TIP3   OH251942   0.903   2.177   5.219  0.4036 -0.4476 -0.1787
10176TIP3    H151943   0.879   2.178   5.126  0.1705 -1.4478 -0.1427
10176TIP3    H251944   0.870   2.259   5.253 -0.6724 -0.6441 -0.7068
10177TIP3   OH251945   4.244   2.411   5.240 -0.3162  0.0224  1.0057
10177TIP3    H151946   4.255   2.505   5.252 -1.2458  0.0862  1.3988
10177TIP3    H251947   4.333   2.379   5.220  0.1138  0.8839  1.4863
10178TIP3   OH251948   5.799   2.302  16.004 -0.0260  0.3649 -0.0492
10178TIP3    H151949   5.811   2.313  15.910  0.3514  0.5162  0.0123
10178TIP3    H251950   5.883   2.268  16.035 -0.1974  0.1799  0.2087
10179TIP3   OH251951   1.152   5.484   0.207 -0.4911 -0.3707  0.2103
10179TIP3    H151952   1.095   5.429   0.262  0.2742 -0.5174  0.8680
10179TIP3    H251953   1.144   5.572   0.245 -1.0976 -0.1632 -0.3600
10180TIP3   OH251954   6.669   2.491   6.234  0.3061 -0.5600 -0.2018
10180TIP3    H151955   6.723   2.570   6.240 -2.0826  1.1287  0.2560
10180TIP3    H251956   6.731   2.419   6.248  2.1358  1.3254  2.4376
10181TIP3   OH251957   4.413   0.941   0.881  0.0133 -0.4712 -0.5030
10181TIP3    H151958   4.334   0.993   0.863  0.3089 -0.5778 -2.2809
10181TIP3    H251959   4.381   0.851   0.886 -0.6210 -0.2077  3.3355
10182TIP3   OH251960   1.741   2.763   4.319 -0.2745  0.3315 -0.3246
10182TIP3    H151961   1.758   2.699   4.250  0.8816  0.5278 -0.2405
10182TIP3    H251962   1.646   2.765   4.327 -0.3300 -3.0035  1.2050
10183TIP3   OH251963   3.503   2.168  15.724 -0.2922  0.0505  0.5497
10183TIP3    H151964   3.521   2.075  15.713 -0.2722  0.1681 -0.5015
10183TIP3    H251965   3.579   2.202  15.773  1.1300  0.0402 -1.5269
10184TIP3   OH251966   3.214   1.906  11.951 -0.4199  1.0540  0.1602
10184TIP3    H151967   3.222   1.939  11.861 -1.1713  0.2005 -0.2335
10184TIP3    H251968   3.299   1.925  11.991  0.5762 -0.1431 -1.2789
10185TIP3   OH251969   2.809   2.952   2.996 -0.6500  0.1515 -0.1327
10185TIP3    H151970   2.801   2.936   2.901 -0.3684  1.2188 -0.3515
10185TIP3    H251971   2.761   3.033   3.010 -1.4555 -0.4618  0.8083
10186TIP3   OH251972   5.066   4.973   4.592  0.9214 -0.1751 -0.5714
10186TIP3    H151973   5.043   4.891   4.549  0.6956 -0.1978 -0.4042
10186TIP3    H251974   4.990   4.996   4.645  0.8310  0.3413 -0.9100
10187TIP3   OH251975   6.195   4.085   5.066  0.0834 -0.4522 -0.2807
10187TIP3    H151976   6.170   4.078   5.158 -3.5417  0.2396 -1.0399
10187TIP3    H251977   6.187   3.995   5.033 -3.2139 -0.1162 -0.7629
10188TIP3   OH251978   2.520   6.603   2.186  0.0525 -0.2822 -0.1563
10188TIP3    H151979   2.601   6.651   2.202  1.3962 -2.6058  0.5253
10188TIP3    H251980   2.492   6.573   2.273  0.3068 -2.2009 -0.6714
10189TIP3   OH251981   1.442   6.179  12.861 -0.5148 -0.3429  0.6542
10189TIP3    H151982   1.425   6.265  12.898 -0.2374 -0.7037  1.6427
10189TIP3    H251983   1.518   6.193  12.803 -1.0906  0.2620  0.0237
10190TIP3   OH251984   1.677   0.833  15.085  0.3638 -0.1384  0.1176
10190TIP3    H151985   1.716   0.841  15.172 -1.9665 -0.4054  1.2703
10190TIP3    H251986   1.641   0.920  15.067  1.4371  0.1117 -0.9230
10191TIP3   OH251987   3.975   0.382   3.446  0.7271 -0.0664  0.2849
10191TIP3    H151988   4.050   0.342   3.402 -0.1011 -0.1297 -1.1041
10191TIP3    H251989   4.012   0.456   3.494  1.7518 -0.4453  0.1134
10192TIP3   OH251990   0.804   2.262  12.935 -0.2271  0.6103 -0.4022
10192TIP3    H151991   0.863   2.213  12.992  2.3987  3.4617 -0.3780
10192TIP3    H251992   0.754   2.318  12.994 -0.8178  0.3291 -0.6292
10193TIP3   OH251993   6.244   6.316  15.820 -0.7732  0.1866  0.1456
10193TIP3    H151994   6.256   6.236  15.871  1.1553  0.5655  0.3503
10193TIP3    H251995   6.154   6.311  15.788 -0.4967 -2.3940 -0.4282
10194TIP3   OH251996   3.073   2.100   1.547 -0.5861  0.3808  0.1537
10194TIP3    H151997   3.119   2.022   1.579 -3.0435 -1.0928  0.3243
10194TIP3    H251998   3.029   2.136   1.624 -1.3546  0.5630 -0.3576
10195TIP3   OH251999   4.737   6.032  12.201 -0.6745  0.0092  0.2138
10195TIP3    H152000   4.729   5.961  12.137  1.3247  1.0753 -1.3349
10195TIP3    H252001   4.690   6.105  12.162  0.7738  0.7464 -0.2219
10196TIP3   OH252002   5.641   3.185   6.594  0.2726  0.2218  0.9144
10196TIP3    H152003   5.655   3.269   6.551  0.9936  0.0785  0.8488
10196TIP3    H252004   5.552   3.190   6.629 -0.6263  0.0994 -1.1850
10197TIP3   OH252005   1.087   3.145   2.465  0.2022 -0.0302  0.7830
10197TIP3    H152006   1.175   3.165   2.499  0.1605  0.9516  0.3501
10197TIP3    H252007   1.060   3.226   2.422 -1.4249  0.0995  1.9664
10198TIP3   OH252008   5.118   5.441   5.755 -0.3985  0.0795  0.2911
10198TIP3    H152009   5.028   5.452   5.725  0.0549  3.1262 -0.2594
10198TIP3    H252010   5.171   5.482   5.687  1.1502  1.3619  2.1766
10199TIP3   OH252011   2.785   5.840  16.095 -0.8514  0.2180 -0.2390
10199TIP3    H152012   2.706   5.813  16.047 -1.2846  4.2350 -2.2303
10199TIP3    H252013   2.774   5.802  16.182 -3.2110 -2.2247 -1.4543
10200TIP3   OH252014   6.093   0.431  13.780  0.0568 -0.0857 -0.2228
10200TIP3    H152015   6.067   0.479  13.858 -0.1861 -0.4417 -0.0801
10200TIP3    H252016   6.155   0.489  13.735 -0.7030  0.6243 -0.3781
10201TIP3   OH252017   2.117   2.617  13.517  0.3197  0.0681  0.2476
10201TIP3    H152018   2.031   2.645  13.548 -0.0498  0.9723 -1.4325
10201TIP3    H252019   2.117   2.522  13.528 -0.1772  0.2394  1.9268
10202TIP3   OH252020   4.714   2.653   2.501 -0.4886  0.0276  0.0442
10202TIP3    H152021   4.689   2.615   2.586 -2.1211  2.2766  0.6722
10202TIP3    H252022   4.631   2.665   2.455  0.2531  0.1177 -1.3080
10203TIP3   OH252023   2.978   5.173   0.591 -0.0954 -0.0556 -0.3344
10203TIP3    H152024   2.971   5.139   0.681  0.5650 -2.4451 -1.1042
10203TIP3    H252025   3.034   5.109   0.546  0.8900  1.9196 -2.0674
10204TIP3   OH252026   0.215   5.648   1.291  0.2511 -0.6226 -0.3473
10204TIP3    H152027   0.256   5.730   1.321  1.2309 -1.5349  0.9388
10204TIP3    H252028   0.155   5.675   1.222  1.9903  0.9601 -1.3291
10205TIP3   OH252029   4.879   5.085  13.792 -0.2896  0.1388 -0.4305
10205TIP3    H152030   4.868   4.991  13.808 -0.2183  0.2559  0.3909
10205TIP3    H252031   4.792   5.115  13.766 -0.2256 -0.2205 -1.0662
10206TIP3   OH252032   5.169   4.426   2.768  0.3708 -0.4572 -0.1038
10206TIP3    H152033   5.119   4.424   2.851  1.5269  0.1421  0.6324
10206TIP3    H252034   5.228   4.352   2.774  0.4919 -0.3807 -0.3694
10207TIP3   OH252035   2.291   1.799   1.005  0.1269 -0.2214  0.0671
10207TIP3    H152036   2.267   1.728   0.946 -0.6308 -0.4762  0.6671
10207TIP3    H252037   2.309   1.873   0.947  0.0427 -0.6522 -0.5156
10208TIP3   OH252038   6.501   4.618  13.762  0.7086  0.0571 -0.3580
10208TIP3    H152039   6.494   4.622  13.667 -0.0238  1.4755 -0.2760
10208TIP3    H252040   6.554   4.540  13.780  1.7760  0.3725 -1.9715
10209TIP3   OH252041   2.978   0.982   0.901 -0.2746  0.0597 -0.6670
10209TIP3    H152042   2.979   1.051   0.834 -2.2859  1.0025  0.1977
10209TIP3    H252043   2.899   0.932   0.881 -1.1710  0.6414  1.2313
10210TIP3   OH252044   5.482   1.806  11.784 -0.4252 -0.4202 -0.1908
10210TIP3    H152045   5.408   1.858  11.815 -0.9137  0.1662 -2.1855
10210TIP3    H252046   5.456   1.777  11.696  1.8187  0.1235 -1.1150
10211TIP3   OH252047   2.303   6.666   4.888 -0.1809 -0.6305  0.4302
10211TIP3    H152048   2.370   6.632   4.947 -1.6347 -0.7881  2.0521
10211TIP3    H252049   2.272   6.747   4.930 -0.7005 -0.3226 -0.5164
10212TIP3   OH252050   6.208   4.751   1.323 -0.0543  0.3951 -0.0449
10212TIP3    H152051   6.275   4.723   1.261 -1.4980 -0.2619 -1.3596
10212TIP3    H252052   6.256   4.800   1.390  1.9272 -1.2815 -0.1629
10213TIP3   OH252053   4.323   6.372  17.055 -0.3481 -0.6082  0.0987
10213TIP3    H152054   4.364   6.299  17.009  1.2033 -0.9605  1.9030
10213TIP3    H252055   4.300   6.434  16.986  0.7423 -1.6246 -1.2462
10214TIP3   OH252056   2.474   5.027   2.133  0.3847 -0.4258 -0.0491
10214TIP3    H152057   2.474   4.971   2.211  0.5245  0.6357  0.7332
10214TIP3    H252058   2.482   5.116   2.167  2.3297 -0.0495 -1.3690
10215TIP3   OH252059   3.468   1.000  16.839 -0.0682 -0.3961  0.5892
10215TIP3    H152060   3.439   0.915  16.871  0.5018 -1.3425 -1.2480
10215TIP3    H252061   3.440   1.002  16.748 -1.1311  1.9323  0.8946
10216TIP3   OH252062   6.120   5.004   2.117 -0.5755 -0.6383 -0.0807
10216TIP3    H152063   6.055   5.019   2.048 -0.1596  1.3431 -0.0835
10216TIP3    H252064   6.186   5.071   2.103  0.6831 -1.6357  0.8963
10217TIP3   OH252065   0.937   4.818  13.735 -0.4962  0.1783 -0.5420
10217TIP3    H152066   0.946   4.752  13.803  0.8371  0.8155 -0.0746
10217TIP3    H252067   0.966   4.774  13.655 -0.2022  0.0115 -0.3458
10218TIP3   OH252068   2.119   1.192  15.939 -0.1357  0.4810  0.1267
10218TIP3    H152069   2.122   1.101  15.969 -1.0995  0.7209  1.0531
10218TIP3    H252070   2.027   1.218  15.951  0.6218  2.4489  2.6530
10219TIP3   OH252071   6.466   0.816   3.049  0.1972 -0.3690  0.1891
10219TIP3    H152072   6.440   0.884   3.111  1.2154 -0.0938  0.3448
10219TIP3    H252073   6.531   0.764   3.097  0.0032 -0.9713 -0.1958
10220TIP3   OH252074   4.313   1.970  13.585  0.1629  0.4578  0.2918
10220TIP3    H152075   4.273   1.978  13.672  2.5332  1.6415  1.3858
10220TIP3    H252076   4.330   2.061  13.559 -0.1384  0.0912 -1.2439
10221TIP3   OH252077   0.064   4.240   5.237  0.0738  0.3643 -0.4214
10221TIP3    H152078   0.120   4.168   5.266  0.4425  0.8038 -0.0026
10221TIP3    H252079  -0.023   4.203   5.232  0.3543 -0.2554 -0.7650
10222TIP3   OH252080   3.986   4.947  16.977  0.1560 -0.1215 -0.4148
10222TIP3    H152081   3.951   4.861  17.002  0.6928 -0.4058 -0.6163
10222TIP3    H252082   3.912   4.991  16.935 -0.3741 -0.1423  0.4734
10223TIP3   OH252083   1.111   5.241  12.196 -0.4243  0.3125 -0.3533
10223TIP3    H152084   1.178   5.173  12.199 -0.6655  0.0866 -0.0061
10223TIP3    H252085   1.158   5.319  12.168 -0.1729 -0.0288 -0.9199
10224TIP3   OH252086   1.376   5.364   0.042  0.3954  0.3706  0.3480
10224TIP3    H152087   1.301   5.383   0.098  0.6466  0.2630  0.7273
10224TIP3    H252088   1.343   5.374  -0.047 -0.9153 -2.8077  0.3786
10225TIP3   OH252089   1.523   0.181  12.982  0.0808  0.6701 -0.5823
10225TIP3    H152090   1.593   0.226  12.935  0.3181  0.9335  0.0225
10225TIP3    H252091   1.514   0.097  12.935  2.3884 -0.3855  0.6815
10226TIP3   OH252092   2.150   2.688   0.103  0.3783 -0.2826  0.3219
10226TIP3    H152093   2.151   2.725   0.191  1.4015 -0.9368  0.6038
10226TIP3    H252094   2.242   2.687   0.075  0.0971 -0.2959 -0.6636
10227TIP3   OH252095   4.512   3.217  16.406 -0.4080  0.0575  0.0742
10227TIP3    H152096   4.597   3.182  16.378 -1.1010 -0.2721 -1.6966
10227TIP3    H252097   4.457   3.141  16.418 -0.7132  0.3208  0.3620
10228TIP3   OH252098   5.579   5.210  14.164 -0.1551  0.2158  0.2376
10228TIP3    H152099   5.570   5.305  14.160  0.0096  0.2001 -1.0590
10228TIP3    H252100   5.517   5.182  14.232 -1.9396  1.0476 -0.9707
10229TIP3   OH252101   4.175   4.712   5.176  0.1854 -0.1472 -0.5475
10229TIP3    H152102   4.123   4.671   5.246 -0.3245  1.3786  0.0189
10229TIP3    H252103   4.163   4.806   5.190 -0.4203  0.2126 -3.0722
10230TIP3   OH252104   3.038   3.825  12.599  0.3733  0.1200 -0.2342
10230TIP3    H152105   3.057   3.864  12.685 -1.2497 -0.4159  0.4094
10230TIP3    H252106   3.103   3.864  12.540  0.3817  1.8898  0.8739
10231TIP3   OH252107   3.516   5.612   1.300  0.0562  0.3064  0.0040
10231TIP3    H152108   3.560   5.551   1.359 -0.7683  0.3018  0.6306
10231TIP3    H252109   3.576   5.686   1.293  0.6275 -0.1488  0.0117
10232TIP3   OH252110   1.523   0.450  13.827 -0.1867  0.0963 -0.5603
10232TIP3    H152111   1.556   0.440  13.916  0.7324 -0.9858 -1.0089
10232TIP3    H252112   1.523   0.544  13.812 -0.1559  0.2788  0.5045
10233TIP3   OH252113   4.842   0.284   1.267 -0.2420  1.0480 -0.3147
10233TIP3    H152114   4.830   0.212   1.330 -2.2850  1.5678 -0.0517
10233TIP3    H252115   4.932   0.274   1.238  0.3892  0.0203  1.7494
10234TIP3   OH252116   1.379   5.747  11.895  0.0516  0.2873 -0.4651
10234TIP3    H152117   1.375   5.798  11.976 -3.2777  1.2340 -1.0811
10234TIP3    H252118   1.342   5.662  11.919  0.6110 -0.0097 -0.6459
10235TIP3   OH252119   5.359   3.096   0.591 -0.0679 -0.2551 -0.1846
10235TIP3    H152120   5.342   3.005   0.613  1.3310 -0.0241  2.2067
10235TIP3    H252121   5.449   3.096   0.557  0.7989  0.4361  1.9253
10236TIP3   OH252122   1.373   4.146   4.503 -0.2319  0.8122 -0.3506
10236TIP3    H152123   1.457   4.192   4.495  0.3524 -0.3438 -1.0172
10236TIP3    H252124   1.314   4.194   4.446 -0.2474  2.0771  0.6694
10237TIP3   OH252125   5.717   2.677   1.900 -0.8415  0.1087 -0.2800
10237TIP3    H152126   5.717   2.773   1.903 -0.5985  0.1023 -0.0914
10237TIP3    H252127   5.664   2.651   1.976  1.8121  0.0332  1.6730
10238TIP3   OH252128   2.691   5.723  12.245 -0.1634 -0.2055 -0.2703
10238TIP3    H152129   2.666   5.786  12.178 -1.6781 -0.0468  0.4156
10238TIP3    H252130   2.730   5.776  12.315 -0.3275 -0.1697 -0.2068
10239TIP3   OH252131   1.955   1.482   5.574 -0.5014 -0.6222  0.0995
10239TIP3    H152132   1.981   1.393   5.598  0.3649 -0.4044 -0.0052
10239TIP3    H252133   1.886   1.504   5.636  0.0334 -0.9641  0.8374
10240TIP3   OH252134   6.636   4.410   4.803 -0.1166 -0.6963 -0.6106
10240TIP3    H152135   6.667   4.470   4.870  2.3709  0.3808 -2.5481
10240TIP3    H252136   6.699   4.338   4.803 -0.6738 -1.2048 -1.1015
10241TIP3   OH252137   1.202   6.073  12.977  0.5314 -0.4232  0.0302
10241TIP3    H152138   1.203   5.978  12.966  1.5345 -0.3249 -0.9751
10241TIP3    H252139   1.294   6.099  12.964  0.0278  0.8384 -1.2845
10242TIP3   OH252140   5.497   2.636   2.078  0.4192 -0.0964 -0.6336
10242TIP3    H152141   5.500   2.721   2.122  0.1323 -0.9338  1.0978
10242TIP3    H252142   5.407   2.629   2.046  0.2884  0.0398 -0.3070
10243TIP3   OH252143   3.585   4.434   0.344  0.7365 -0.3014  0.4541
10243TIP3    H152144   3.626   4.375   0.407  0.2900 -0.4745  0.5826
10243TIP3    H252145   3.512   4.474   0.392  0.1186 -0.7663 -0.0780
10244TIP3   OH252146   0.116   4.394  12.224 -0.3661  0.1895 -0.0928
10244TIP3    H152147   0.154   4.421  12.141 -1.4231  2.1911  0.0001
10244TIP3    H252148   0.102   4.476  12.272 -0.3043 -0.8581  1.8377
10245TIP3   OH252149   4.722   1.812  14.087  0.6276 -0.1700 -0.5993
10245TIP3    H152150   4.632   1.829  14.061  0.5436  1.5704  0.6774
10245TIP3    H252151   4.774   1.848  14.015  0.3413  2.3722  0.3743
10246TIP3   OH252152   0.337   2.939   2.800  0.1329  0.2468  0.0365
10246TIP3    H152153   0.298   2.893   2.725 -1.1609  0.2696  0.6578
10246TIP3    H252154   0.339   3.031   2.773 -0.0100  0.2104 -0.1026
10247TIP3   OH252155   0.061   1.077   1.449 -0.2800  0.0696  0.1911
10247TIP3    H152156   0.131   1.115   1.396 -0.1412  0.9008  0.9597
10247TIP3    H252157  -0.012   1.065   1.388  0.6782 -1.3224 -0.7590
10248TIP3   OH252158   5.467   0.437   4.029 -0.0859  0.3235 -0.3568
10248TIP3    H152159   5.540   0.448   3.968  0.9712  1.8937  1.0899
10248TIP3    H252160   5.425   0.523   4.032 -0.8405 -0.0505  0.2431
10249TIP3   OH252161   5.513   3.867  12.580  0.1396  0.8149  0.6061
10249TIP3    H152162   5.561   3.875  12.497 -0.4907 -0.9894  0.0019
10249TIP3    H252163   5.582   3.860  12.646  0.7625 -0.6001 -0.1267
10250TIP3   OH252164   5.141   4.672  11.835 -0.5461 -0.4346 -0.3413
10250TIP3    H152165   5.212   4.660  11.772 -0.3995 -4.0552  0.2911
10250TIP3    H252166   5.154   4.603  11.900 -2.2086  1.4837  2.2434
10251TIP3   OH252167   3.580   1.582  11.821  0.3824 -0.0231 -0.7106
10251TIP3    H152168   3.505   1.620  11.867 -0.1670  0.4905 -1.9808
10251TIP3    H252169   3.597   1.642  11.748  0.2249 -1.5720 -2.1087
10252TIP3   OH252170   6.653   5.286   2.241  0.2158  0.5765 -0.5807
10252TIP3    H152171   6.620   5.329   2.162  3.3903  1.5237 -1.5057
10252TIP3    H252172   6.601   5.325   2.312 -4.3252 -1.8922 -2.1204
10253TIP3   OH252173   2.761   3.771   0.659 -0.0824 -0.0397 -0.4811
10253TIP3    H152174   2.813   3.787   0.738  0.3577 -0.5555 -0.6590
10253TIP3    H252175   2.826   3.756   0.590 -0.4667  0.0623 -0.8682
10254TIP3   OH252176   0.081   3.881   1.574 -0.0471  0.2674 -0.1507
10254TIP3    H152177   0.060   3.840   1.490 -2.0193  0.2534  0.3087
10254TIP3    H252178   0.085   3.808   1.636  2.4235  0.1513 -0.3447
10255TIP3   OH252179   4.042   0.620   5.220 -0.4325  0.2970  0.4171
10255TIP3    H152180   4.119   0.660   5.180 -1.0892  1.6699  0.4726
10255TIP3    H252181   3.998   0.574   5.148 -1.2449  2.1873 -0.3602
10256TIP3   OH252182   4.712   0.460  13.003  0.3223 -0.1986 -0.3659
10256TIP3    H152183   4.736   0.536  13.056 -0.4674  0.9680 -1.6327
10256TIP3    H252184   4.789   0.403  13.008  1.2931  1.0812 -0.1112
10257TIP3   OH252185   3.268   6.415   3.656  0.8020  0.1328  0.4730
10257TIP3    H152186   3.216   6.434   3.734  0.0090 -0.3926  0.0777
10257TIP3    H252187   3.358   6.407   3.689  0.1423 -3.0562  1.8760
10258TIP3   OH252188   6.604   4.667  11.860 -0.6002 -0.4338  0.2258
10258TIP3    H152189   6.601   4.751  11.905  0.8879 -0.7424  0.9607
10258TIP3    H252190   6.593   4.689  11.768 -0.1855  0.5687  0.4004
10259TIP3   OH252191   2.792   5.107  12.131 -0.3853 -0.2018 -0.2386
10259TIP3    H152192   2.877   5.125  12.092  0.1991 -2.5829 -0.2627
10259TIP3    H252193   2.734   5.091  12.056 -0.7661  0.9494 -0.2092
10260TIP3   OH252194   5.826   4.296  13.823  0.2537  0.2456  0.2091
10260TIP3    H152195   5.887   4.358  13.863  1.0190 -0.0667 -0.4471
10260TIP3    H252196   5.788   4.343  13.749  0.2125  0.2102  0.2073
10261TIP3   OH252197   4.735   4.708  16.569  0.1968  0.4897 -0.3429
10261TIP3    H152198   4.813   4.702  16.513  0.1392 -0.5635 -0.3228
10261TIP3    H252199   4.663   4.726  16.508  0.0189 -1.3585 -0.7457
10262TIP3   OH252200   0.319   4.004   0.916 -0.5540 -0.2987  0.0375
10262TIP3    H152201   0.247   3.995   0.977 -1.1473  0.4985 -0.5165
10262TIP3    H252202   0.279   3.992   0.830  0.0404 -0.2059 -0.2574
10263TIP3   OH252203   5.665   1.252   0.604 -0.9055 -0.1299 -0.3482
10263TIP3    H152204   5.702   1.330   0.645 -1.1092  0.9644 -2.1105
10263TIP3    H252205   5.673   1.183   0.670 -2.7580  1.8389  2.1137
10264TIP3   OH252206   5.584   4.496   4.629  0.6847  0.2073  0.3466
10264TIP3    H152207   5.541   4.437   4.567  2.1615 -0.1229 -0.4011
10264TIP3    H252208   5.587   4.446   4.710 -1.5153  0.7467  0.8362
10265TIP3   OH252209   3.012   3.165   4.161 -0.5505 -0.6402  0.3034
10265TIP3    H152210   2.942   3.142   4.222 -0.2066 -0.7122  0.6819
10265TIP3    H252211   3.069   3.222   4.212  0.9919 -2.5398  0.8372
10266TIP3   OH252212   2.656   4.625   3.755 -0.6044 -0.1390  0.7627
10266TIP3    H152213   2.651   4.720   3.758 -1.6481  0.0879 -2.8221
10266TIP3    H252214   2.574   4.595   3.795 -0.8473  0.5464  0.7965
10267TIP3   OH252215   5.952   0.833   0.718 -0.0593 -0.0219 -0.2364
10267TIP3    H152216   6.034   0.811   0.674  0.3826 -1.2718  1.1105
10267TIP3    H252217   5.972   0.821   0.811 -1.9424 -0.9780  0.0827
10268TIP3   OH252218   1.371   4.471  14.060  0.0645 -0.3796 -0.7825
10268TIP3    H152219   1.379   4.438  13.971 -0.2101  1.5174 -1.5699
10268TIP3    H252220   1.439   4.539  14.067  0.4205 -0.8310  0.6368
10269TIP3   OH252221   2.787   5.244  12.567  0.3189 -0.1796  0.0552
10269TIP3    H152222   2.737   5.316  12.528 -0.4619 -0.8860 -0.2669
10269TIP3    H252223   2.765   5.168  12.513  0.0255 -0.9569  1.2480
10270TIP3   OH252224   1.610   1.128  16.401 -0.1005  0.4625  0.6113
10270TIP3    H152225   1.545   1.191  16.371  0.7807  0.3875 -1.6616
10270TIP3    H252226   1.559   1.055  16.435 -1.1398  1.8626  2.1911
10271TIP3   OH252227   3.043   0.798   1.599 -0.3375 -0.1004 -0.5353
10271TIP3    H152228   3.046   0.857   1.523 -2.4534  0.8669  0.0693
10271TIP3    H252229   3.045   0.857   1.675 -0.0449 -0.9641  0.1411
10272TIP3   OH252230   0.439   5.823  13.184 -0.3998 -0.2291  0.2320
10272TIP3    H152231   0.357   5.810  13.232  0.3492 -0.8123  1.4156
10272TIP3    H252232   0.426   5.778  13.101 -0.7865 -1.5416  0.9807
10273TIP3   OH252233   6.000   2.766  11.055 -0.6454  0.0317 -0.4354
10273TIP3    H152234   5.950   2.749  11.135 -1.6164 -1.5972 -1.3399
10273TIP3    H252235   5.940   2.818  11.001 -0.2774  0.4733 -0.4268
10274TIP3   OH252236   3.436   4.906   5.624  0.0649  0.0852  0.4339
10274TIP3    H152237   3.527   4.881   5.638  0.3267  0.6184 -0.2597
10274TIP3    H252238   3.429   4.994   5.661  0.6245  1.2852 -2.0565
10275TIP3   OH252239   1.552   6.540   6.586 -0.0139  0.2098 -0.3833
10275TIP3    H152240   1.643   6.568   6.597 -0.4892  1.9578 -0.4988
10275TIP3    H252241   1.543   6.463   6.641  1.1486  0.8843  0.7996
10276TIP3   OH252242   5.964   1.302  14.832  0.3686  0.6216 -0.5081
10276TIP3    H152243   5.872   1.280  14.821 -0.1938  1.7485  1.5298
10276TIP3    H252244   5.983   1.362  14.759  0.1631 -1.3261 -2.2495
10277TIP3   OH252245   5.397   6.519   0.150 -0.6927  0.6860  0.4379
10277TIP3    H152246   5.365   6.598   0.107 -0.6506  1.2614  1.4588
10277TIP3    H252247   5.325   6.492   0.207 -0.6476  0.0629  0.2150
10278TIP3   OH252248   4.176   4.717  13.648 -0.0769  0.2488  0.3676
10278TIP3    H152249   4.211   4.700  13.561 -0.9528 -1.4255  0.3108
10278TIP3    H252250   4.207   4.643  13.701 -1.2415  0.1666  0.9665
10279TIP3   OH252251   6.752   2.457  14.052 -0.4552 -0.6521 -0.1084
10279TIP3    H152252   6.734   2.382  13.995 -1.2740 -0.8814  0.4378
10279TIP3    H252253   6.784   2.418  14.133 -0.1557 -0.3728 -0.0938
10280TIP3   OH252254   2.373   5.809  17.144 -0.1154  0.2680 -0.1493
10280TIP3    H152255   2.374   5.717  17.172  0.4770  0.2530 -0.2025
10280TIP3    H252256   2.280   5.831  17.137 -0.2773 -0.6230 -1.0833
10281TIP3   OH252257   5.340   0.135  15.240 -0.1530  0.1156 -0.1761
10281TIP3    H152258   5.322   0.045  15.266 -1.0582  0.6216  1.0484
10281TIP3    H252259   5.407   0.165  15.302  0.9223 -0.0133 -1.2326
10282TIP3   OH252260   2.287   1.627  16.946 -0.8504 -0.4817  0.0350
10282TIP3    H152261   2.193   1.610  16.942 -0.5116 -2.3688 -1.0486
10282TIP3    H252262   2.327   1.540  16.939  1.0119  0.4336 -1.4295
10283TIP3   OH252263   1.470   3.932   2.311  0.4921  0.5699 -0.2584
10283TIP3    H152264   1.564   3.937   2.297  0.4690  0.9064 -0.3038
10283TIP3    H252265   1.433   3.999   2.253  0.2693  0.8044  0.1497
10284TIP3   OH252266   2.192   5.549   1.387  0.2864 -0.0537 -0.2426
10284TIP3    H152267   2.239   5.589   1.314 -0.0282  0.5401 -0.1360
10284TIP3    H252268   2.219   5.458   1.387  0.3928 -0.0313 -1.0185
10285TIP3   OH252269   5.309   0.954   6.298 -0.5427  0.0897  0.0468
10285TIP3    H152270   5.357   1.006   6.235  0.8489 -2.3437 -1.0274
10285TIP3    H252271   5.326   0.997   6.382  2.4044  0.1273 -0.4681
10286TIP3   OH252272   4.393   1.717   5.133  0.2178 -0.1807 -0.6283
10286TIP3    H152273   4.471   1.757   5.094  0.0358  0.2942 -0.5111
10286TIP3    H252274   4.427   1.645   5.187  0.5937  0.1466 -0.4249
10287TIP3   OH252275   3.248   0.472  11.795 -0.3872 -0.1155  0.3062
10287TIP3    H152276   3.199   0.466  11.877 -1.6203  0.5247 -0.3577
10287TIP3    H252277   3.187   0.441  11.728  0.3871 -0.0302 -0.4540
10288TIP3   OH252278   0.410   0.966   0.381 -0.6612 -0.2316 -0.0381
10288TIP3    H152279   0.383   1.017   0.457 -1.6213 -1.8965  0.8063
10288TIP3    H252280   0.498   0.937   0.402 -0.5331  0.1570 -0.0306
10289TIP3   OH252281   1.065   0.569   1.951  0.4288 -0.2500 -0.2985
10289TIP3    H152282   1.071   0.664   1.947  0.5212 -0.2993 -2.6577
10289TIP3    H252283   1.074   0.548   2.044 -0.5516  2.0879  0.4007
10290TIP3   OH252284   4.395   6.632   2.239 -0.7452  0.1231  0.8672
10290TIP3    H152285   4.423   6.721   2.219  1.4469  0.1695  3.5617
10290TIP3    H252286   4.465   6.577   2.206 -1.1100 -0.4437  1.0217
10291TIP3   OH252287   4.715   1.602  16.297 -0.4643 -0.3432  0.2149
10291TIP3    H152288   4.762   1.536  16.247 -1.7676 -0.4934 -0.8857
10291TIP3    H252289   4.623   1.575  16.292 -0.8348  0.6471  1.1686
10292TIP3   OH252290   6.462   0.707   6.077  0.2004  0.1526  0.1001
10292TIP3    H152291   6.385   0.705   6.133 -1.1292  2.6945 -1.4204
10292TIP3    H252292   6.506   0.789   6.100  2.7642 -1.4300  1.2260
10293TIP3   OH252293   4.359   6.016  16.547  0.1931  0.4332  0.2342
10293TIP3    H152294   4.291   5.953  16.525  0.8212 -0.6413  1.2326
10293TIP3    H252295   4.407   6.030  16.465 -1.6528  1.8093 -0.6728
10294TIP3   OH252296   0.553   0.740   2.549  0.0336 -0.5646 -0.4251
10294TIP3    H152297   0.495   0.814   2.532  2.5275  1.1608 -2.1886
10294TIP3    H252298   0.530   0.675   2.482 -0.7518 -0.4933 -0.2321
10295TIP3   OH252299   1.981   6.735  13.311  0.1715  1.1029 -0.1556
10295TIP3    H152300   2.032   6.762  13.236 -1.4030  1.5953 -1.0906
10295TIP3    H252301   1.895   6.712  13.275  0.2732 -1.6514  1.0610
10296TIP3   OH252302   0.106   1.272  15.126  0.7880 -0.4506 -0.0596
10296TIP3    H152303   0.117   1.177  15.128  0.2898 -0.5055 -0.0275
10296TIP3    H252304   0.083   1.295  15.216 -0.3233 -0.4454 -0.3375
10297TIP3   OH252305   4.981   5.891   6.063  0.0379 -0.1070 -0.2108
10297TIP3    H152306   4.920   5.912   6.134  1.4820  1.1278  0.7332
10297TIP3    H252307   5.068   5.901   6.102  0.9500  2.0178 -2.4472
10298TIP3   OH252308   0.195   0.129   3.831 -0.2807  0.8304  0.6503
10298TIP3    H152309   0.223   0.057   3.774  1.0143  1.9481 -0.1992
10298TIP3    H252310   0.107   0.104   3.860 -0.1888 -0.6979 -0.2540
10299TIP3   OH252311   2.450   2.953  16.431  0.0565  0.1438  0.2638
10299TIP3    H152312   2.361   2.953  16.395 -0.0823 -0.6756  0.5977
10299TIP3    H252313   2.438   2.971  16.524  0.3720  1.6082  0.0573
10300TIP3   OH252314   3.993   5.652   2.519  0.3381 -0.6109  0.4054
10300TIP3    H152315   4.013   5.734   2.474 -1.3866 -1.0105 -1.2227
10300TIP3    H252316   3.920   5.675   2.577  0.6195 -0.7369  0.8076
10301TIP3   OH252317   0.080   0.014   2.930 -0.6323 -0.1792  0.2244
10301TIP3    H152318   0.072   0.078   2.859  0.9401 -0.7423 -0.4978
10301TIP3    H252319  -0.006  -0.029   2.932 -0.7372 -0.0928 -1.2765
10302TIP3   OH252320   5.217   4.952   4.226  0.2606  0.0503 -0.1684
10302TIP3    H152321   5.226   5.033   4.276  0.3264 -0.2875  0.3606
10302TIP3    H252322   5.301   4.908   4.235  0.1989 -0.1177 -0.3959
10303TIP3   OH252323   2.097   3.892  11.616 -0.1610 -0.3781  0.5707
10303TIP3    H152324   2.109   3.916  11.708 -1.1319 -0.3683  0.7060
10303TIP3    H252325   2.002   3.886  11.605 -0.0331 -1.5278 -0.1360
10304TIP3   OH252326   1.092   2.814  16.774  0.3764 -0.2221  0.0661
10304TIP3    H152327   1.148   2.758  16.721  0.5941 -0.6510  0.7441
10304TIP3    H252328   1.096   2.777  16.862 -0.9508 -0.2515  0.1397
10305TIP3   OH252329   0.585   3.080   3.196 -0.3139 -0.0784  0.2515
10305TIP3    H152330   0.622   3.141   3.132  1.2911 -1.2646 -0.0072
10305TIP3    H252331   0.548   3.009   3.144  1.5215 -1.3398  0.6008
10306TIP3   OH252332   0.345   0.614  16.180  0.0391  0.3314 -0.2456
10306TIP3    H152333   0.281   0.677  16.212  2.6807  2.5334  1.0805
10306TIP3    H252334   0.402   0.664  16.122  2.6390 -0.5440  1.3743
10307TIP3   OH252335   4.584   5.056   2.327  0.8682  0.0974  0.3931
10307TIP3    H152336   4.657   5.117   2.318  1.8010 -1.2264 -1.4917
10307TIP3    H252337   4.577   5.041   2.421  2.8445  0.4786  0.6417
10308TIP3   OH252338   4.290   1.819   3.882 -0.3428 -0.1740  0.4945
10308TIP3    H152339   4.282   1.724   3.872  0.3811 -0.3754  1.5866
10308TIP3    H252340   4.242   1.855   3.808  2.8841 -1.3993 -2.4620
10309TIP3   OH252341   1.719   5.197  17.137 -0.1409 -0.4845  0.0308
10309TIP3    H152342   1.686   5.191  17.227 -0.2751  0.0148  0.0145
10309TIP3    H252343   1.775   5.274  17.137 -3.4213  2.1788 -1.2996
10310TIP3   OH252344   6.616   6.328  13.308  0.0127  0.5915  0.0115
10310TIP3    H152345   6.557   6.353  13.236  0.1510  0.5118 -0.1299
10310TIP3    H252346   6.558   6.321  13.384 -0.5249 -1.5900 -0.5402
10311TIP3   OH252347   1.364   3.847  15.239 -0.4330  0.3006  0.2082
10311TIP3    H152348   1.274   3.876  15.228 -0.8123 -0.5965  0.8597
10311TIP3    H252349   1.357   3.756  15.268  0.6433  0.5762  1.4271
10312TIP3   OH252350   2.777   0.444  14.759  0.2201 -0.2146 -0.1695
10312TIP3    H152351   2.866   0.409  14.751 -0.1470 -1.0918 -0.4802
10312TIP3    H252352   2.760   0.443  14.854  1.3195  1.9985  0.1206
10313TIP3   OH252353   3.745   4.295  14.797 -0.7895  0.0704 -0.5524
10313TIP3    H152354   3.794   4.237  14.739  2.4032  1.5894  0.3474
10313TIP3    H252355   3.713   4.238  14.866 -0.2414 -1.0365 -1.1846
10314TIP3   OH252356   1.294   5.181  15.334  0.3063 -0.0335  0.1040
10314TIP3    H152357   1.225   5.187  15.400  0.0420  0.1862 -0.1869
10314TIP3    H252358   1.248   5.158  15.254  0.1559  2.7225 -0.7232
10315TIP3   OH252359   2.779   5.572   3.980  0.7910  0.8179  0.6610
10315TIP3    H152360   2.797   5.498   4.038 -0.5960 -0.2035 -0.1513
10315TIP3    H252361   2.847   5.566   3.913  0.9424  0.5450  0.8331
10316TIP3   OH252362   6.426   6.530  17.259  0.4046 -0.1093 -0.2658
10316TIP3    H152363   6.431   6.511  17.165  0.1975 -1.9300  0.0448
10316TIP3    H252364   6.517   6.532  17.289  0.4487 -0.0594 -0.4028
10317TIP3   OH252365   6.778   0.224   5.090 -0.2721  0.0840 -0.7543
10317TIP3    H152366   6.751   0.182   5.009 -0.7532  0.1796 -0.6446
10317TIP3    H252367   6.697   0.236   5.140  0.2387 -1.8025  0.6177
10318TIP3   OH252368   4.982   3.160  11.821  0.4582  0.0605  0.0607
10318TIP3    H152369   4.913   3.141  11.758  1.3519 -0.4516 -0.7855
10318TIP3    H252370   5.008   3.074  11.854  0.3625  0.2874  0.7478
10319TIP3   OH252371   0.106   2.633   5.715  0.0371 -0.3969 -0.9092
10319TIP3    H152372   0.094   2.581   5.636  1.8718 -2.4275  0.0221
10319TIP3    H252373   0.038   2.602   5.775 -1.0587  0.8126 -1.4829
10320TIP3   OH252374   6.414   4.828  16.972  0.6158 -0.1589 -0.0596
10320TIP3    H152375   6.415   4.814  17.066  0.4072  0.5190  0.0545
10320TIP3    H252376   6.341   4.775  16.940  0.4505 -0.0983  0.2142
10321TIP3   OH252377   6.450   6.446  14.512 -0.2040  0.4405  0.1138
10321TIP3    H152378   6.426   6.536  14.489  0.4189  1.1903  2.1906
10321TIP3    H252379   6.521   6.456  14.575  1.6194 -1.5961 -1.4738
10322TIP3   OH252380   6.499   2.281  14.548  0.0472  0.3380  0.5362
10322TIP3    H152381   6.541   2.256  14.466 -0.8299  0.0633  0.1629
10322TIP3    H252382   6.570   2.279  14.613  0.9629  1.5359 -0.3763
10323TIP3   OH252383   2.826   2.502  16.864 -0.2792  0.2665 -0.1040
10323TIP3    H152384   2.783   2.417  16.852 -0.9954  0.7820 -1.4155
10323TIP3    H252385   2.833   2.538  16.776  4.0650 -0.2792 -0.2069
10324TIP3   OH252386   0.772   4.309   6.126 -0.5379 -0.3964 -0.5577
10324TIP3    H152387   0.718   4.306   6.205  0.3981  0.6260  0.1577
10324TIP3    H252388   0.757   4.225   6.083  2.2328 -3.0023  2.9669
10325TIP3   OH252389   3.094   1.688   2.071 -0.2985 -0.1873  0.2691
10325TIP3    H152390   3.036   1.735   2.131 -0.8972  0.5669 -0.8629
10325TIP3    H252391   3.034   1.643   2.010  0.2921 -1.0869  0.3353
10326TIP3   OH252392   0.797   2.385  16.668  0.0535 -0.2258  0.3316
10326TIP3    H152393   0.731   2.446  16.636 -1.9253 -2.0536  0.6830
10326TIP3    H252394   0.757   2.346  16.746  1.7075 -1.1673  0.7555
10327TIP3   OH252395   0.877   4.089   2.288 -0.0343 -0.6433 -0.2484
10327TIP3    H152396   0.849   4.040   2.365 -0.2872  0.4221  0.3569
10327TIP3    H252397   0.802   4.086   2.229 -1.4294  1.9363  1.2405
10328TIP3   OH252398   4.236   0.637  16.712 -0.6375 -0.2127 -0.1037
10328TIP3    H152399   4.206   0.584  16.786 -0.7005 -0.5678 -0.3812
10328TIP3    H252400   4.204   0.725  16.732  1.4117  0.2490  1.5001
10329TIP3   OH252401   4.890   5.495   0.908  0.3488  0.2345  0.0812
10329TIP3    H152402   4.954   5.550   0.864  0.2725 -0.9610 -1.6474
10329TIP3    H252403   4.912   5.406   0.879 -1.8299 -0.2420 -0.2823
10330TIP3   OH252404   3.861   3.723  13.386 -0.1701  0.9717  0.2855
10330TIP3    H152405   3.893   3.779  13.316  0.3244 -1.7418 -1.8463
10330TIP3    H252406   3.931   3.659  13.399 -1.5592 -0.4695  1.0293
10331TIP3   OH252407   0.374   1.404  12.901 -0.0953  0.0296  0.7324
10331TIP3    H152408   0.310   1.370  12.838 -1.1413 -2.0395  2.7573
10331TIP3    H252409   0.456   1.360  12.877  0.0343  0.8358 -0.3871
10332TIP3   OH252410   0.804   2.469   6.043  0.5765 -0.3035  0.3534
10332TIP3    H152411   0.793   2.390   6.096 -1.1664  0.3771  1.0771
10332TIP3    H252412   0.767   2.447   5.958 -1.1678  0.0980  0.9608
10333TIP3   OH252413   1.446   2.301   4.057 -0.6975 -0.3356  0.5272
10333TIP3    H152414   1.421   2.219   4.097 -1.2685 -0.2008  0.4525
10333TIP3    H252415   1.404   2.300   3.971  0.4463 -0.5902 -0.0555
10334TIP3   OH252416   3.774   4.902  12.745  0.1553 -0.2496 -0.0538
10334TIP3    H152417   3.870   4.899  12.744  0.1557 -0.3407  0.1859
10334TIP3    H252418   3.747   4.829  12.690  0.2184 -0.6568  0.4531
10335TIP3   OH252419   0.680   6.657   2.844 -0.9910 -0.7138  0.1693
10335TIP3    H152420   0.592   6.621   2.832 -1.3026  0.4884 -1.4736
10335TIP3    H252421   0.734   6.608   2.781 -0.9788  0.1393 -0.5014
10336TIP3   OH252422   4.472   6.578  10.673  0.1392  0.2083  0.0650
10336TIP3    H152423   4.467   6.671  10.650 -0.2356 -0.1024 -1.1486
10336TIP3    H252424   4.382   6.547  10.668  0.2431 -0.1976  0.6181
10337TIP3   OH252425   3.273   3.877  11.579  0.6270  0.1390 -0.2584
10337TIP3    H152426   3.357   3.836  11.559  1.2168  1.0829  0.2314
10337TIP3    H252427   3.239   3.902  11.493  1.8285  1.6177 -0.3415
10338TIP3   OH252428   4.475   1.330   1.699  0.1218  0.1587 -0.0242
10338TIP3    H152429   4.522   1.250   1.722 -0.4461 -0.0915  0.2791
10338TIP3    H252430   4.477   1.333   1.604 -2.1289 -1.6400 -0.2226
10339TIP3   OH252431   0.731   6.403  16.114  0.2657 -0.0047 -0.1207
10339TIP3    H152432   0.816   6.376  16.078 -0.3003 -1.3548 -0.5159
10339TIP3    H252433   0.703   6.475  16.058  0.0522 -1.1482 -1.5346
10340TIP3   OH252434   1.450   1.424   2.941 -0.2079 -0.4130  0.6865
10340TIP3    H152435   1.386   1.442   3.010 -0.0769  0.7881  0.5204
10340TIP3    H252436   1.500   1.505   2.932  2.8496 -1.9447  2.3111
10341TIP3   OH252437   0.155   1.609  16.587 -0.5410  0.0406  0.3851
10341TIP3    H152438   0.202   1.564  16.517  1.6708  1.4417  0.8815
10341TIP3    H252439   0.116   1.539  16.639  1.1132 -1.2283  0.0056
10342TIP3   OH252440   1.289   0.281  15.607  0.0331 -0.9876  0.6395
10342TIP3    H152441   1.374   0.324  15.607  0.0896 -1.0797 -0.1597
10342TIP3    H252442   1.308   0.188  15.623 -0.1092 -0.7149  2.6122
10343TIP3   OH252443   4.042   5.712   5.412 -0.6570 -0.2058  0.0376
10343TIP3    H152444   4.011   5.744   5.497 -0.1598  1.2242 -0.2997
10343TIP3    H252445   4.130   5.749   5.404 -0.8281 -0.0455 -1.2482
10344TIP3   OH252446   6.079   1.202  17.123 -0.0998  0.2867  0.4408
10344TIP3    H152447   6.065   1.159  17.039 -2.2861 -0.3813  1.0696
10344TIP3    H252448   6.060   1.295  17.106  0.2524  0.2839  0.0254
10345TIP3   OH252449   2.859   1.008   4.808 -0.9170 -0.8903  0.1632
10345TIP3    H152450   2.881   0.915   4.814 -0.9000 -0.9437 -0.6712
10345TIP3    H252451   2.896   1.046   4.888 -0.3311 -1.4843  0.1851
10346TIP3   OH252452   3.312   1.983  17.262 -0.1609 -0.6534  0.4853
10346TIP3    H152453   3.241   1.955  17.319  0.3240 -1.0685  0.8957
10346TIP3    H252454   3.345   2.064  17.301 -0.5024 -0.3732  0.2059
10347TIP3   OH252455   3.342   0.440   0.514 -0.0999  0.6205 -0.2856
10347TIP3    H152456   3.352   0.397   0.429  0.2451 -0.2402  0.1742
10347TIP3    H252457   3.287   0.516   0.496  0.5035  0.8219 -1.3955
10348TIP3   OH252458   0.047   1.993  13.567  0.2418 -0.8721 -0.4041
10348TIP3    H152459   0.097   2.023  13.643  0.9504 -1.4011 -0.6499
10348TIP3    H252460   0.026   2.073  13.520 -0.3297 -0.5239  0.4184
10349TIP3   OH252461   6.112   3.771  12.107  0.1256  0.0083  0.7157
10349TIP3    H152462   6.035   3.768  12.051 -0.6176 -0.3952  1.7258
10349TIP3    H252463   6.154   3.855  12.086 -0.5445  0.1945  0.0933
10350TIP3   OH252464   2.294   5.087  12.600 -0.3266  0.1153  0.7111
10350TIP3    H152465   2.350   5.037  12.661  1.1678 -0.3430 -0.9472
10350TIP3    H252466   2.265   5.022  12.537 -0.2768  0.9151 -0.1516
10351TIP3   OH252467   2.638   1.441   1.023 -0.2093 -0.3415 -0.2759
10351TIP3    H152468   2.659   1.481   0.939  1.5384  1.5212  0.9346
10351TIP3    H252469   2.590   1.509   1.071  0.1829 -0.7880  0.7895
10352TIP3   OH252470   2.601   4.753  11.141  0.2610  0.3294  0.0864
10352TIP3    H152471   2.512   4.787  11.129  0.3359  0.0905 -1.3132
10352TIP3    H252472   2.647   4.778  11.061  0.9597 -1.0359  0.0341
10353TIP3   OH252473   6.664   5.591   4.179  0.0294 -0.0436 -0.3244
10353TIP3    H152474   6.696   5.535   4.108  0.4683  0.9126 -0.9036
10353TIP3    H252475   6.679   5.540   4.258  0.4682 -0.7236 -0.8318
10354TIP3   OH252476   1.358   5.660  12.601  0.1335 -0.0809  0.0884
10354TIP3    H152477   1.367   5.631  12.510  1.0397  0.6064 -0.0503
10354TIP3    H252478   1.429   5.615  12.648  1.1275  1.3268 -0.0023
10355TIP3   OH252479   3.378   2.818  12.856  0.8671 -0.2279 -0.1689
10355TIP3    H152480   3.326   2.786  12.929  1.3107  0.6220  0.5381
10355TIP3    H252481   3.344   2.772  12.779 -0.1747 -0.4888  0.4434
10356TIP3   OH252482   6.030   1.566  12.938 -0.2729 -0.4683 -0.2874
10356TIP3    H152483   5.953   1.619  12.917  0.3435  0.5231 -0.1130
10356TIP3    H252484   6.095   1.629  12.966  1.0716 -1.1426 -1.7529
10357TIP3   OH252485   2.287   1.392   0.055 -0.0601  0.2079  0.7270
10357TIP3    H152486   2.262   1.478   0.020 -0.6245 -0.0357  0.5244
10357TIP3    H252487   2.349   1.412   0.125  0.6147  0.7351 -0.0057
10358TIP3   OH252488   5.170   2.291   5.071 -0.0534  0.0608 -0.1787
10358TIP3    H152489   5.228   2.366   5.081  0.1744 -0.2295  0.7510
10358TIP3    H252490   5.164   2.253   5.158  0.0734 -1.1838 -0.6950
10359TIP3   OH252491   0.053   4.146   4.434 -0.3040 -0.0135  0.5575
10359TIP3    H152492   0.108   4.199   4.492  0.5249 -0.0196 -0.2012
10359TIP3    H252493   0.109   4.073   4.408 -0.5068  0.2190 -0.5863
10360TIP3   OH252494   4.143   2.877   4.259  0.0440  0.3957 -0.4997
10360TIP3    H152495   4.067   2.899   4.205  0.2744  0.9651 -0.6021
10360TIP3    H252496   4.182   2.801   4.216  1.2392  1.8677 -2.1896
10361TIP3   OH252497   2.665   2.776   5.591  1.1520  0.4119  0.3343
10361TIP3    H152498   2.695   2.716   5.524  0.6849 -0.1302  0.6041
10361TIP3    H252499   2.730   2.769   5.661  1.1666  0.3182  0.3112
10362TIP3   OH252500   2.568   3.740  11.191  0.1369  0.1998  0.3943
10362TIP3    H152501   2.643   3.745  11.250 -0.3088  1.3384  0.8964
10362TIP3    H252502   2.518   3.820  11.208 -1.8639 -1.0784  1.0009
10363TIP3   OH252503   2.873   6.283   1.586  0.0720 -0.5716 -0.0644
10363TIP3    H152504   2.864   6.218   1.517  1.2350 -1.2368  0.3682
10363TIP3    H252505   2.784   6.303   1.613 -0.3753 -0.6021 -1.4743
10364TIP3   OH252506   6.134   0.684   5.459 -0.0194 -0.6285  0.5988
10364TIP3    H152507   6.096   0.597   5.471  0.2000 -0.7859  0.1944
10364TIP3    H252508   6.190   0.696   5.535  1.1602 -1.5047 -0.0895
10365TIP3   OH252509   6.443   0.388  13.836 -0.0875  0.2718  0.1069
10365TIP3    H152510   6.452   0.479  13.863  2.4494  0.0984  0.0691
10365TIP3    H252511   6.408   0.393  13.747 -0.2224  1.1823  0.2052
10366TIP3   OH252512   1.489   5.529   6.639  0.0743 -0.1051 -0.1432
10366TIP3    H152513   1.532   5.603   6.681  1.2847 -0.2439 -1.0670
10366TIP3    H252514   1.404   5.562   6.612  0.2445  0.6757  0.2593
10367TIP3   OH252515   5.590   5.159   5.790  0.2745  0.1260 -0.4137
10367TIP3    H152516   5.562   5.077   5.829 -2.1358  1.1029  0.0533
10367TIP3    H252517   5.644   5.200   5.858 -2.3112  0.9507  1.2609
10368TIP3   OH252518   6.326   1.447  10.358 -0.5995 -0.1970 -0.6540
10368TIP3    H152519   6.384   1.463  10.432 -0.7596 -1.5733 -0.1954
10368TIP3    H252520   6.332   1.526  10.305  0.3654  0.3724  0.2643
10369TIP3   OH252521   1.994   3.481  13.798  0.7722  0.4382  0.6287
10369TIP3    H152522   2.007   3.434  13.716 -2.3762  0.7920 -0.2174
10369TIP3    H252523   1.958   3.415  13.857 -1.2519  1.1060  0.2285
10370TIP3   OH252524   4.876   0.011   4.514  0.2648 -0.2282  0.1312
10370TIP3    H152525   4.806  -0.051   4.537 -0.1851  0.7672  1.6318
10370TIP3    H252526   4.845   0.054   4.435  0.5687 -1.8587 -0.9181
10371TIP3   OH252527   0.892   6.306   2.638  0.4061  0.3287 -0.4322
10371TIP3    H152528   0.983   6.275   2.632  0.3103 -0.1630  0.3939
10371TIP3    H252529   0.840   6.225   2.641 -0.0343  0.6041 -0.6177
10372TIP3   OH252530   2.647   0.833   0.038  0.4039 -0.3578  0.1464
10372TIP3    H152531   2.636   0.738   0.035 -0.0747 -0.2890 -2.2361
10372TIP3    H252532   2.573   0.864   0.090  0.8276 -1.3011  1.3530
10373TIP3   OH252533   4.763   3.205  10.415 -0.0497  0.1807 -0.2602
10373TIP3    H152534   4.737   3.147  10.344 -0.9299 -1.3612  1.2570
10373TIP3    H252535   4.683   3.255  10.436  0.4086  1.1889 -0.8153
10374TIP3   OH252536   0.817   2.712   4.428 -0.0649 -0.0004  0.2175
10374TIP3    H152537   0.886   2.718   4.494 -1.8846  1.8467  2.0563
10374TIP3    H252538   0.865   2.701   4.345  2.3054 -1.6133  1.6619
10375TIP3   OH252539   4.237   6.179  16.842 -0.2197 -0.4490  0.6517
10375TIP3    H152540   4.182   6.122  16.896 -1.6314 -0.0629 -0.3285
10375TIP3    H252541   4.182   6.255  16.824  1.0800  0.5179  0.6291
10376TIP3   OH252542   0.460   0.248   4.794 -0.3573  0.6069  0.0151
10376TIP3    H152543   0.380   0.238   4.844 -1.4253  0.3994 -1.6556
10376TIP3    H252544   0.443   0.322   4.735 -0.0325 -0.5526 -1.6078
10377TIP3   OH252545   0.980   1.239  12.167 -0.1393 -0.0193  0.2064
10377TIP3    H152546   1.066   1.197  12.165 -0.2609 -0.2922  0.6917
10377TIP3    H252547   0.999   1.332  12.179  0.1120  0.0082 -0.3900
10378TIP3   OH252548   2.745   3.697   3.565  0.0746 -0.4770  0.4901
10378TIP3    H152549   2.726   3.612   3.605  1.4243 -2.9268 -3.5337
10378TIP3    H252550   2.837   3.713   3.585  0.4389 -1.1303 -0.6309
10379TIP3   OH252551   0.315   2.907  10.611  0.4393  0.7197 -0.3324
10379TIP3    H152552   0.383   2.840  10.609 -0.1397  0.1195 -0.2375
10379TIP3    H252553   0.342   2.970  10.545  0.7042  0.1081 -0.8166
10380TIP3   OH252554   6.595   4.235  17.210 -0.1394  0.2241 -0.7041
10380TIP3    H152555   6.506   4.226  17.177 -0.9104 -0.5213  1.3909
10380TIP3    H252556   6.617   4.327  17.198 -1.8871  0.8168  0.3399
10381TIP3   OH252557   5.081   4.525   1.989  0.3794 -0.3050 -0.1913
10381TIP3    H152558   5.022   4.600   1.998  1.0324  0.0144  2.2257
10381TIP3    H252559   5.032   4.462   1.936 -1.2470  0.7988 -0.0749
10382TIP3   OH252560   6.424   1.120   2.017  0.1581 -0.2417  0.0709
10382TIP3    H152561   6.420   1.198   2.072  0.2890  2.2013 -3.0769
10382TIP3    H252562   6.516   1.093   2.020  0.7265  1.4455 -0.8756
10383TIP3   OH252563   0.608   0.058   4.473 -0.2872 -0.1798 -0.0595
10383TIP3    H152564   0.541   0.016   4.528 -0.4694 -1.8137 -1.4507
10383TIP3    H252565   0.565   0.137   4.440 -0.2672  0.6837  1.8668
10384TIP3   OH252566   3.428   4.151   5.538 -0.4353 -0.4141  0.0080
10384TIP3    H152567   3.458   4.193   5.618  1.1641 -0.0190 -0.7721
10384TIP3    H252568   3.341   4.189   5.522  0.3914  1.5973  0.0552
10385TIP3   OH252569   4.440   6.093  11.356  0.5294 -0.0401 -0.0616
10385TIP3    H152570   4.370   6.060  11.301 -0.5759  1.0155  0.6619
10385TIP3    H252571   4.444   6.187  11.337  0.2579  0.3132  1.4623
10386TIP3   OH252572   5.774   0.044  10.439 -0.0861  0.1542 -0.2660
10386TIP3    H152573   5.758   0.127  10.485 -2.2114 -0.1959 -0.2538
10386TIP3    H252574   5.734   0.056  10.353  0.9060 -0.3653 -0.8205
10387TIP3   OH252575   5.444   5.575  12.377  0.2185  0.0399  0.2058
10387TIP3    H152576   5.361   5.611  12.407 -0.0483 -1.0175  0.8004
10387TIP3    H252577   5.425   5.540  12.290  0.0067 -0.2790  0.3758
10388TIP3   OH252578   1.038   6.491   5.108  0.9268  0.8282  0.1194
10388TIP3    H152579   0.977   6.548   5.060 -0.9405 -0.3987  0.9286
10388TIP3    H252580   1.109   6.475   5.046 -0.5337  0.7360 -1.6369
10389TIP3   OH252581   0.634   2.562  14.482  0.0373 -0.4738 -0.4446
10389TIP3    H152582   0.658   2.535  14.571  1.8069  0.6710 -0.5261
10389TIP3    H252583   0.542   2.585  14.489  0.3056  0.3135  1.3060
10390TIP3   OH252584   3.082   5.111   3.568 -0.2496  0.1304 -0.4269
10390TIP3    H152585   3.071   5.184   3.508  0.0055  0.4834 -0.0490
10390TIP3    H252586   3.026   5.133   3.643 -0.1739 -0.0647 -0.3134
10391TIP3   OH252587   2.115   4.001  15.326  0.6925  0.1636  0.1890
10391TIP3    H152588   2.196   3.967  15.288 -0.2312 -0.4136 -1.3426
10391TIP3    H252589   2.133   4.093  15.345  1.8169 -0.0601  0.2491
10392TIP3   OH252590   3.468   2.515  15.968 -0.2705 -0.0509 -0.2936
10392TIP3    H152591   3.461   2.609  15.983 -2.3912 -0.2345  0.2827
10392TIP3    H252592   3.425   2.500  15.884  0.9249 -0.4170 -0.8598
10393TIP3   OH252593   1.164   5.952  16.755 -0.0497  0.3250  0.3642
10393TIP3    H152594   1.072   5.968  16.778 -0.3104  0.1658 -0.5421
10393TIP3    H252595   1.182   6.016  16.686 -0.1700 -1.1628 -1.0888
10394TIP3   OH252596   0.737   5.598  12.081 -0.2775  0.7100  0.4715
10394TIP3    H152597   0.732   5.613  11.986  2.0481 -1.3520 -0.0855
10394TIP3    H252598   0.757   5.685  12.117  0.0169  1.3192 -1.0664
10395TIP3   OH252599   0.292   5.766  17.265 -0.4062  0.1271 -0.1106
10395TIP3    H152600   0.304   5.847  17.314 -1.8328 -0.0889  0.6489
10395TIP3    H252601   0.364   5.765  17.202 -0.1307  1.7818  0.1367
10396TIP3   OH252602   1.326   0.832  14.155 -0.2355 -0.9333 -0.2091
10396TIP3    H152603   1.347   0.880  14.235 -1.6346  1.2517 -1.0650
10396TIP3    H252604   1.410   0.796  14.127  0.7154  0.2044  1.0101
10397TIP3   OH252605   4.580   4.086  16.333 -0.7176 -0.2533  0.2395
10397TIP3    H152606   4.523   4.015  16.303  1.4047 -1.5254 -1.0131
10397TIP3    H252607   4.583   4.147  16.259 -0.8282  0.0662  0.4960
10398TIP3   OH252608   2.608   6.383  16.307  1.1202 -0.0754  0.3891
10398TIP3    H152609   2.592   6.422  16.221  0.9147 -0.9124  0.0320
10398TIP3    H252610   2.698   6.353  16.304  1.0642 -0.2466  0.4115
10399TIP3   OH252611   0.204   2.474   1.346 -0.1151  0.2789  0.2540
10399TIP3    H152612   0.261   2.534   1.299 -1.5328  2.1776  0.8305
10399TIP3    H252613   0.134   2.453   1.285 -1.7202  2.4010  1.2156
10400TIP3   OH252614   1.274   1.378  14.421  0.6281 -0.3845  0.3938
10400TIP3    H152615   1.322   1.305  14.382  1.5810  0.7505 -0.6505
10400TIP3    H252616   1.340   1.447  14.430 -0.2413  0.3479  1.3786
10401TIP3   OH252617   0.743   3.041  15.039  0.3464  0.2374  0.1436
10401TIP3    H152618   0.818   3.041  14.980  0.0766  0.4041 -0.2119
10401TIP3    H252619   0.753   2.963  15.092  1.4986  0.9634  1.0476
10402TIP3   OH252620   4.079   0.605   2.131 -0.0441  0.2225  0.5368
10402TIP3    H152621   4.110   0.694   2.146 -0.3834  0.7417 -1.5047
10402TIP3    H252622   3.983   0.613   2.125 -0.1578 -0.4493  1.3103
10403TIP3   OH252623   5.292   5.622   1.998 -0.5812  0.0814  0.0095
10403TIP3    H152624   5.385   5.643   2.004 -0.7097  0.4431  0.7536
10403TIP3    H252625   5.286   5.532   2.030 -0.3847 -0.2418 -0.8192
10404TIP3   OH252626   1.895   2.009  15.813 -1.2120 -0.0671  0.1385
10404TIP3    H152627   1.851   2.037  15.893 -0.7575  1.2315 -0.0501
10404TIP3    H252628   1.831   1.953  15.769 -1.9648  0.2812  0.7712
10405TIP3   OH252629   1.405   1.380  13.596  0.2678  0.3720 -0.3296
10405TIP3    H152630   1.387   1.377  13.502  0.4855  0.3547 -0.3710
10405TIP3    H252631   1.489   1.425  13.603  1.2891 -1.4328 -0.2806
10406TIP3   OH252632   4.809   5.825   1.415  0.0912  0.1437  0.5135
10406TIP3    H152633   4.870   5.874   1.471  1.4057 -2.1477  1.1956
10406TIP3    H252634   4.862   5.795   1.341 -0.4926 -0.8390  0.4807
10407TIP3   OH252635   2.037   4.607   0.445 -0.2912 -0.0210  0.3872
10407TIP3    H152636   2.079   4.521   0.450  0.9992  0.6488  3.3912
10407TIP3    H252637   2.078   4.650   0.371  1.2992 -0.9313  0.7054
10408TIP3   OH252638   2.155   5.868  14.345 -0.3829  0.5140  0.0288
10408TIP3    H152639   2.132   5.945  14.397  2.4694  1.6641 -0.2469
10408TIP3    H252640   2.192   5.807  14.409 -1.7573 -0.2882  0.0951
10409TIP3   OH252641   2.102   6.747  11.681  0.0154  0.1466 -0.3337
10409TIP3    H152642   2.100   6.842  11.671  2.0343  0.1971 -0.4756
10409TIP3    H252643   2.140   6.715  11.599 -2.5243 -0.9849 -1.1738
10410TIP3   OH252644   6.057   6.741  12.887 -0.3951 -0.0140  0.0620
10410TIP3    H152645   6.077   6.824  12.843  0.5783 -0.5983 -0.6368
10410TIP3    H252646   6.068   6.760  12.980  2.3878  0.0453 -0.1962
10411TIP3   OH252647   0.973   3.412   4.166  0.4800 -0.3812 -0.5971
10411TIP3    H152648   1.039   3.409   4.097 -0.0419  1.9778 -1.3252
10411TIP3    H252649   0.930   3.497   4.153 -2.1776 -1.4823  0.3185
10412TIP3   OH252650   0.459   5.627  15.725 -0.0776  0.3091  0.2360
10412TIP3    H152651   0.458   5.544  15.677  0.6643  0.0803  0.6031
10412TIP3    H252652   0.464   5.601  15.817  1.5027  0.7633  0.2978
10413TIP3   OH252653   5.329   3.711   4.985 -0.0003 -0.2851 -0.2441
10413TIP3    H152654   5.278   3.770   4.930 -1.9158 -0.0607  1.6200
10413TIP3    H252655   5.263   3.663   5.036  1.6152 -1.2432  1.0538
10414TIP3   OH252656   0.721   4.397  15.408  0.1437 -0.3260 -0.5349
10414TIP3    H152657   0.735   4.404  15.313 -0.7199 -0.6774 -0.6908
10414TIP3    H252658   0.770   4.319  15.433  1.4976  0.5014 -0.4432
10415TIP3   OH252659   2.122   1.265  12.464  0.3047  0.0433  0.5453
10415TIP3    H152660   2.102   1.213  12.387 -1.0278  0.6982  0.4225
10415TIP3    H252661   2.188   1.328  12.434 -0.5334  0.5883 -0.2025
10416TIP3   OH252662   0.003   4.029  16.598  0.3241  0.0905 -0.0103
10416TIP3    H152663   0.027   4.097  16.660  1.2539 -0.5483  0.3447
10416TIP3    H252664   0.059   3.954  16.620  0.6277 -0.1811 -1.5483
10417TIP3   OH252665   3.469   0.919  17.171 -0.0875 -0.5880  0.0793
10417TIP3    H152666   3.492   0.831  17.202 -0.8547 -0.6994  0.3596
10417TIP3    H252667   3.448   0.907  17.079 -1.1822 -0.9030  0.3502
10418TIP3   OH252668   5.374   2.851   3.835  0.1680  0.1130  0.2523
10418TIP3    H152669   5.421   2.932   3.814  0.5092 -0.3102 -0.6833
10418TIP3    H252670   5.428   2.809   3.903  0.0487  0.6144  0.6579
10419TIP3   OH252671   3.661   1.530  15.611  0.4974 -0.2348  0.4646
10419TIP3    H152672   3.685   1.449  15.564 -0.1738 -0.7475  0.9886
10419TIP3    H252673   3.584   1.562  15.565  0.1285 -0.4761  0.9040
10420TIP3   OH252674   6.547   3.112   3.513 -0.6040 -0.1389 -0.3039
10420TIP3    H152675   6.625   3.158   3.483 -0.2384 -0.1100  0.6449
10420TIP3    H252676   6.497   3.178   3.561 -0.9847 -0.2804 -0.4951
10421TIP3   OH252677   3.204   4.319  11.870  0.2178 -0.1065 -0.5449
10421TIP3    H152678   3.186   4.269  11.790 -2.3029 -0.2471  0.0331
10421TIP3    H252679   3.149   4.279  11.937 -0.6199  2.3368  0.3492
10422TIP3   OH252680   6.587   4.458   1.219 -0.5733  0.2617  0.0949
10422TIP3    H152681   6.531   4.401   1.273 -3.6850 -0.6352 -3.6594
10422TIP3    H252682   6.652   4.398   1.182 -1.4660 -0.1687 -0.8415
10423TIP3   OH252683   4.625   3.417   5.259  0.1575  0.1558  0.5004
10423TIP3    H152684   4.561   3.487   5.245 -2.1267 -1.0690  3.7127
10423TIP3    H252685   4.612   3.358   5.185 -0.9656  0.9647  0.0267
10424TIP3   OH252686   2.032   2.528  15.858 -0.4455  0.1890  0.1953
10424TIP3    H152687   1.997   2.496  15.775  0.5321  1.5741 -0.7926
10424TIP3    H252688   2.121   2.556  15.837 -0.0250  0.1752  1.8154
10425TIP3   OH252689   6.252   6.604   1.840 -0.2565 -0.5717 -0.0228
10425TIP3    H152690   6.253   6.509   1.851  0.8608 -0.4681  1.0066
10425TIP3    H252691   6.291   6.638   1.921  1.5985  0.6372 -1.3423
10426TIP3   OH252692   5.230   1.652   2.709 -0.1211  0.4993  0.0750
10426TIP3    H152693   5.307   1.683   2.661 -0.3041 -0.4239 -0.8312
10426TIP3    H252694   5.172   1.728   2.713  1.1995  1.5051  1.6108
10427TIP3   OH252695   1.259   3.278  15.995 -0.0553  0.0003 -0.1227
10427TIP3    H152696   1.223   3.320  16.074  0.6025  1.1554 -0.4086
10427TIP3    H252697   1.182   3.251  15.945 -0.4865 -0.0119  0.5305
10428TIP3   OH252698   2.063   5.854   2.485 -0.2668 -0.0911  0.5558
10428TIP3    H152699   2.142   5.804   2.464 -0.4502 -0.5199  0.8594
10428TIP3    H252700   2.074   5.937   2.439  0.4781 -0.0405  0.8018
10429TIP3   OH252701   1.755   5.820  14.834  0.3768 -0.3645 -0.7336
10429TIP3    H152702   1.788   5.894  14.784  0.0321 -0.6511 -1.4009
10429TIP3    H252703   1.774   5.842  14.925  2.4439 -0.5511 -1.0764
10430TIP3   OH252704   2.139   6.619   5.969 -0.3569  0.2110 -0.4303
10430TIP3    H152705   2.210   6.664   5.923 -0.3553 -0.3770 -1.0225
10430TIP3    H252706   2.164   6.621   6.061  0.4883 -0.1017 -0.6445
10431TIP3   OH252707   5.402   4.645  13.780 -0.4879  0.4451  0.4497
10431TIP3    H152708   5.426   4.639  13.872 -1.0913 -0.8599  0.5421
10431TIP3    H252709   5.474   4.694  13.739  1.4011 -1.6828  1.0455
10432TIP3   OH252710   1.130   3.230  16.705 -1.1971 -0.2979 -0.0445
10432TIP3    H152711   1.048   3.182  16.709 -0.5842 -1.3279  0.4227
10432TIP3    H252712   1.167   3.224  16.793  0.7287 -2.3017 -0.9065
10433TIP3   OH252713   3.661   3.662   5.652 -0.0153  0.2140  0.1873
10433TIP3    H152714   3.726   3.724   5.620  1.2857 -0.8921  0.5955
10433TIP3    H252715   3.665   3.670   5.747 -0.9755  0.6226  0.1992
10434TIP3   OH252716   6.259   1.648  13.315  0.0226 -0.0594 -0.1559
10434TIP3    H152717   6.316   1.697  13.374  0.2081  0.7126 -0.9631
10434TIP3    H252718   6.304   1.564  13.303  1.2675  0.7179 -1.1644
10435TIP3   OH252719   4.955   5.197  15.322 -0.3625 -0.2311  0.1991
10435TIP3    H152720   4.914   5.156  15.398  1.3993 -0.8827  0.8681
10435TIP3    H252721   5.022   5.255  15.359  0.4740 -0.4899 -0.8320
10436TIP3   OH252722   2.772   3.277   6.716  0.5129  0.0350  0.1490
10436TIP3    H152723   2.820   3.295   6.797 -1.0589  0.9360  0.9293
10436TIP3    H252724   2.751   3.364   6.681  0.3969 -0.3453 -0.7438
10437TIP3   OH252725   0.931   1.929  14.298  0.0236 -0.2413  0.3179
10437TIP3    H152726   1.019   1.964  14.283  0.4653 -0.5902  1.9251
10437TIP3    H252727   0.872   2.001  14.273  0.7368 -0.1268 -1.0994
10438TIP3   OH252728   2.864   2.172  14.979 -0.2235  0.0943 -0.3383
10438TIP3    H152729   2.879   2.154  14.886  0.9669 -1.2370  0.0792
10438TIP3    H252730   2.831   2.089  15.015  2.3955 -0.4743  1.0274
10439TIP3   OH252731   3.611   3.569   0.393  0.2579 -0.0659 -0.3467
10439TIP3    H152732   3.635   3.651   0.438 -0.5610 -0.0859  0.1528
10439TIP3    H252733   3.574   3.597   0.310  2.2385 -0.0468 -1.2655
10440TIP3   OH252734   1.679   4.054   4.145  0.0000  0.1998  0.1183
10440TIP3    H152735   1.631   4.003   4.211  0.6033  0.8822  1.1082
10440TIP3    H252736   1.620   4.127   4.126 -0.6441 -0.5656 -0.9245
10441TIP3   OH252737   0.975   1.652  15.210 -0.4459 -0.2773 -0.8439
10441TIP3    H152738   0.902   1.592  15.193 -1.0662  0.7791 -2.1686
10441TIP3    H252739   0.938   1.739  15.194  0.4579  0.4716  0.9151
10442TIP3   OH252740   0.120   0.992   1.987  0.2721  0.2464  0.5501
10442TIP3    H152741   0.210   0.958   1.990  1.4990  3.1608  1.0456
10442TIP3    H252742   0.109   1.020   1.897 -0.2849 -0.3953  0.4156
10443TIP3   OH252743   6.545   0.046  11.503  0.0744 -0.0223 -0.1548
10443TIP3    H152744   6.498   0.013  11.427  0.8922 -0.6633 -0.3993
10443TIP3    H252745   6.487   0.028  11.577  0.3225 -1.6802 -0.3337
10444TIP3   OH252746   4.868   4.206   5.855 -0.8765  0.0379  0.3558
10444TIP3    H152747   4.917   4.284   5.829 -0.6926  0.4574  1.8570
10444TIP3    H252748   4.881   4.200   5.950 -0.2067 -2.2909  0.1939
10445TIP3   OH252749   3.593   5.632  17.234  0.4502 -0.0774  0.2852
10445TIP3    H152750   3.527   5.666  17.294 -0.2288 -1.5597  0.4384
10445TIP3    H252751   3.657   5.588  17.290  0.2407 -0.7685 -0.0037
10446TIP3   OH252752   2.571   3.499  13.537 -0.0735 -0.3371  0.0489
10446TIP3    H152753   2.529   3.585  13.538  0.8358  0.1515 -1.1124
10446TIP3    H252754   2.505   3.439  13.574 -0.6993  0.8537  0.9059
10447TIP3   OH252755   2.370   0.544  14.171  0.1564  0.2716  0.3151
10447TIP3    H152756   2.417   0.489  14.108 -0.8306 -0.2653  0.0280
10447TIP3    H252757   2.433   0.612  14.195  1.4393 -0.9837  0.7146
10448TIP3   OH252758   0.274   3.992   5.332  0.2830 -0.2965  0.0489
10448TIP3    H152759   0.329   4.010   5.255  0.1942 -1.3990 -0.2900
10448TIP3    H252760   0.330   3.942   5.391  0.8284  1.7771  1.3894
10449TIP3   OH252761   3.547   3.698   6.469 -0.0708  0.2537 -0.0959
10449TIP3    H152762   3.503   3.613   6.461 -0.1547  0.3962 -1.1857
10449TIP3    H252763   3.477   3.762   6.455  0.2314  0.4960 -0.4778
10450TIP3   OH252764   2.109   1.543  14.080  0.4240  0.0306  0.3302
10450TIP3    H152765   2.063   1.459  14.080 -0.1985  0.3508 -0.5242
10450TIP3    H252766   2.168   1.538  14.005  0.7633  0.1577  0.5875
10451TIP3   OH252767   2.120   3.061   3.020 -0.4369 -0.1409  0.1997
10451TIP3    H152768   2.040   3.029   2.978 -0.8449  0.4197  0.5355
10451TIP3    H252769   2.092   3.093   3.106  0.6345 -2.7835  1.6603
10452TIP3   OH252770   2.714   4.712   0.438  0.0357 -0.2607 -0.2214
10452TIP3    H152771   2.700   4.703   0.344  0.2455  0.9068 -0.3846
10452TIP3    H252772   2.626   4.728   0.473  0.0187 -0.2096 -0.2857
10453TIP3   OH252773   4.193   3.432  14.842  0.7152 -0.2440 -0.5811
10453TIP3    H152774   4.204   3.348  14.886  0.0868  0.0884  0.2376
10453TIP3    H252775   4.197   3.410  14.749  0.2963 -1.2297 -0.3873
10454TIP3   OH252776   4.532   4.553  14.836  0.5551 -0.5377 -0.1142
10454TIP3    H152777   4.468   4.526  14.771  0.4586  0.7405 -0.5677
10454TIP3    H252778   4.547   4.646  14.819  0.0409  0.0081  2.0774
10455TIP3   OH252779   4.504   5.938  16.805  0.3890 -0.7367  0.0364
10455TIP3    H152780   4.434   5.876  16.822  0.4100 -0.6381  0.4788
10455TIP3    H252781   4.536   5.914  16.718 -0.3832 -0.5912 -0.2964
10456TIP3   OH252782   1.829   6.606   6.568 -0.2803  0.4393  0.2366
10456TIP3    H152783   1.881   6.573   6.494  0.4353 -0.4804  1.1213
10456TIP3    H252784   1.860   6.695   6.580  0.8836  0.0157  0.5341
10457TIP3   OH252785   0.297   0.104   1.485 -0.2400  0.4656  0.3969
10457TIP3    H152786   0.364   0.115   1.418  0.9542 -1.6207  1.1458
10457TIP3    H252787   0.343   0.117   1.568 -1.0477  0.2640  0.8927
10458TIP3   OH252788   1.436   1.148  13.394 -0.0746 -0.7089 -0.4375
10458TIP3    H152789   1.503   1.211  13.369  0.2592 -0.7376  0.3607
10458TIP3    H252790   1.359   1.201  13.414 -0.2110 -0.6575 -1.0727
10459TIP3   OH252791   5.164   0.301   2.431  0.1672  0.3774 -0.2234
10459TIP3    H152792   5.243   0.316   2.483  0.7866  1.9848 -1.5293
10459TIP3    H252793   5.196   0.291   2.342 -0.8563 -2.4810 -0.3816
10460TIP3   OH252794   2.512   4.824   2.290 -0.4253  0.1577  0.4322
10460TIP3    H152795   2.498   4.847   2.382  1.1420  1.6970  0.3272
10460TIP3    H252796   2.536   4.731   2.293  0.1193  0.3163  1.6352
10461TIP3   OH252797   1.442   6.193   1.240 -0.5965  0.4530 -0.0773
10461TIP3    H152798   1.506   6.262   1.223 -1.5871  3.2572  5.3085
10461TIP3    H252799   1.491   6.125   1.285 -0.7147  0.9588  0.8473
10462TIP3   OH252800   6.515   1.329  12.793  0.0551  0.5923 -0.2620
10462TIP3    H152801   6.499   1.423  12.796  0.0425  0.5917  2.0138
10462TIP3    H252802   6.499   1.304  12.702 -0.3710  2.6992 -0.8207
10463TIP3   OH252803   2.397   0.142   1.224  0.0541  0.3750 -0.2173
10463TIP3    H152804   2.307   0.174   1.230 -0.5486 -1.0866 -0.8427
10463TIP3    H252805   2.404   0.109   1.134  1.0453  0.0001 -0.0120
10464TIP3   OH252806   0.667   6.417  15.213  0.1077 -0.2293 -0.1901
10464TIP3    H152807   0.749   6.439  15.259 -0.5606 -0.0991  0.9856
10464TIP3    H252808   0.693   6.349  15.150  1.3104  0.5641 -0.5859
10465TIP3   OH252809   2.775   5.455   2.742  0.0771 -0.4832  0.3203
10465TIP3    H152810   2.870   5.463   2.753 -0.2488  1.8685  2.0467
10465TIP3    H252811   2.755   5.366   2.773  1.6682 -0.9785  0.0271
10466TIP3   OH252812   5.002   4.303   4.316  0.4344 -0.4318 -0.0642
10466TIP3    H152813   5.051   4.266   4.242  0.8840 -0.4552  0.2375
10466TIP3    H252814   4.943   4.367   4.277 -0.8589 -1.9262 -0.6984
10467TIP3   OH252815   2.134   1.377  15.691 -0.2998  0.0840 -0.5290
10467TIP3    H152816   2.109   1.416  15.774  1.6759  3.1747 -1.2183
10467TIP3    H252817   2.186   1.301  15.715 -1.4506 -0.2825  0.9673
10468TIP3   OH252818   4.383   4.028   5.330 -0.3765  0.4392 -0.0271
10468TIP3    H152819   4.416   3.956   5.276 -0.1447  0.5303 -0.0121
10468TIP3    H252820   4.449   4.037   5.399 -2.1440 -1.7269  2.1399
10469TIP3   OH252821   2.441   5.301   1.250 -0.4296 -0.1081 -0.5995
10469TIP3    H152822   2.449   5.370   1.183  1.7709  0.9563  0.6733
10469TIP3    H252823   2.496   5.230   1.217 -0.3362 -0.0843 -0.4915
10470TIP3   OH252824   6.583   4.961  16.815  0.5092  0.3537 -0.1609
10470TIP3    H152825   6.656   4.915  16.856 -0.7825 -2.2927 -0.6413
10470TIP3    H252826   6.507   4.939  16.868 -0.4122  0.7267 -1.2801
10471TIP3   OH252827   2.751   0.573   0.285 -0.1947  0.3799 -0.6395
10471TIP3    H152828   2.676   0.517   0.263  0.6696 -0.2588 -2.1488
10471TIP3    H252829   2.806   0.571   0.206  1.5716  0.5688  0.5353
10472TIP3   OH252830   5.642   4.298  16.771  0.7663 -0.2184 -0.8143
10472TIP3    H152831   5.627   4.390  16.791 -1.4194 -0.3385 -1.6587
10472TIP3    H252832   5.730   4.280  16.806  0.4931  1.6759  1.0537
10473TIP3   OH252833   3.524   0.799   3.751 -0.1592  0.1496 -0.2244
10473TIP3    H152834   3.507   0.885   3.714 -0.1590 -0.2240 -1.1105
10473TIP3    H252835   3.546   0.744   3.676  1.3730 -0.2624  0.4792
10474TIP3   OH252836   2.240   5.489  13.168 -0.1362 -0.0174 -0.1208
10474TIP3    H152837   2.298   5.495  13.244  0.7783  0.5032 -0.8441
10474TIP3    H252838   2.185   5.567  13.172 -2.2795 -1.4825  1.6994
10475TIP3   OH252839   0.053   5.992  16.872 -0.0093 -0.4769  0.0485
10475TIP3    H152840   0.083   6.071  16.828  1.3894 -0.4727  0.9572
10475TIP3    H252841   0.007   6.025  16.950 -1.2163 -0.5314 -0.6047
10476TIP3   OH252842   0.731   3.295  16.458 -0.1926 -0.4823 -0.1062
10476TIP3    H152843   0.825   3.284  16.473  0.0191 -2.1797 -2.2473
10476TIP3    H252844   0.725   3.334  16.371 -1.5070  1.3692  0.7253
10477TIP3   OH252845   5.582   0.306   1.568  0.2761  0.2341 -0.1886
10477TIP3    H152846   5.566   0.394   1.602  1.0747 -0.5687  2.5065
10477TIP3    H252847   5.593   0.318   1.474 -0.3166  2.9074  0.0191
10478TIP3   OH252848   0.885   1.286   5.760 -0.0781  0.2222  0.4453
10478TIP3    H152849   0.933   1.293   5.843  1.4610 -0.9483 -0.2889
10478TIP3    H252850   0.861   1.193   5.755 -0.9514  0.4719  0.0050
10479TIP3   OH252851   3.343   3.295   2.387 -0.6877 -0.0020 -0.2909
10479TIP3    H152852   3.319   3.203   2.383 -1.5790  0.2669 -2.1963
10479TIP3    H252853   3.335   3.318   2.480 -0.9000 -1.6999  0.1469
10480TIP3   OH252854   0.308   3.133   4.955  0.2860  0.4380 -0.4148
10480TIP3    H152855   0.226   3.084   4.946  0.2235  0.1249  1.5296
10480TIP3    H252856   0.286   3.221   4.923 -0.8864  0.4102  0.2348
10481TIP3   OH252857   1.371   3.315   5.551  0.4045 -0.1839 -0.1592
10481TIP3    H152858   1.426   3.311   5.473 -0.0260 -1.9822 -0.4075
10481TIP3    H252859   1.414   3.258   5.614 -0.6642 -0.8906 -0.0438
10482TIP3   OH252860   5.697   0.143   4.461  0.2752 -0.5853  0.1119
10482TIP3    H152861   5.625   0.153   4.523 -0.7815 -2.1176 -0.8225
10482TIP3    H252862   5.775   0.170   4.511 -0.8388  0.6184  1.2950
10483TIP3   OH252863   2.634   1.163  13.194 -0.0322 -0.7376 -0.1590
10483TIP3    H152864   2.646   1.243  13.142  1.0480 -0.2854  0.7175
10483TIP3    H252865   2.597   1.194  13.277 -0.2415 -1.2358 -0.0634
10484TIP3   OH252866   5.093   0.612   1.443  0.3455  0.5453 -0.1394
10484TIP3    H152867   5.177   0.650   1.467 -0.1264  0.8278  1.1419
10484TIP3    H252868   5.028   0.664   1.491 -0.5033 -0.1450 -0.5014
10485TIP3   OH252869   6.675   1.675  10.686 -0.1484 -0.2488  0.7224
10485TIP3    H152870   6.707   1.719  10.607  0.5577  0.0331  1.1628
10485TIP3    H252871   6.748   1.621  10.715 -0.1005  0.2925  1.6523
10486TIP3   OH252872   1.867   5.072   4.648 -0.3143 -0.3936 -0.7290
10486TIP3    H152873   1.781   5.113   4.641 -0.4772 -0.4840  0.4909
10486TIP3    H252874   1.929   5.145   4.648 -0.5900 -0.0874  1.2047
10487TIP3   OH252875   1.213   5.510  12.804  0.2788  0.3537 -0.1520
10487TIP3    H152876   1.228   5.524  12.710  0.7510  1.3801  0.0567
10487TIP3    H252877   1.215   5.415  12.815 -2.4863  0.0173 -1.5984
10488TIP3   OH252878   4.438   0.164   0.054  0.1445  0.1649 -0.1417
10488TIP3    H152879   4.493   0.108  -0.001 -0.1069 -0.9069  0.6707
10488TIP3    H252880   4.397   0.104   0.117 -0.8664  1.1296  0.1622
10489TIP3   OH252881   1.282   2.916  10.504 -0.1618  0.1892  0.2762
10489TIP3    H152882   1.203   2.958  10.536 -0.2046  0.0333  0.3800
10489TIP3    H252883   1.269   2.908  10.409 -0.9359 -1.1880  0.4631
10490TIP3   OH252884   1.355   4.387   2.664  0.1109  0.4250  0.5668
10490TIP3    H152885   1.352   4.320   2.733  0.5225 -0.1961  0.0039
10490TIP3    H252886   1.442   4.377   2.626  0.3169  1.5476  0.7119
10491TIP3   OH252887   5.146   3.999  14.825  0.0853 -0.4490  0.3649
10491TIP3    H152888   5.069   4.052  14.844  1.4191  1.6528  0.3115
10491TIP3    H252889   5.118   3.909  14.840 -2.8134  0.0633 -1.2548
10492TIP3   OH252890   6.242   2.926   5.351 -0.7929  0.3634  0.4706
10492TIP3    H152891   6.274   3.008   5.390  2.5182 -0.8773  0.7066
10492TIP3    H252892   6.244   2.863   5.423  1.8952 -1.0868 -0.7194
10493TIP3   OH252893   0.772   4.393   0.994 -0.1139 -0.0036  0.2860
10493TIP3    H152894   0.746   4.481   1.020  0.4374  0.6118 -1.1362
10493TIP3    H252895   0.690   4.350   0.969 -0.4331 -0.0387  1.3511
10494TIP3   OH252896   5.656   6.423   3.646  0.0428  0.0674  0.1312
10494TIP3    H152897   5.692   6.452   3.730  0.5158  0.0267 -0.0528
10494TIP3    H252898   5.714   6.352   3.619  1.7523  1.9884 -1.6556
10495TIP3   OH252899   0.585   3.253  16.992  0.3840  0.1726 -0.1432
10495TIP3    H152900   0.526   3.227  16.922  0.4315  2.4922 -1.1394
10495TIP3    H252901   0.532   3.249  17.071 -1.2403  2.2400 -1.0148
10496TIP3   OH252902   3.224   3.357   4.286 -0.0650 -0.4408  0.1326
10496TIP3    H152903   3.180   3.401   4.213  1.0603 -0.1715 -0.4059
10496TIP3    H252904   3.311   3.395   4.288  0.9307 -2.5614 -0.2795
10497TIP3   OH252905   2.768   6.694   5.912 -0.2428 -0.4067  0.3443
10497TIP3    H152906   2.807   6.650   5.836 -0.5650 -0.6934  0.3429
10497TIP3    H252907   2.834   6.759   5.938 -0.3476  0.0531 -0.4991
10498TIP3   OH252908   6.180   2.573  14.686  0.6631  0.0212 -0.1229
10498TIP3    H152909   6.124   2.531  14.620  2.1587 -0.6802 -0.9914
10498TIP3    H252910   6.220   2.500  14.733  1.3527  0.5016  0.0465
10499TIP3   OH252911   0.245   4.620  12.642  0.0634 -0.4510  0.6092
10499TIP3    H152912   0.173   4.622  12.705 -0.6796 -0.8477 -0.1989
10499TIP3    H252913   0.280   4.531  12.648 -0.5130 -0.7342 -0.0699
10500TIP3   OH252914   6.640   2.892   0.351  0.4044 -0.7258 -0.0676
10500TIP3    H152915   6.567   2.901   0.412 -1.4738 -1.9723 -2.0070
10500TIP3    H252916   6.657   2.798   0.348  0.7059 -0.6486 -1.1524
10501TIP3   OH252917   2.735   5.027   6.115 -0.0585  0.4978  0.0823
10501TIP3    H152918   2.761   5.021   6.206 -0.5330 -0.1539  0.1862
10501TIP3    H252919   2.657   4.971   6.109  2.0724 -2.6180 -1.5014
10502TIP3   OH252920   2.631   5.657   6.357  0.2713  0.0958  0.0619
10502TIP3    H152921   2.657   5.696   6.440 -0.2002  0.8647 -0.1470
10502TIP3    H252922   2.536   5.655   6.360  0.2801 -1.0086  0.0474
10503TIP3   OH252923   2.444   0.529  13.660 -0.3536  0.6508  0.6001
10503TIP3    H152924   2.351   0.548  13.665 -0.4591  0.9686 -1.6620
10503TIP3    H252925   2.480   0.597  13.603  1.6420  1.6589  2.8853
10504TIP3   OH252926   3.854   4.994   4.860 -0.4034  0.3438 -0.0581
10504TIP3    H152927   3.801   4.966   4.786  1.8609 -0.9601 -1.2912
10504TIP3    H252928   3.882   4.913   4.902  0.8356  0.9613  0.3703
10505TIP3   OH252929   1.464   2.601  10.488 -0.1597 -0.2448 -0.3028
10505TIP3    H152930   1.531   2.572  10.426 -1.8710 -2.2872 -1.3312
10505TIP3    H252931   1.455   2.695  10.472  1.5498 -0.1687 -1.0114
10506TIP3   OH252932   4.540   5.256  12.131  0.3212 -0.0415 -0.0565
10506TIP3    H152933   4.550   5.164  12.108 -1.9447 -0.3623  0.0284
10506TIP3    H252934   4.588   5.266  12.213  0.3934 -1.1883  0.0499
10507TIP3   OH252935   6.285   3.121  13.496  0.0272 -0.0404  0.3843
10507TIP3    H152936   6.194   3.121  13.466 -0.0908 -0.5362  0.7365
10507TIP3    H252937   6.296   3.206  13.538 -0.1129  0.2397 -0.1353
10508TIP3   OH252938   4.870   5.159   2.319  0.6338 -0.2774  0.0131
10508TIP3    H152939   4.841   5.228   2.259  1.5256 -0.6256 -0.8510
10508TIP3    H252940   4.882   5.203   2.403 -1.1293  0.1212  0.0988
10509TIP3   OH252941   3.554   5.680   4.449  0.5110  0.1071  0.0800
10509TIP3    H152942   3.577   5.591   4.422  1.3189  0.9629 -2.3314
10509TIP3    H252943   3.624   5.705   4.510  3.4160  0.8352 -3.2277
10510TIP3   OH252944   0.479   1.199   6.486  0.3774  0.5381 -0.8093
10510TIP3    H152945   0.417   1.228   6.420 -0.1858  1.2925  0.0354
10510TIP3    H252946   0.435   1.125   6.528  0.2255  0.8090 -0.4900
10511TIP3   OH252947   5.890   0.882  10.648 -0.2123 -0.0865  0.4238
10511TIP3    H152948   5.957   0.923  10.593  0.5305 -1.3567  0.3262
10511TIP3    H252949   5.808   0.896  10.601  0.1992  0.2221 -0.2124
10512TIP3   OH252950   4.774   5.900   5.847  0.3500 -0.5402 -0.0402
10512TIP3    H152951   4.835   5.869   5.913  1.3009  0.3723 -0.4680
10512TIP3    H252952   4.828   5.950   5.785 -0.2157 -2.5163 -2.3110
10513TIP3   OH252953   1.992   5.155   4.951  0.5242 -0.6552  0.3411
10513TIP3    H152954   1.914   5.208   4.939  0.0931 -1.0932  1.1640
10513TIP3    H252955   2.052   5.185   4.883 -0.7493 -1.0332 -1.0097
10514TIP3   OH252956   3.501   1.993  13.374  0.3804  0.6113  0.3642
10514TIP3    H152957   3.533   1.920  13.321 -1.4304 -1.0716  1.4382
10514TIP3    H252958   3.519   2.071  13.321  2.1203 -0.5950 -0.9624
10515TIP3   OH252959   4.329   1.463   2.519 -0.0846 -0.5823 -0.2193
10515TIP3    H152960   4.266   1.411   2.469  0.0345  0.4339 -1.4686
10515TIP3    H252961   4.276   1.508   2.584 -0.2907 -1.6375  0.3738
10516TIP3   OH252962   5.596   0.840   5.576 -0.0947 -0.1677  0.2174
10516TIP3    H152963   5.625   0.916   5.627  1.3829 -0.1980 -0.5600
10516TIP3    H252964   5.507   0.863   5.548 -0.0972  0.7773  0.9546
10517TIP3   OH252965   1.194   6.326  13.123  0.0633  0.1542 -0.0714
10517TIP3    H152966   1.256   6.326  13.196 -1.8232 -0.8676  1.6382
10517TIP3    H252967   1.172   6.233  13.110  0.9135  0.2321 -2.4991
10518TIP3   OH252968   4.803   4.338   1.485 -0.2081  0.0613  0.4817
10518TIP3    H152969   4.841   4.253   1.509 -0.4473 -0.3498 -0.5657
10518TIP3    H252970   4.715   4.337   1.522  0.0620  0.1850  1.1477
10519TIP3   OH252971   1.503   2.715   0.267  0.0737 -0.7227  0.2222
10519TIP3    H152972   1.422   2.735   0.220 -0.3785  0.0095  1.2734
10519TIP3    H252973   1.572   2.731   0.203 -0.5757 -0.7543 -0.5025
10520TIP3   OH252974   0.529   3.669   0.895  0.7299 -0.0856  0.7039
10520TIP3    H152975   0.598   3.636   0.837 -0.1494  0.3632 -0.6379
10520TIP3    H252976   0.538   3.764   0.891 -0.3545  0.0109 -0.0281
10521TIP3   OH252977   5.010   3.942   5.349 -0.1883  0.1244  0.4762
10521TIP3    H152978   5.035   4.025   5.307 -0.5670 -0.4882 -1.0328
10521TIP3    H252979   4.919   3.928   5.322 -0.3076 -0.5072  1.1801
10522TIP3   OH252980   3.244   4.066  11.763 -0.8825  0.0921 -0.3822
10522TIP3    H152981   3.260   3.991  11.704  1.6249  0.8996 -0.8708
10522TIP3    H252982   3.226   4.026  11.848  1.8306 -1.1677 -0.2876
10523TIP3   OH252983   2.096   5.188   2.280  0.4192 -0.7315 -0.0909
10523TIP3    H152984   2.077   5.128   2.208 -0.8234  1.0027 -1.2798
10523TIP3    H252985   2.154   5.254   2.241  0.3274 -0.1787  0.6911
10524TIP3   OH252986   1.757   6.143  13.783  0.3983  0.0767 -0.8451
10524TIP3    H152987   1.820   6.074  13.761  2.3700  1.2958  0.6167
10524TIP3    H252988   1.778   6.166  13.874 -1.6594  1.1203 -0.5805
10525TIP3   OH252989   4.909   2.360   0.174  0.2648  0.1305  0.3456
10525TIP3    H152990   4.915   2.455   0.185 -3.4367  0.6418 -0.8630
10525TIP3    H252991   4.869   2.348   0.087 -2.3369 -2.3312  1.7219
10526TIP3   OH252992   0.334   3.212   2.735 -0.4200  0.3511  0.2581
10526TIP3    H152993   0.395   3.227   2.662  0.7131 -1.4504  0.7512
10526TIP3    H252994   0.353   3.282   2.797 -2.3279  2.7418 -1.6341
10527TIP3   OH252995   1.069   2.660   4.837  0.0746 -0.1730  0.2557
10527TIP3    H152996   0.997   2.637   4.896  0.1633  0.6422  0.6926
10527TIP3    H252997   1.131   2.587   4.845  0.0002 -0.1557  1.0291
10528TIP3   OH252998   0.425   0.493  13.954  0.0644  0.6537  0.2976
10528TIP3    H152999   0.376   0.417  13.924 -0.7329  0.6479  1.5663
10528TIP3    H253000   0.511   0.459  13.979 -0.2488  0.1926  0.7478
10529TIP3   OH253001   2.966   3.543   5.537 -0.5627  0.0873  0.1083
10529TIP3    H153002   3.024   3.618   5.521  1.7865 -1.7667 -0.5848
10529TIP3    H253003   3.008   3.494   5.607 -1.0095 -1.5615 -0.7271
10530TIP3   OH253004   0.740   3.887  16.923 -0.0490 -0.3885 -0.1596
10530TIP3    H153005   0.788   3.949  16.978 -0.7808  0.1345 -0.0957
10530TIP3    H253006   0.727   3.934  16.840  1.9177 -1.5325 -1.1766
10531TIP3   OH253007   4.277   0.295   0.283  0.2933  0.0740  0.6302
10531TIP3    H153008   4.240   0.312   0.370 -0.4081 -0.2596  0.4075
10531TIP3    H253009   4.308   0.205   0.287  0.8535  0.2642  0.7276
10532TIP3   OH253010   5.286   1.100   1.110 -0.5740 -0.6785 -0.1176
10532TIP3    H153011   5.246   1.038   1.048 -1.5393 -0.9154  0.7184
10532TIP3    H253012   5.357   1.050   1.151 -0.7107 -0.9159 -0.1648
10533TIP3   OH253013   2.133   0.377   0.103  0.0339  0.2951  0.6208
10533TIP3    H153014   2.189   0.394   0.179  1.3688  0.6534 -0.4060
10533TIP3    H253015   2.154   0.447   0.041 -0.6792 -0.2536 -0.2669
10534TIP3   OH253016   5.776   2.582   0.463 -0.2230 -0.7608 -0.7594
10534TIP3    H153017   5.796   2.532   0.542 -1.8609 -0.5062 -0.1521
10534TIP3    H253018   5.727   2.658   0.495 -0.5955 -0.4739 -1.9829
10535TIP3   OH253019   2.157   0.078  14.339 -0.2333  0.2691 -0.4514
10535TIP3    H153020   2.062   0.068  14.337 -0.1746 -0.3164 -0.5378
10535TIP3    H253021   2.171   0.172  14.332 -0.8015  0.3437 -0.6989
10536TIP3   OH253022   0.310   0.021  17.116 -0.0224  0.2969 -0.3037
10536TIP3    H153023   0.341   0.054  17.201  0.1890  2.0383 -1.0300
10536TIP3    H253024   0.384   0.034  17.057 -0.1402 -0.9907 -0.7552
10537TIP3   OH253025   0.493   5.275   4.784  0.4279 -0.2204  0.7190
10537TIP3    H153026   0.534   5.340   4.841  1.9800 -0.1139 -0.4469
10537TIP3    H253027   0.405   5.263   4.820  0.1752  2.3203  1.0917
10538TIP3   OH253028   1.660   1.487  12.255 -0.0277  0.4607  0.2222
10538TIP3    H153029   1.651   1.579  12.230  1.6902  0.6278  0.0980
10538TIP3    H253030   1.660   1.489  12.351  0.1812  0.6242  0.2218
10539TIP3   OH253031   5.787   4.111   2.665 -0.2263 -0.3840 -0.0881
10539TIP3    H153032   5.856   4.147   2.610 -1.2760  0.2282 -1.0400
10539TIP3    H253033   5.813   4.019   2.679 -0.3603 -0.8068 -2.3241
10540TIP3   OH253034   6.340   2.956  16.348 -0.4125  0.1395 -0.6849
10540TIP3    H153035   6.371   3.020  16.413 -2.5505  1.1116 -0.5477
10540TIP3    H253036   6.346   3.003  16.265 -2.3431  0.7319 -0.5394
10541TIP3   OH253037   0.444   4.903  12.300 -0.2834  0.0231  0.2924
10541TIP3    H153038   0.397   4.986  12.304 -0.7788 -0.2791  1.0912
10541TIP3    H253039   0.484   4.894  12.387  1.3046  0.2865 -0.3742
10542TIP3   OH253040   5.731   5.092  10.668 -0.3095 -0.6283  0.6840
10542TIP3    H153041   5.800   5.026  10.674 -0.7026 -1.2719 -1.1703
10542TIP3    H253042   5.778   5.175  10.656  0.1613 -0.7900  1.3959
10543TIP3   OH253043   0.486   1.785   0.948  0.3193  0.8668  0.3363
10543TIP3    H153044   0.569   1.738   0.941  0.0031  0.3215  0.1896
10543TIP3    H253045   0.420   1.718   0.934 -0.1264  1.5703 -1.0658
10544TIP3   OH253046   1.438   1.655   3.435  0.6796 -0.7967  0.1772
10544TIP3    H153047   1.513   1.677   3.491  0.6529 -2.5338  0.9519
10544TIP3    H253048   1.362   1.692   3.481  1.1001  2.6471 -1.5278
10545TIP3   OH253049   0.958   6.152   2.219  0.2022  0.3018  0.0406
10545TIP3    H153050   1.015   6.100   2.163  0.7655  0.1843  0.7040
10545TIP3    H253051   0.874   6.105   2.218  0.8838 -1.0366  1.1623
10546TIP3   OH253052   5.075   4.358   5.789  0.7804 -0.8256  0.2221
10546TIP3    H153053   5.113   4.436   5.831 -0.7648  0.5703 -0.8402
10546TIP3    H253054   5.140   4.333   5.723  2.3856 -1.9461  2.0865
10547TIP3   OH253055   4.195   1.695  11.636  0.3346  0.4040 -0.0768
10547TIP3    H153056   4.230   1.755  11.571 -0.5615  2.5369  1.2992
10547TIP3    H253057   4.162   1.621  11.585  1.2279  1.1726 -1.8561
10548TIP3   OH253058   6.375   2.406  14.780  0.6789 -0.4517  0.0460
10548TIP3    H153059   6.404   2.323  14.743  0.6589 -1.1807  1.5706
10548TIP3    H253060   6.369   2.389  14.874 -0.2944  0.9945  0.2755
10549TIP3   OH253061   2.293   2.061  15.495  1.1684  0.4474 -0.5418
10549TIP3    H153062   2.324   1.973  15.517  0.4312  0.0906 -0.9230
10549TIP3    H253063   2.232   2.084  15.566 -0.4552 -0.3095 -1.6561
10550TIP3   OH253064   4.891   1.808  12.958 -0.5439 -0.3356  0.1652
10550TIP3    H153065   4.984   1.808  12.981 -0.4512  0.8251 -0.1495
10550TIP3    H253066   4.871   1.899  12.937 -1.6986 -0.6099 -0.0177
10551TIP3   OH253067   6.249   1.927  16.359  0.2333 -0.2472 -0.1620
10551TIP3    H153068   6.198   1.881  16.425  0.4378  1.1772  1.0231
10551TIP3    H253069   6.192   1.996  16.327  1.3219  1.3441  1.1535
10552TIP3   OH253070   1.395   3.515  16.421  0.6561 -0.0874 -0.2355
10552TIP3    H153071   1.427   3.485  16.506  2.8720  0.2432 -0.8976
10552TIP3    H253072   1.436   3.601  16.410  0.4865 -0.1790 -1.6860
10553TIP3   OH253073   6.106   5.770  14.677  0.5016  0.5709 -0.2728
10553TIP3    H153074   6.136   5.825  14.604  0.9496  0.0318 -0.5081
10553TIP3    H253075   6.036   5.820  14.719  1.3957  1.6397 -0.0295
10554TIP3   OH253076   3.358   1.604  11.398  0.4239 -0.4920 -0.1260
10554TIP3    H153077   3.381   1.594  11.305  0.2013  0.1941 -0.2615
10554TIP3    H253078   3.269   1.638  11.397  1.3152  2.0836  0.2557
10555TIP3   OH253079   2.545   6.284   1.309 -0.0964 -0.4194  0.2777
10555TIP3    H153080   2.505   6.273   1.395 -1.0924 -1.2535 -0.2721
10555TIP3    H253081   2.540   6.379   1.293 -0.1407 -0.2895  1.0108
10556TIP3   OH253082   4.035   6.631  11.367  0.0593 -0.3671 -0.0254
10556TIP3    H153083   4.093   6.635  11.292 -1.0772  0.1972 -0.9153
10556TIP3    H253084   3.982   6.552  11.354 -1.0725  0.4513 -0.5655
10557TIP3   OH253085   6.275   4.208  14.182  0.2399 -0.3757 -0.4513
10557TIP3    H153086   6.221   4.276  14.223  2.0719  1.3327 -0.7170
10557TIP3    H253087   6.240   4.125  14.216 -1.2386  0.7557  0.9183
10558TIP3   OH253088   6.418   5.423  11.349 -0.4341  0.0942 -0.1845
10558TIP3    H153089   6.383   5.342  11.385  0.7036 -0.0478  0.6414
10558TIP3    H253090   6.402   5.416  11.255 -0.6964 -0.9161 -0.0772
10559TIP3   OH253091   0.112   1.032   4.363  0.1941  0.1005  0.1123
10559TIP3    H153092   0.037   1.051   4.306 -0.2538 -0.2834  0.5667
10559TIP3    H253093   0.185   1.020   4.303 -0.3817 -0.8251 -0.4208
10560TIP3   OH253094   0.522   4.965  15.441 -0.4902  0.2002  0.0214
10560TIP3    H153095   0.505   4.995  15.531 -0.7518 -0.3230  0.1500
10560TIP3    H253096   0.519   4.870  15.446 -0.7255  0.1701 -0.5895
10561TIP3   OH253097   3.246   4.283  16.547 -0.2104  0.5809  0.2080
10561TIP3    H153098   3.226   4.244  16.633  0.1053  1.8744  0.8950
10561TIP3    H253099   3.166   4.331  16.525 -0.1910  0.4677 -0.1072
10562TIP3   OH253100   1.167   1.240  15.425  0.1019  0.1358 -0.4251
10562TIP3    H153101   1.246   1.186  15.418  1.0126  1.2814  0.5800
10562TIP3    H253102   1.114   1.197  15.492 -0.1486 -0.6503 -1.1165
10563TIP3   OH253103   4.488   6.407  12.372  0.3173  0.6677 -0.4513
10563TIP3    H153104   4.444   6.322  12.372  0.5344  0.5515 -0.6688
10563TIP3    H253105   4.436   6.462  12.314  0.2754  0.6292 -0.4501
10564TIP3   OH253106   5.168   1.951  13.075 -0.2471 -0.0169  0.5770
10564TIP3    H153107   5.236   2.015  13.098 -0.1507  0.0618  0.0930
10564TIP3    H253108   5.115   1.996  13.008  0.6968 -0.9666 -0.8625
10565TIP3   OH253109   6.396   4.538   5.058  0.1836  0.0559 -0.2579
10565TIP3    H153110   6.490   4.552   5.060  0.3134 -0.7145 -0.7490
10565TIP3    H253111   6.382   4.474   4.988 -0.6227 -0.3742  0.2770
10566TIP3   OH253112   3.415   2.972   2.696 -0.1021  0.5084 -0.3516
10566TIP3    H153113   3.338   2.975   2.753  0.2105 -0.1427  0.1124
10566TIP3    H253114   3.397   3.038   2.629 -0.1251  1.8763  0.9474
10567TIP3   OH253115   5.331   6.548  14.721  0.0039 -0.0848 -0.6613
10567TIP3    H153116   5.349   6.618  14.785  0.5087 -0.3845 -0.4665
10567TIP3    H253117   5.238   6.558  14.700 -0.1756  0.0242  0.1274
10568TIP3   OH253118   2.835   5.884   6.058 -0.1393  0.2104 -0.0344
10568TIP3    H153119   2.824   5.916   6.147 -0.1974 -0.6423  0.2729
10568TIP3    H253120   2.756   5.913   6.012 -0.4890 -0.0396  0.4036
10569TIP3   OH253121   0.180   4.355   1.587  0.2008  0.2391  0.3776
10569TIP3    H153122   0.115   4.425   1.577  0.2884  0.3622  0.6689
10569TIP3    H253123   0.173   4.304   1.506 -1.9371 -1.1720  1.3615
10570TIP3   OH253124   0.314   6.550  13.900  0.3228  0.2450  0.0865
10570TIP3    H153125   0.275   6.493  13.966  0.7446 -0.9924 -0.7078
10570TIP3    H253126   0.289   6.512  13.816  0.3121  1.4415 -0.4813
10571TIP3   OH253127   3.355   3.849  14.479  0.1069 -0.2931 -0.2507
10571TIP3    H153128   3.273   3.830  14.524 -0.1201  0.2872 -0.4059
10571TIP3    H253129   3.405   3.901  14.541  0.1628 -0.2493 -0.3317
10572TIP3   OH253130   0.827   3.813  10.921  0.8365 -0.4137  0.0266
10572TIP3    H153131   0.762   3.795  10.852  1.8279 -0.6002 -0.8971
10572TIP3    H253132   0.838   3.908  10.920 -0.6707 -0.1840  1.3962
10573TIP3   OH253133   1.815   0.012   4.659 -0.1277 -0.1697 -0.1229
10573TIP3    H153134   1.887   0.003   4.596 -0.9689  0.1166 -1.1657
10573TIP3    H253135   1.858   0.023   4.744  1.1727  2.9288 -1.0380
10574TIP3   OH253136   3.484   3.675   3.340  0.3089 -0.1251 -0.2301
10574TIP3    H153137   3.489   3.579   3.337  0.0249 -0.1222 -2.4609
10574TIP3    H253138   3.430   3.699   3.264  0.3156  1.8036  0.3248
10575TIP3   OH253139   4.298   2.849   4.620  0.0052  0.1144  0.1505
10575TIP3    H153140   4.267   2.926   4.571 -0.4103 -0.2062 -0.1031
10575TIP3    H253141   4.224   2.826   4.676 -1.0014 -1.7859 -1.8011
10576TIP3   OH253142   0.664   2.596  16.511  0.2981  0.9886 -0.2233
10576TIP3    H153143   0.573   2.609  16.540  0.5311 -0.7424  1.4710
10576TIP3    H253144   0.716   2.641  16.578  0.7235  1.6873 -1.0101
10577TIP3   OH253145   3.536   6.228  11.749  0.6228  0.3325  0.3703
10577TIP3    H153146   3.618   6.179  11.738  0.2679  0.2300 -2.3745
10577TIP3    H253147   3.480   6.169  11.800  1.8475 -0.0331  1.3533
10578TIP3   OH253148   1.147   5.889  15.960 -0.4290  0.0414  0.3742
10578TIP3    H153149   1.164   5.857  16.049 -0.1680 -0.3770  0.1825
10578TIP3    H253150   1.194   5.827  15.903 -0.4460  0.4058 -0.0448
10579TIP3   OH253151   4.717   0.857   2.352  0.1530  0.1705 -0.2201
10579TIP3    H153152   4.688   0.886   2.265  1.7820 -0.2619 -0.9412
10579TIP3    H253153   4.809   0.833   2.340 -0.1498 -1.9700  1.1228
10580TIP3   OH253154   5.361   4.426   3.185 -0.1234  0.1734  0.5755
10580TIP3    H153155   5.278   4.396   3.220  0.6649 -1.1188  1.4054
10580TIP3    H253156   5.368   4.517   3.216 -1.9302  0.8846 -0.8824
10581TIP3   OH253157   5.572   5.178   0.196 -0.8073  0.3127 -0.2867
10581TIP3    H153158   5.615   5.262   0.207 -0.0620 -0.0289 -0.5444
10581TIP3    H253159   5.534   5.159   0.281 -0.0946  0.4266  0.0640
10582TIP3   OH253160   6.202   1.339   1.454  0.3198  0.1330  0.1743
10582TIP3    H153161   6.198   1.306   1.364  1.0552 -0.7863  0.4656
10582TIP3    H253162   6.268   1.286   1.497  2.8936  3.0920  0.2343
10583TIP3   OH253163   6.760   0.395  14.431  0.2102 -0.2360 -0.1273
10583TIP3    H153164   6.806   0.312  14.446 -0.2456 -0.1158  2.2010
10583TIP3    H253165   6.712   0.411  14.512  1.1278  2.8619 -0.0749
10584TIP3   OH253166   1.511   5.326   2.442 -0.2091  0.4476  0.1076
10584TIP3    H153167   1.545   5.241   2.413 -0.8257 -0.0131  0.7152
10584TIP3    H253168   1.528   5.328   2.536 -1.6970  0.2784  0.4014
10585TIP3   OH253169   5.371   0.220  11.531  0.2805 -0.3225  0.1100
10585TIP3    H153170   5.326   0.167  11.597  1.3264 -0.1910  0.9502
10585TIP3    H253171   5.463   0.192  11.536  0.3430 -0.4801 -1.4659
10586TIP3   OH253172   4.906   2.984   4.024 -0.2094 -0.1366  0.1383
10586TIP3    H153173   4.868   2.898   4.043  0.7843 -0.4108  1.0061
10586TIP3    H253174   4.919   3.024   4.110 -0.2348  0.6953 -0.2336
10587TIP3   OH253175   4.180   5.057   5.571 -0.1880 -0.4985 -0.3461
10587TIP3    H153176   4.120   5.087   5.640 -1.1010  0.5157 -1.5300
10587TIP3    H253177   4.241   4.999   5.616 -2.1044 -1.6452  0.9074
10588TIP3   OH253178   1.740   1.012   3.384 -0.3748 -0.2753 -0.2730
10588TIP3    H153179   1.659   0.973   3.349  0.0128 -0.8164 -0.5845
10588TIP3    H253180   1.710   1.079   3.445 -1.0764  0.2885 -1.1988
10589TIP3   OH253181   0.214   6.326  12.151  0.0923 -0.4307  0.3346
10589TIP3    H153182   0.273   6.288  12.087 -0.6566 -1.8347  0.4512
10589TIP3    H253183   0.237   6.419  12.152  0.2293 -0.4031 -1.8195
10590TIP3   OH253184   4.495   2.512  14.044  0.0527  0.6227 -0.1755
10590TIP3    H153185   4.448   2.446  14.094  0.0094 -1.7149 -3.0737
10590TIP3    H253186   4.426   2.568  14.007  0.0508  1.8511  1.5570
10591TIP3   OH253187   6.589   4.802   1.006 -0.2201  0.8881  0.5270
10591TIP3    H153188   6.547   4.780   0.923 -0.2975  1.5291  0.3846
10591TIP3    H253189   6.676   4.832   0.981  0.8003 -1.5578  0.9147
10592TIP3   OH253190   0.026   2.238  16.210  0.0531  0.4459 -0.2676
10592TIP3    H153191   0.061   2.268  16.294  0.7949 -0.2332 -0.3276
10592TIP3    H253192  -0.066   2.219  16.228  0.2985 -0.0592  0.4862
10593TIP3   OH253193   5.377   5.934  15.002  0.2935  0.3765  0.1741
10593TIP3    H153194   5.314   5.870  14.969  2.4985 -1.5068 -0.6853
10593TIP3    H253195   5.410   5.895  15.083  0.2679  1.4011  0.6923
10594TIP3   OH253196   2.556   2.492  15.214  0.2232  0.5602  0.1584
10594TIP3    H153197   2.503   2.412  15.214 -0.2647  0.8648  1.0253
10594TIP3    H253198   2.580   2.506  15.123 -0.7635  0.1265 -0.1764
10595TIP3   OH253199   1.130   6.010  10.875 -0.5268  0.0632 -0.5869
10595TIP3    H153200   1.055   6.034  10.820  0.0549 -0.3607 -1.6103
10595TIP3    H253201   1.173   6.094  10.893 -0.0014  0.1035 -1.8980
10596TIP3   OH253202   0.798   0.834  15.622 -0.2251 -0.2014  0.9637
10596TIP3    H153203   0.756   0.822  15.537 -0.6663  0.2618  1.1127
10596TIP3    H253204   0.873   0.891  15.605 -0.4805  0.1274  0.9292
10597TIP3   OH253205   5.627   5.444   3.100  0.1494 -0.0641 -0.0634
10597TIP3    H153206   5.581   5.528   3.092  1.8771  0.7896 -1.7653
10597TIP3    H253207   5.716   5.467   3.127  0.5343 -1.4073 -0.0925
10598TIP3   OH253208   5.602   2.802   0.507 -0.8228 -0.2554  0.0528
10598TIP3    H153209   5.516   2.765   0.485 -1.1847  1.5788 -2.0612
10598TIP3    H253210   5.588   2.850   0.588 -1.0314 -2.3025  1.2825
10599TIP3   OH253211   0.059   0.329  15.006  0.3883 -0.2734 -0.0970
10599TIP3    H153212   0.059   0.417  15.043  0.3045 -0.7490  1.0887
10599TIP3    H253213   0.139   0.288  15.041 -0.3025 -1.1190  0.5405
10600TIP3   OH253214   2.597   4.195  11.490  0.3962  0.1720 -0.9332
10600TIP3    H153215   2.611   4.287  11.470 -0.4599  0.8545  1.3945
10600TIP3    H253216   2.515   4.173  11.446  0.7003  0.4484 -1.6539
10601TIP3   OH253217   6.713   1.658  12.237 -0.0964  0.1917 -0.7471
10601TIP3    H153218   6.700   1.569  12.269  0.3175  0.1663 -0.6547
10601TIP3    H253219   6.757   1.704  12.309 -0.8897  0.6493 -0.5381
10602TIP3   OH253220   4.452   2.748  11.772 -0.1447 -0.2422 -0.0137
10602TIP3    H153221   4.535   2.737  11.819 -0.5695 -0.4495  0.7035
10602TIP3    H253222   4.440   2.843  11.769  0.8149 -0.1422 -1.3830
10603TIP3   OH253223   1.177   0.505   3.809 -0.2542 -0.8785  0.3187
10603TIP3    H153224   1.190   0.515   3.715  0.9757 -2.3509  0.3008
10603TIP3    H253225   1.082   0.508   3.820 -0.4036  3.1373 -0.4466
10604TIP3   OH253226   3.571   3.125   5.045 -0.8253  0.6309  0.7245
10604TIP3    H153227   3.538   3.205   5.003  0.4669  0.3688 -0.9170
10604TIP3    H253228   3.664   3.144   5.062 -0.2155 -0.8377 -0.6735
10605TIP3   OH253229   0.492   3.807   1.396 -0.6125  0.2167 -0.4399
10605TIP3    H153230   0.411   3.755   1.402  0.3292 -1.1412  1.6234
10605TIP3    H253231   0.547   3.757   1.336 -0.3795 -0.2387  0.1423
10606TIP3   OH253232   4.078   4.642  15.012 -0.0142  0.5027 -0.7848
10606TIP3    H153233   4.045   4.560  14.976  1.5280 -0.7379  0.4713
10606TIP3    H253234   4.069   4.633  15.107 -1.6448  2.6448 -0.6629
10607TIP3   OH253235   1.003   3.633  15.250 -0.0163  0.5758 -0.1653
10607TIP3    H153236   1.053   3.659  15.328 -0.3413  0.5571  0.0510
10607TIP3    H253237   1.060   3.655  15.176 -0.2238  1.7704  0.0179
10608TIP3   OH253238   3.062   5.048  12.499  0.1940 -0.1557 -0.1607
10608TIP3    H153239   3.093   5.031  12.587  2.2668 -1.6286 -1.0843
10608TIP3    H253240   3.044   4.961  12.463 -0.4831  0.4092 -1.2525
10609TIP3   OH253241   3.279   3.720  12.316  0.1516  0.1749 -0.0308
10609TIP3    H153242   3.366   3.725  12.356 -0.3656  0.2849  1.1210
10609TIP3    H253243   3.296   3.709  12.223  1.4031 -0.9781  0.3063
10610TIP3   OH253244   1.393   3.339   4.211 -0.1523  0.1202 -0.9412
10610TIP3    H153245   1.357   3.322   4.298  1.6722 -1.2242 -0.4079
10610TIP3    H253246   1.325   3.308   4.151 -1.1507  0.4515 -0.0282
10611TIP3   OH253247   0.229   3.376  17.030  0.2699  0.1277  0.1915
10611TIP3    H153248   0.286   3.333  16.965  0.2703  1.0560 -0.4406
10611TIP3    H253249   0.153   3.406  16.979  0.0149  0.3966  0.7224
10612TIP3   OH253250   6.687   1.233  11.473 -0.2497  0.6208  0.0448
10612TIP3    H153251   6.632   1.156  11.490  0.4847  0.0007 -0.3210
10612TIP3    H253252   6.776   1.198  11.466  0.7046  1.9517  3.5724
10613TIP3   OH253253   0.765   1.105  14.404  0.2570 -0.1539  0.1334
10613TIP3    H153254   0.716   1.026  14.426  2.2873 -1.7361 -0.6669
10613TIP3    H253255   0.814   1.082  14.325  1.7862  1.5006  0.5230
10614TIP3   OH253256   5.564   3.505   3.077  0.9952  0.0083  0.2425
10614TIP3    H153257   5.485   3.514   3.023  1.9028  2.7715 -0.7868
10614TIP3    H253258   5.532   3.485   3.165 -0.8258  0.8326 -0.2010
10615TIP3   OH253259   0.796   0.480   4.753 -0.7321  0.0343 -0.0381
10615TIP3    H153260   0.761   0.522   4.674  1.5851  1.1073 -0.5934
10615TIP3    H253261   0.832   0.397   4.722  2.6832  1.6366 -0.8219
10616TIP3   OH253262   1.556   0.234   3.973 -0.2791  0.7220  0.1243
10616TIP3    H153263   1.540   0.328   3.980 -0.4881  0.5917  1.7493
10616TIP3    H253264   1.650   0.226   3.961 -0.1743  1.1323  0.6428
10617TIP3   OH253265   4.221   6.326  14.842 -0.7775 -0.4893  0.1849
10617TIP3    H153266   4.290   6.261  14.829  0.3214  0.1369  2.3193
10617TIP3    H253267   4.140   6.275  14.847 -0.9348 -1.0785 -4.4640
10618TIP3   OH253268   3.128   5.103  14.105 -0.3351 -0.1444 -0.3374
10618TIP3    H153269   3.063   5.173  14.111 -0.5532 -0.0832 -2.5381
10618TIP3    H253270   3.212   5.149  14.109 -0.4674  0.4354 -2.5458
10619TIP3   OH253271   4.973   4.564  13.624 -0.1753 -0.3446  0.0772
10619TIP3    H153272   5.044   4.621  13.655 -1.4080  0.9392  0.6593
10619TIP3    H253273   4.989   4.554  13.530  0.0006  1.1056 -0.0705
10620TIP3   OH253274   4.523   4.565   3.387 -0.2212 -0.6615 -0.3845
10620TIP3    H153275   4.434   4.534   3.371 -0.1355 -0.9082 -0.4019
10620TIP3    H253276   4.514   4.636   3.450 -0.2059 -2.5406  1.8932
10621TIP3   OH253277   5.679   3.600  16.251 -0.1765 -0.4134  0.5055
10621TIP3    H153278   5.675   3.507  16.276  0.5216 -0.3809  0.7483
10621TIP3    H253279   5.683   3.647  16.334 -0.5190 -0.1643  0.3806
10622TIP3   OH253280   4.188   3.164   1.710 -0.2819  0.1050 -0.4960
10622TIP3    H153281   4.147   3.220   1.775  1.1368  2.0090 -1.1464
10622TIP3    H253282   4.251   3.112   1.760 -1.4860 -0.8445  0.0870
10623TIP3   OH253283   5.060   0.631   6.363 -0.0144 -0.3622 -0.8155
10623TIP3    H153284   5.068   0.703   6.301 -1.6374  3.3731  2.8475
10623TIP3    H253285   4.969   0.603   6.356 -0.6275  1.0895  0.7071
10624TIP3   OH253286   5.902   0.175   1.940  0.3024 -0.0658  0.5615
10624TIP3    H153287   5.871   0.189   1.851  0.0770 -1.2006  0.4437
10624TIP3    H253288   5.939   0.087   1.939 -0.8731 -0.6235  1.9065
10625TIP3   OH253289   5.608   6.486  10.700 -0.3427 -0.2606 -0.4237
10625TIP3    H153290   5.621   6.393  10.684  2.7869  0.3583 -2.3855
10625TIP3    H253291   5.601   6.524  10.613 -0.3739  1.4573  0.2952
10626TIP3   OH253292   0.446   6.543   5.618 -0.5189 -0.0064  0.1820
10626TIP3    H153293   0.393   6.480   5.569 -0.1531  0.6357 -1.0711
10626TIP3    H253294   0.532   6.501   5.625 -0.5599 -0.0829  0.2284
10627TIP3   OH253295   0.337   3.387  13.703  0.0886 -0.3356 -0.2400
10627TIP3    H153296   0.294   3.310  13.664  1.7530 -0.6088 -1.6663
10627TIP3    H253297   0.419   3.353  13.738  0.5047  0.6602 -0.2240
10628TIP3   OH253298   5.246   4.319   0.269  0.0369  0.1737  0.5194
10628TIP3    H153299   5.328   4.335   0.223  0.1976  0.5833  0.9356
10628TIP3    H253300   5.191   4.273   0.206  0.2902  0.6319 -0.0429
10629TIP3   OH253301   5.060   3.903   6.352  0.6645  0.1952  0.1892
10629TIP3    H153302   5.111   3.906   6.433  1.3645  1.1424 -0.2612
10629TIP3    H253303   4.987   3.963   6.367  1.7611  1.7483 -0.4818
10630TIP3   OH253304   3.780   6.499   5.693 -0.2365 -0.6156 -0.0404
10630TIP3    H153305   3.809   6.538   5.776  0.3208 -0.9408 -0.0729
10630TIP3    H253306   3.702   6.549   5.669 -0.5349 -0.6570  0.7910
10631TIP3   OH253307   2.276   6.617   6.208  0.1937 -0.3480  0.1226
10631TIP3    H153308   2.299   6.710   6.209 -1.7889  0.1849  0.6291
10631TIP3    H253309   2.321   6.581   6.284  0.2416  0.4076  0.4673
10632TIP3   OH253310   0.058   2.910  16.465  0.4583 -0.6255  0.6379
10632TIP3    H153311   0.088   2.823  16.491  1.4561 -0.5435 -0.1938
10632TIP3    H253312  -0.033   2.896  16.437  0.4998 -1.3369  0.8352
10633TIP3   OH253313   5.700   4.760  13.247  0.0602 -0.0244  0.3641
10633TIP3    H153314   5.650   4.811  13.183 -1.5963 -0.5902  1.1683
10633TIP3    H253315   5.775   4.726  13.197 -0.6461  0.3717 -1.0095
10634TIP3   OH253316   1.246   6.695   6.261 -0.4273 -0.8378 -1.0846
10634TIP3    H153317   1.260   6.669   6.351 -0.1920 -2.4168 -1.5497
10634TIP3    H253318   1.152   6.683   6.246 -0.8982  1.5779 -0.4375
10635TIP3   OH253319   2.681   1.328   6.326  0.3345 -0.5466 -0.3436
10635TIP3    H153320   2.665   1.372   6.242  2.5974  0.3577 -0.3731
10635TIP3    H253321   2.704   1.238   6.302 -0.4280 -0.6923 -0.5663
10636TIP3   OH253322   1.806   5.288  12.780  0.1625  0.7045  0.2018
10636TIP3    H153323   1.725   5.239  12.794  2.3782 -3.3044  0.4559
10636TIP3    H253324   1.805   5.356  12.847 -1.4522 -1.4699  2.5656
10637TIP3   OH253325   3.776   2.412  13.828  0.7805 -0.3131  0.6654
10637TIP3    H153326   3.814   2.392  13.743 -1.5458  2.7555 -1.3198
10637TIP3    H253327   3.716   2.339  13.845  0.3714 -0.4125 -0.9991
10638TIP3   OH253328   0.640   3.548   0.165  0.2030  0.0540  0.2665
10638TIP3    H153329   0.705   3.613   0.139  0.9656 -0.8831 -0.2031
10638TIP3    H253330   0.594   3.526   0.085 -1.0655  1.0588  0.6687
10639TIP3   OH253331   4.433   5.576  13.518  0.1638  0.0136  0.0578
10639TIP3    H153332   4.482   5.501  13.553 -0.3870 -0.5064 -0.2501
10639TIP3    H253333   4.496   5.620  13.460  0.2875 -0.6379 -0.3239
10640TIP3   OH253334   4.057   0.565   3.647 -0.1119 -0.3149 -0.0080
10640TIP3    H153335   4.044   0.649   3.604 -0.9895  0.4672  1.6889
10640TIP3    H253336   3.979   0.553   3.701  0.2259 -1.9909  0.1683
10641TIP3   OH253337   3.522   5.188  11.551  0.1219  0.2925 -0.2113
10641TIP3    H153338   3.438   5.145  11.565  1.0304 -1.5826 -0.1663
10641TIP3    H253339   3.587   5.118  11.561  1.5356  0.9749 -3.2241
10642TIP3   OH253340   4.456   0.427   4.003 -0.1525 -0.0678 -0.2044
10642TIP3    H153341   4.420   0.491   4.064  1.9457  0.6008  0.4176
10642TIP3    H253342   4.454   0.344   4.050  1.8211  0.5153  1.0156
10643TIP3   OH253343   1.974   1.988  13.388 -0.2686  0.2844  0.0427
10643TIP3    H153344   2.011   1.900  13.380  1.1985  0.7090  1.5966
10643TIP3    H253345   1.999   2.017  13.476 -0.1316  2.5176 -0.6713
10644TIP3   OH253346   6.425   4.438  10.661  0.4418 -0.5830 -0.0710
10644TIP3    H153347   6.475   4.519  10.651 -0.5081 -0.1100 -1.2210
10644TIP3    H253348   6.374   4.431  10.580 -0.2141 -1.8346  0.4240
10645TIP3   OH253349   5.345   4.652   0.816 -0.1147  0.3401  0.0007
10645TIP3    H153350   5.381   4.563   0.807  0.7948  0.6725  0.1769
10645TIP3    H253351   5.408   4.707   0.770 -0.9406  0.8414 -0.5343
10646TIP3   OH253352   0.241   0.729  14.588  0.6694 -0.0690 -0.5058
10646TIP3    H153353   0.188   0.700  14.514  1.2896 -1.8088 -0.3091
10646TIP3    H253354   0.255   0.823  14.572 -1.0597  0.0806 -1.3969
10647TIP3   OH253355   6.533   5.205   0.323  0.4302  0.0390 -0.1180
10647TIP3    H153356   6.579   5.248   0.252 -0.2962 -1.6177 -1.6944
10647TIP3    H253357   6.577   5.120   0.333  0.2840  0.0870  1.1763
10648TIP3   OH253358   0.053   0.679  13.486  0.1247  0.2886  0.2148
10648TIP3    H153359   0.101   0.757  13.459 -0.0907  0.2773 -0.1982
10648TIP3    H253360   0.069   0.673  13.580  1.1884  0.1172  0.0355
10649TIP3   OH253361   3.259   0.905  14.282  0.1737  0.1920  0.3565
10649TIP3    H153362   3.255   0.879  14.190  2.0661  0.2121  0.2416
10649TIP3    H253363   3.351   0.928  14.297 -0.1468  0.4133  2.1941
10650TIP3   OH253364   0.131   3.156   6.306 -1.0608 -0.2236  0.3438
10650TIP3    H153365   0.220   3.156   6.270 -1.4516  0.6418 -0.6494
10650TIP3    H253366   0.113   3.247   6.327 -0.9485 -0.6421  2.5911
10651TIP3   OH253367   5.965   5.857  11.084  0.1524  0.0166  0.1560
10651TIP3    H153368   5.938   5.937  11.130  0.5979 -0.4604  1.3036
10651TIP3    H253369   5.901   5.848  11.013  1.4736  2.6539 -1.5299
10652TIP3   OH253370   1.017   5.065  15.321 -0.4482  0.8441 -0.0123
10652TIP3    H153371   1.037   4.972  15.322  0.2136  0.9395 -1.5255
10652TIP3    H253372   1.039   5.095  15.409  1.5641 -0.0058 -0.1756
10653TIP3   OH253373   5.067   6.678   5.055 -0.2042  0.7272  0.0094
10653TIP3    H153374   5.060   6.658   4.962  1.6848  0.8790 -0.2023
10653TIP3    H253375   5.161   6.675   5.074 -0.3873  2.3700  1.5289
10654TIP3   OH253376   4.471   5.368  16.477  0.5750  0.3754 -0.0161
10654TIP3    H153377   4.554   5.407  16.448  1.0265 -0.0868  0.6254
10654TIP3    H253378   4.404   5.416  16.429  1.2636  0.0225 -1.3637
10655TIP3   OH253379   0.194   0.248   0.690  0.1004  0.4440 -0.0716
10655TIP3    H153380   0.170   0.258   0.783 -0.6588 -0.5979 -0.1411
10655TIP3    H253381   0.170   0.332   0.651 -2.1925 -0.0275  0.1560
10656TIP3   OH253382   2.038   2.758   2.396 -0.1409  0.2379  0.2482
10656TIP3    H153383   2.007   2.844   2.425  0.5766 -0.3909  3.2539
10656TIP3    H253384   2.130   2.772   2.375  0.0701  0.1779  1.0840
10657TIP3   OH253385   5.526   0.602  11.260 -0.3189 -0.0979  0.0002
10657TIP3    H153386   5.488   0.515  11.269  0.6645 -0.5645 -0.1212
10657TIP3    H253387   5.578   0.614  11.339 -0.4550  0.3879  0.0208
10658TIP3   OH253388   5.876   5.856   1.847  0.0369 -0.4095  0.4487
10658TIP3    H153389   5.845   5.776   1.805 -0.0480  0.3005 -0.9139
10658TIP3    H253390   5.965   5.836   1.874  0.5937 -0.5009 -1.3218
10659TIP3   OH253391   5.896   4.029  15.581  0.4329 -0.2182 -0.2631
10659TIP3    H153392   5.988   4.026  15.554  0.5072  0.3917 -0.0940
10659TIP3    H253393   5.852   4.077  15.511  1.0454  3.6105  1.7390
10660TIP3   OH253394   6.252   5.729   5.734  0.2275 -0.7697  0.0280
10660TIP3    H153395   6.286   5.777   5.659  0.1477 -0.5440  0.1370
10660TIP3    H253396   6.304   5.762   5.808 -1.6153  1.1191  0.5637
10661TIP3   OH253397   6.016   0.833   4.400  0.2580 -0.5503  0.3726
10661TIP3    H153398   5.993   0.759   4.456 -2.5625 -0.6395 -0.7597
10661TIP3    H253399   6.111   0.825   4.387  0.3743 -2.6640  2.0435
10662TIP3   OH253400   5.410   5.873  11.850 -0.3456 -0.3018  0.4830
10662TIP3    H153401   5.432   5.871  11.757  2.6908 -0.1761  1.1255
10662TIP3    H253402   5.374   5.961  11.864 -0.1075 -0.0508 -0.4066
10663TIP3   OH253403   1.288   0.902  15.849  0.0852 -0.2286 -0.2721
10663TIP3    H153404   1.351   0.973  15.861  0.8203 -0.8830 -0.1216
10663TIP3    H253405   1.238   0.900  15.931  0.6323 -0.4201  0.0635
10664TIP3   OH253406   2.603   4.042  16.434  0.5739  0.3234 -0.5128
10664TIP3    H153407   2.679   4.071  16.383  0.8144  2.8224  1.0968
10664TIP3    H253408   2.637   4.029  16.522 -0.7377  0.9349  0.1078
10665TIP3   OH253409   5.017   0.261   4.288  0.5143  0.3801  0.1997
10665TIP3    H153410   4.922   0.247   4.299  0.1834  1.3116 -1.2061
10665TIP3    H253411   5.023   0.345   4.242  2.0803  0.8662  1.2162
10666TIP3   OH253412   6.227   1.638   5.593  0.2660 -0.0809  0.2871
10666TIP3    H153413   6.184   1.696   5.530  0.3463  0.0001  0.3061
10666TIP3    H253414   6.242   1.556   5.545  1.8482  0.5354 -0.3442
10667TIP3   OH253415   5.852   4.700  11.335  0.1398 -0.3472 -0.1120
10667TIP3    H153416   5.912   4.774  11.337 -2.7729  2.2318  0.0683
10667TIP3    H253417   5.870   4.653  11.417  0.1946  1.8914  1.2638
10668TIP3   OH253418   2.096   3.063   5.765 -0.1073 -0.2551 -0.2985
10668TIP3    H153419   2.075   3.156   5.760 -0.7771 -0.4141 -0.5724
10668TIP3    H253420   2.011   3.021   5.781 -0.0552 -0.9530 -1.7153
10669TIP3   OH253421   5.910   6.555  14.928 -0.8726  0.5323  0.5091
10669TIP3    H153422   5.911   6.565  14.833  0.5636 -0.9578  0.3309
10669TIP3    H253423   5.819   6.534  14.949 -1.0807  0.2308 -0.6231
10670TIP3   OH253424   1.687   5.680   2.458  0.0945  0.1095  0.1177
10670TIP3    H153425   1.674   5.718   2.371  0.2303  1.4766  0.6679
10670TIP3    H253426   1.601   5.649   2.484 -0.3279  1.2794  0.1856
10671TIP3   OH253427   4.443   1.501  10.846  0.5736 -0.5826  0.0482
10671TIP3    H153428   4.504   1.470  10.780 -1.2743 -0.3234 -1.8931
10671TIP3    H253429   4.380   1.429  10.856 -1.7083  0.9823 -1.8847
10672TIP3   OH253430   6.041   4.174   4.288 -0.0621 -0.0596  0.0931
10672TIP3    H153431   6.009   4.094   4.246  1.8993  0.2485 -2.2089
10672TIP3    H253432   6.128   4.188   4.250  0.0666  2.6181  1.1723
10673TIP3   OH253433   2.318   6.496   5.284 -0.2564  0.1790 -0.3054
10673TIP3    H153434   2.355   6.419   5.328 -2.3935 -0.2302  0.9198
10673TIP3    H253435   2.327   6.476   5.191  0.6247 -0.8406 -0.0254
10674TIP3   OH253436   1.158   1.012   1.397 -0.0562 -0.7134 -0.0082
10674TIP3    H153437   1.069   0.995   1.367  0.4127  0.0235 -1.9306
10674TIP3    H253438   1.162   0.970   1.483 -2.7181  0.5729  0.8619
10675TIP3   OH253439   2.669   0.586   5.621 -0.4317 -0.4312 -0.3734
10675TIP3    H153440   2.591   0.589   5.675  1.2221 -2.5126  2.3798
10675TIP3    H253441   2.732   0.642   5.666  1.5959 -3.6696  1.2158
10676TIP3   OH253442   6.534   3.272  14.882  0.4686  0.2794 -0.2814
10676TIP3    H153443   6.545   3.216  14.805 -0.5257  0.6630 -0.7219
10676TIP3    H253444   6.597   3.343  14.869 -0.5925  1.0574 -1.4434
10677TIP3   OH253445   2.535   3.072  12.663  0.9770  0.8181  0.3083
10677TIP3    H153446   2.452   3.046  12.623  0.7037 -0.5782  1.6839
10677TIP3    H253447   2.602   3.035  12.606  0.6789  1.5768 -0.5661
10678TIP3   OH253448   1.989   0.825  16.469  0.3561  0.4966 -0.4065
10678TIP3    H153449   2.019   0.764  16.537  1.9659  1.0090 -0.6075
10678TIP3    H253450   1.925   0.880  16.514  0.1913 -0.2150  0.2579
10679TIP3   OH253451   3.494   4.392  16.453  0.1824 -0.3540 -0.3839
10679TIP3    H153452   3.429   4.322  16.463  0.7578 -0.8737 -0.2031
10679TIP3    H253453   3.561   4.354  16.396  0.8145 -0.1769  0.2256
10680TIP3   OH253454   3.609   4.662  12.206 -0.5962 -0.7080  0.5202
10680TIP3    H153455   3.612   4.630  12.116 -0.5366  0.5558  0.0516
10680TIP3    H253456   3.680   4.615  12.251  0.5532 -0.0562 -0.5478
10681TIP3   OH253457   2.806   0.970   0.653 -0.6654 -0.0867  0.0094
10681TIP3    H153458   2.729   1.017   0.687 -0.0536  0.6252  0.4324
10681TIP3    H253459   2.770   0.911   0.587 -1.8328 -1.1978  1.5558
10682TIP3   OH253460   3.002   2.365  14.485 -0.2427 -0.2683 -0.1689
10682TIP3    H153461   3.081   2.323  14.520 -0.2568  0.5221  0.8312
10682TIP3    H253462   3.034   2.443  14.440 -0.4323 -0.0983 -0.0078
10683TIP3   OH253463   2.529   2.565  16.550  0.4364 -0.8358  0.0774
10683TIP3    H153464   2.502   2.491  16.605 -1.8105 -0.8112 -0.8472
10683TIP3    H253465   2.550   2.525  16.465  0.4682 -0.5546 -0.0480
10684TIP3   OH253466   6.000   4.352  10.568  0.0255  0.0835  0.2689
10684TIP3    H153467   6.040   4.266  10.577  1.2518  0.2906 -2.3046
10684TIP3    H253468   6.071   4.409  10.538 -1.1538  1.5827  0.1917
10685TIP3   OH253469   5.060   4.271  15.064 -0.3975  0.1440  0.0275
10685TIP3    H153470   5.014   4.197  15.024 -0.9056  1.2811 -1.5469
10685TIP3    H253471   5.142   4.233  15.097 -1.8735 -1.6847  1.8754
10686TIP3   OH253472   6.448   0.966   3.276 -0.1124  0.0935 -0.1117
10686TIP3    H153473   6.422   0.920   3.356 -0.5208  0.2913 -0.1300
10686TIP3    H253474   6.524   1.018   3.302 -0.6121  0.6306  0.3055
10687TIP3   OH253475   4.930   4.787  14.145  0.8452  0.2067 -1.1227
10687TIP3    H153476   4.895   4.697  14.147 -1.9095  1.1754 -0.4086
10687TIP3    H253477   4.968   4.800  14.231 -0.0247  0.1441 -0.7195
10688TIP3   OH253478   5.837   5.815   2.248 -0.1288  0.6630  0.5007
10688TIP3    H153479   5.815   5.854   2.333 -1.5200  0.1871  0.3856
10688TIP3    H253480   5.760   5.763   2.225 -0.6330  2.3335 -1.9783
10689TIP3   OH253481   0.436   2.657   4.706  0.2496  0.1752  0.1486
10689TIP3    H153482   0.450   2.687   4.617 -1.8663 -1.9555 -1.0100
10689TIP3    H253483   0.518   2.614   4.730 -0.1037 -1.9233 -2.0210
10690TIP3   OH253484   6.291   2.598  12.251 -0.2976  0.0398 -0.3708
10690TIP3    H153485   6.231   2.637  12.314  0.0594 -0.5541  0.3482
10690TIP3    H253486   6.238   2.534  12.204 -0.0895 -1.0171  0.7651
10691TIP3   OH253487   1.330   3.942  12.786  0.7230  0.4650 -0.9806
10691TIP3    H153488   1.357   3.888  12.860  0.1710  0.5371 -0.7234
10691TIP3    H253489   1.273   3.885  12.735 -1.5214  1.3898  0.3517
10692TIP3   OH253490   6.095   3.881  11.197  0.4448 -0.0585 -0.4579
10692TIP3    H153491   6.038   3.930  11.138  1.1450 -0.9574 -1.9604
10692TIP3    H253492   6.107   3.796  11.153  1.3577 -0.5921  0.7688
10693TIP3   OH253493   1.734   0.705  11.796 -0.3941  0.2735  0.0865
10693TIP3    H153494   1.780   0.669  11.872 -0.2023 -2.1351 -1.0673
10693TIP3    H253495   1.768   0.655  11.722 -2.6110  0.6000 -1.2225
10694TIP3   OH253496   4.612   0.726   5.136 -0.2979  0.1212  0.6529
10694TIP3    H153497   4.554   0.722   5.212 -1.5093  2.1254 -0.0586
10694TIP3    H253498   4.609   0.818   5.109  0.9812 -0.3055 -1.1489
10695TIP3   OH253499   4.808   1.094  13.447 -0.4299  0.1611 -0.3698
10695TIP3    H153500   4.892   1.059  13.479 -0.1736  1.4073  0.3731
10695TIP3    H253501   4.746   1.077  13.518 -0.8979 -1.0062 -1.0292
10696TIP3   OH253502   2.565   4.402  13.524  0.0313  0.3083 -0.2565
10696TIP3    H153503   2.480   4.382  13.484  0.4570  1.2758 -1.7269
10696TIP3    H253504   2.549   4.393  13.618 -0.8231 -2.6966 -0.5845
10697TIP3   OH253505   0.653   1.155   1.225 -0.0362 -0.2153 -1.0817
10697TIP3    H153506   0.699   1.097   1.164 -2.8595 -2.4920 -1.3056
10697TIP3    H253507   0.640   1.102   1.303 -0.1065  1.2192 -0.0934
10698TIP3   OH253508   1.460   0.039  16.674  0.5945 -0.4494  0.0537
10698TIP3    H153509   1.530   0.079  16.623 -1.2651  1.9765 -0.7609
10698TIP3    H253510   1.465   0.082  16.760 -0.4575  0.4631 -0.3225
10699TIP3   OH253511   5.204   1.556  11.583 -0.5061  0.6454  0.7242
10699TIP3    H153512   5.187   1.637  11.630 -3.6920  1.9513 -2.2866
10699TIP3    H253513   5.185   1.487  11.646  0.7312  2.1587  2.8819
10700TIP3   OH253514   2.498   4.836   4.549  0.3586  0.0432  0.1531
10700TIP3    H153515   2.513   4.804   4.460  0.3883 -0.1731  0.2337
10700TIP3    H253516   2.475   4.928   4.538  0.4168  0.0321 -0.0744
10701TIP3   OH253517   0.727   0.410   1.493 -0.1750  0.1496 -0.5241
10701TIP3    H153518   0.652   0.458   1.529 -0.2238  0.2660 -0.7844
10701TIP3    H253519   0.689   0.345   1.434 -0.1980 -1.0600  0.7698
10702TIP3   OH253520   3.405   3.588  14.382  0.0924 -0.5684  0.1981
10702TIP3    H153521   3.366   3.673  14.402 -0.3171 -0.6201 -0.3521
10702TIP3    H253522   3.415   3.545  14.467  0.9751  0.3148  0.5495
10703TIP3   OH253523   1.007   4.628  13.519  0.4460 -0.2924  0.0678
10703TIP3    H153524   0.938   4.564  13.535 -1.0123  1.5613  1.5839
10703TIP3    H253525   1.014   4.632  13.424 -0.9322 -1.1313 -0.0958
10704TIP3   OH253526   1.481   0.091   1.817  0.0336 -0.0895  0.0897
10704TIP3    H153527   1.429   0.150   1.761 -1.3467 -0.9995  0.3519
10704TIP3    H253528   1.479   0.007   1.771  1.1136 -0.1960  0.2226
10705TIP3   OH253529   3.382   2.839  17.211  0.1617 -0.5862 -0.2070
10705TIP3    H153530   3.425   2.821  17.128  1.0040 -2.2175  0.5440
10705TIP3    H253531   3.447   2.817  17.277 -1.0529 -0.9354  0.9193
10706TIP3   OH253532   4.180   0.439   2.472 -0.4266  0.2867  0.2070
10706TIP3    H153533   4.106   0.421   2.414 -0.0015  1.2097 -0.6621
10706TIP3    H253534   4.198   0.356   2.514 -1.3854 -0.1692 -0.2466
10707TIP3   OH253535   1.906   0.012   0.207 -0.3681  0.1739 -0.3064
10707TIP3    H153536   1.822  -0.001   0.164 -0.2770  1.1211 -0.8097
10707TIP3    H253537   1.912   0.107   0.219  0.1850  0.0343  0.6378
10708TIP3   OH253538   3.620   5.373  16.717 -0.3857  0.1099 -0.6678
10708TIP3    H153539   3.699   5.410  16.680  0.0606 -0.1524  0.0053
10708TIP3    H253540   3.629   5.386  16.812  0.3000 -2.6166 -0.2848
10709TIP3   OH253541   2.758   3.732   2.478 -0.0073  0.3820  0.0608
10709TIP3    H153542   2.772   3.658   2.537  1.4682 -0.2364 -1.0180
10709TIP3    H253543   2.845   3.768   2.462 -0.0906 -0.4322 -2.9038
10710TIP3   OH253544   5.305   0.724   6.435 -0.3097  0.4462 -0.6837
10710TIP3    H153545   5.299   0.800   6.377 -2.0504  2.2857  1.6799
10710TIP3    H253546   5.223   0.677   6.422  0.4453 -0.6860 -1.5918
10711TIP3   OH253547   5.279   2.514  15.813  0.4230  0.0960  0.7489
10711TIP3    H153548   5.255   2.428  15.780 -0.4967  0.0759  1.4239
10711TIP3    H253549   5.364   2.501  15.855  0.8725 -0.2008 -0.2287
10712TIP3   OH253550   1.906   6.670  16.257  0.1681  0.4983 -0.2502
10712TIP3    H153551   1.843   6.598  16.252 -0.2706  0.7858  0.8644
10712TIP3    H253552   1.888   6.723  16.179  1.5486 -1.3941 -1.9479
10713TIP3   OH253553   6.373   4.328  13.392 -0.0928 -0.7784  0.3493
10713TIP3    H153554   6.411   4.307  13.307 -1.1782 -0.5125 -0.2196
10713TIP3    H253555   6.406   4.259  13.450 -1.3432 -2.4787 -0.8509
10714TIP3   OH253556   0.150   2.782  13.701 -0.3591 -0.4431 -0.1508
10714TIP3    H153557   0.170   2.728  13.777 -0.5028 -2.7948 -1.6986
10714TIP3    H253558   0.223   2.767  13.640 -0.0236  1.7177 -0.3647
10715TIP3   OH253559   0.602   0.041  17.001  0.3909 -0.1649  0.5380
10715TIP3    H153560   0.679   0.091  17.029  0.5417  0.4302 -0.8481
10715TIP3    H253561   0.587   0.069  16.911 -1.8014  0.1470  0.9572
10716TIP3   OH253562   3.916   3.052  16.260 -0.4412  0.2230  0.3865
10716TIP3    H153563   3.899   3.117  16.192  1.8537 -0.0074 -0.4806
10716TIP3    H253564   3.832   3.007  16.272 -1.3743  1.5315 -0.9128
10717TIP3   OH253565   2.410   1.796  16.790 -0.5880  0.5221 -0.1487
10717TIP3    H153566   2.502   1.770  16.800 -1.1974 -1.6702  0.3125
10717TIP3    H253567   2.363   1.741  16.852 -2.0382  3.1872  1.2645
10718TIP3   OH253568   5.229   1.406  14.598  0.1887  0.4558  0.2627
10718TIP3    H153569   5.259   1.331  14.547 -2.3401 -0.0930 -0.6003
10718TIP3    H253570   5.190   1.465  14.533 -0.5609  1.0755  1.2415
10719TIP3   OH253571   3.866   2.316   2.312  0.2751 -0.3278 -0.5268
10719TIP3    H153572   3.895   2.393   2.262  0.2031 -0.2217 -0.4054
10719TIP3    H253573   3.771   2.318   2.306  0.2287  0.0911  0.2113
10720TIP3   OH253574   1.167   3.630  15.464  0.9518  0.0550 -0.3344
10720TIP3    H153575   1.262   3.637  15.450  0.9416  1.2298  0.1340
10720TIP3    H253576   1.156   3.644  15.558  0.4361 -1.5441 -0.1308
10721TIP3   OH253577   5.515   2.015  16.241  0.3156  0.9999 -0.0028
10721TIP3    H153578   5.608   2.018  16.265  0.8022  0.5794 -1.7314
10721TIP3    H253579   5.469   2.033  16.323  1.9264  1.8417  0.7628
10722TIP3   OH253580   0.425   0.025   0.288  0.5099 -0.5924 -0.3370
10722TIP3    H153581   0.439  -0.070   0.294 -1.1163 -0.7862  0.9779
10722TIP3    H253582   0.338   0.039   0.324  0.7993  1.4403 -0.3137
10723TIP3   OH253583   3.503   1.366   0.166  0.1511 -0.5752  0.6065
10723TIP3    H153584   3.591   1.330   0.177  0.8993  0.9641  0.0790
10723TIP3    H253585   3.457   1.302   0.112  1.6112 -0.4812 -0.8425
10724TIP3   OH253586   0.163   5.115  13.205 -0.1005 -0.2501 -0.1440
10724TIP3    H153587   0.210   5.194  13.179 -0.8579 -0.3049 -1.7796
10724TIP3    H253588   0.072   5.132  13.180 -0.3208 -1.5298 -0.2449
10725TIP3   OH253589   1.223   5.765  11.673 -0.6045  0.4168  0.3885
10725TIP3    H153590   1.281   5.748  11.747 -0.6370  0.5173  0.4367
10725TIP3    H253591   1.135   5.760  11.709 -0.6015  1.5684  0.5943
10726TIP3   OH253592   6.251   2.359   5.708 -0.1466  0.5829 -0.1333
10726TIP3    H153593   6.325   2.313   5.747  0.0921  1.9053  1.0589
10726TIP3    H253594   6.174   2.309   5.736  0.1787  0.2511  0.1826
10727TIP3   OH253595   0.573   2.828   1.142  0.0968  0.2632  0.1050
10727TIP3    H153596   0.658   2.808   1.180  0.1585  0.5597  0.1269
10727TIP3    H253597   0.564   2.768   1.069 -1.1133 -2.1064  2.0687
10728TIP3   OH253598   0.506   4.232   5.890 -0.1044  0.4401  0.3699
10728TIP3    H153599   0.590   4.191   5.870 -0.1653  0.3353  0.3283
10728TIP3    H253600   0.529   4.320   5.919 -0.0908  1.0581 -1.4249
10729TIP3   OH253601   3.956   2.139   4.050 -0.1388  0.0671 -0.0656
10729TIP3    H153602   3.886   2.183   4.001  0.6985  1.3557 -0.1572
10729TIP3    H253603   3.913   2.103   4.127 -0.6971  2.1410  0.6705
10730TIP3   OH253604   4.083   1.106   6.194 -0.4817 -0.3878  0.4194
10730TIP3    H153605   4.048   1.129   6.107 -0.9952  1.2703  1.0316
10730TIP3    H253606   4.061   1.013   6.205 -1.1846 -0.3942 -0.8492
10731TIP3   OH253607   4.407   3.257  12.289  0.1596 -0.9467  0.1909
10731TIP3    H153608   4.395   3.259  12.384 -0.1270 -0.6595  0.1507
10731TIP3    H253609   4.324   3.223  12.255  0.0286 -0.4478  0.0051
10732TIP3   OH253610   0.569   2.261   0.201  0.0931 -0.4426 -0.4250
10732TIP3    H153611   0.567   2.165   0.207 -0.1966 -0.4891 -1.1826
10732TIP3    H253612   0.628   2.279   0.127 -0.1677 -0.0503 -0.5396
10733TIP3   OH253613   1.762   0.153  17.124 -0.9177 -0.1534 -0.1858
10733TIP3    H153614   1.700   0.200  17.180  0.4665  1.1353  0.3157
10733TIP3    H253615   1.842   0.205  17.128  0.8052 -2.6788  0.6359
10734TIP3   OH253616   4.806   5.488   2.061 -0.4821  0.0682 -0.4718
10734TIP3    H153617   4.821   5.532   1.977 -1.6854 -0.6655 -1.1058
10734TIP3    H253618   4.892   5.456   2.087 -0.1834 -0.2666 -1.7791
10735TIP3   OH253619   0.485   2.174   4.014 -0.1267 -0.1786  0.2289
10735TIP3    H153620   0.467   2.239   4.082  0.1280  0.4577 -0.2919
10735TIP3    H253621   0.407   2.175   3.959 -0.2089 -0.4718  0.3393
10736TIP3   OH253622   4.939   0.161  16.644 -0.1891 -0.3577  0.0485
10736TIP3    H153623   5.020   0.195  16.682 -0.0996  0.5295 -0.8897
10736TIP3    H253624   4.965   0.128  16.558 -0.6051 -1.2449  0.2540
10737TIP3   OH253625   6.505   0.315  16.811 -0.3122 -0.3192 -0.2249
10737TIP3    H153626   6.558   0.390  16.837 -0.1284 -0.0612 -1.3042
10737TIP3    H253627   6.510   0.255  16.886  0.7209  0.1169  0.0768
10738TIP3   OH253628   2.278   0.139  14.896 -0.1775  0.4288 -0.7095
10738TIP3    H153629   2.214   0.077  14.861  0.5129 -0.9940  0.4352
10738TIP3    H253630   2.317   0.179  14.818  0.6408 -1.9373 -1.6326
10739TIP3   OH253631   5.896   3.989  15.039  0.2437  0.1286 -0.0607
10739TIP3    H153632   5.884   3.903  15.077 -1.0341  0.6011  0.6579
10739TIP3    H253633   5.899   3.974  14.944 -0.4402 -0.6575  0.0354
10740TIP3   OH253634   1.072   0.405  14.737  0.7153 -0.1990  0.0308
10740TIP3    H153635   1.153   0.456  14.733  1.4422 -1.0668  2.1516
10740TIP3    H253636   1.093   0.323  14.692  0.9155 -0.2916  0.2904
10741TIP3   OH253637   0.178   3.195  11.620 -0.4045  0.8960  0.1756
10741TIP3    H153638   0.220   3.177  11.704  1.8380  1.1561 -0.7940
10741TIP3    H253639   0.199   3.287  11.603 -1.4102  1.0333 -0.3510
10742TIP3   OH253640   3.601   5.147   0.242  0.0543  0.0697  0.1324
10742TIP3    H153641   3.555   5.225   0.211 -1.5751 -1.3801 -1.2941
10742TIP3    H253642   3.599   5.086   0.168  1.7347 -1.1570  1.0274
10743TIP3   OH253643   1.916   6.095   4.446  0.2675 -0.5182 -0.3970
10743TIP3    H153644   1.911   5.999   4.450  1.2447 -0.5508  0.2916
10743TIP3    H253645   1.991   6.118   4.501 -0.4315  0.7005  0.0971
10744TIP3   OH253646   1.922   4.813  12.935 -0.6812 -0.3988 -0.4002
10744TIP3    H153647   1.884   4.896  12.966 -2.4839 -0.0215 -3.2199
10744TIP3    H253648   1.991   4.794  12.998  0.1319  3.4862  0.1862
10745TIP3   OH253649   0.361   4.212   2.799  0.0936  0.2591 -0.6127
10745TIP3    H153650   0.327   4.166   2.723 -0.2482  0.2370 -0.4492
10745TIP3    H253651   0.362   4.146   2.869 -0.8939  0.6219 -0.2378
10746TIP3   OH253652   3.398   5.315   2.725  0.1213 -0.1405 -0.2773
10746TIP3    H153653   3.429   5.386   2.669  1.0299 -1.3349 -1.3488
10746TIP3    H253654   3.337   5.266   2.671  0.0415 -0.5777  0.2023
10747TIP3   OH253655   4.617   1.374   0.302 -0.3831 -0.8238 -0.0861
10747TIP3    H153656   4.672   1.333   0.236 -0.2950 -1.6697  0.4945
10747TIP3    H253657   4.637   1.326   0.383 -0.4487  0.2210  0.5663
10748TIP3   OH253658   5.375   2.108   3.353  0.4201  0.1152  0.4197
10748TIP3    H153659   5.465   2.091   3.323  0.4418  1.0118 -0.0597
10748TIP3    H253660   5.327   2.029   3.329  0.4881  0.6921 -1.8587
10749TIP3   OH253661   5.357   1.061  15.786  0.1110  0.2506  0.4198
10749TIP3    H153662   5.362   1.128  15.718 -0.3896 -0.0489  0.0799
10749TIP3    H253663   5.294   0.997  15.752 -0.9201  0.6094  1.5915
10750TIP3   OH253664   4.424   4.376  13.351 -0.2293  0.0559 -0.2762
10750TIP3    H153665   4.464   4.416  13.274  0.3985  0.6144  0.3305
10750TIP3    H253666   4.397   4.289  13.321  2.2026 -0.6867 -0.5139
10751TIP3   OH253667   4.522   3.056  16.762  0.5559 -0.1316  0.4347
10751TIP3    H153668   4.471   3.052  16.682  1.0726  1.0403  0.0278
10751TIP3    H253669   4.506   3.144  16.796  1.0037 -0.3277  1.1733
10752TIP3   OH253670   2.521   2.132  16.611 -0.2733  0.1825 -0.2112
10752TIP3    H153671   2.572   2.130  16.530  0.2203  0.4375  0.0893
10752TIP3    H253672   2.434   2.103  16.585 -0.1571  0.3980 -0.8630
10753TIP3   OH253673   5.113   3.053   2.005  0.2900 -0.0160  0.2809
10753TIP3    H153674   5.080   2.968   1.976  2.4052 -1.2774  1.2741
10753TIP3    H253675   5.192   3.067   1.953  1.5033 -0.0626  1.9954
10754TIP3   OH253676   3.612   3.879   0.217  0.2286  0.4739  0.0052
10754TIP3    H153677   3.547   3.809   0.212 -0.7046  1.3733 -0.8825
10754TIP3    H253678   3.693   3.834   0.241 -0.1116 -1.0736 -1.5156
10755TIP3   OH253679   4.489   3.094  17.143 -0.4686  0.8794 -0.3090
10755TIP3    H153680   4.432   3.065  17.072 -0.1799  0.4242 -0.3589
10755TIP3    H253681   4.577   3.072  17.114 -0.1417  2.5779 -0.7144
10756TIP3   OH253682   3.929   0.441  12.369 -0.3014  0.0122 -0.3761
10756TIP3    H153683   3.853   0.441  12.428  0.9660  2.0100  1.3816
10756TIP3    H253684   4.003   0.420  12.425  1.0771  2.8034 -0.9810
10757TIP3   OH253685   3.970   1.955  12.958  0.3027 -0.0115  0.0648
10757TIP3    H153686   3.901   1.890  12.943 -2.0253  2.0726  1.1492
10757TIP3    H253687   3.986   1.952  13.052  1.2043  0.0120 -0.0842
10758TIP3   OH253688   5.254   5.024   5.898 -0.2472 -0.0481  0.3768
10758TIP3    H153689   5.192   4.961   5.860  0.1577 -2.1460  2.9067
10758TIP3    H253690   5.340   4.988   5.876  0.0126  0.3699  0.7013
10759TIP3   OH253691   0.735   2.379   3.287  0.2714 -0.2340 -0.3038
10759TIP3    H153692   0.796   2.305   3.293  0.8472  0.3170  1.0206
10759TIP3    H253693   0.763   2.428   3.210  2.1361  0.5187  0.7988
10760TIP3   OH253694   3.005   2.467   2.359  0.2668 -0.0101 -0.0263
10760TIP3    H153695   3.079   2.520   2.388  0.4098 -0.2495  0.0392
10760TIP3    H253696   3.043   2.397   2.307  0.1244 -0.3696  0.3447
10761TIP3   OH253697   3.564   6.343   0.065  0.1976  0.0500 -0.1047
10761TIP3    H153698   3.592   6.255   0.090  0.1998  0.0100 -0.2431
10761TIP3    H253699   3.599   6.354  -0.023 -2.1205 -0.8861 -1.2368
10762TIP3   OH253700   0.979   4.177   0.249  0.2720 -0.5911 -0.2301
10762TIP3    H153701   0.990   4.250   0.188  1.0801 -0.4377  0.0795
10762TIP3    H253702   0.915   4.120   0.207 -0.2336  0.1955 -0.5724
10763TIP3   OH253703   0.991   5.248  12.478  0.2702 -0.0599  0.3172
10763TIP3    H153704   0.950   5.242  12.392 -0.5969 -1.0225  0.7640
10763TIP3    H253705   1.081   5.219  12.464 -0.2610 -1.6853 -0.0417
10764TIP3   OH253706   4.216   0.190  16.967 -0.1332 -0.3340  0.0614
10764TIP3    H153707   4.134   0.219  16.926 -0.0735  1.4431  1.0788
10764TIP3    H253708   4.262   0.271  16.988  2.1901 -1.2795 -1.0007
10765TIP3   OH253709   0.335   3.702  16.873  0.8221  0.1764 -0.1610
10765TIP3    H153710   0.255   3.649  16.871  0.1496  1.1517 -0.9207
10765TIP3    H253711   0.303   3.792  16.859  1.9775  0.6933  0.4356
10766TIP3   OH253712   1.281   3.806   3.347 -0.8295  0.2980 -0.4240
10766TIP3    H153713   1.205   3.820   3.291 -0.6248  1.0004 -0.5288
10766TIP3    H253714   1.251   3.831   3.435 -0.2396  2.2558 -0.7306
10767TIP3   OH253715   5.937   4.965  14.570 -0.3284  0.3173  0.1780
10767TIP3    H153716   5.857   5.012  14.595  0.4605  1.0041  1.5154
10767TIP3    H253717   6.008   5.022  14.599  0.6865  0.0558 -1.6169
10768TIP3   OH253718   5.890   3.071  12.825  0.6948  0.1663 -0.0941
10768TIP3    H153719   5.876   3.039  12.736  0.0740  3.6178 -1.3803
10768TIP3    H253720   5.979   3.106  12.824  1.3864 -1.3931  1.2874
10769TIP3   OH253721   5.343   1.178  14.200 -0.1825  0.2631  0.1594
10769TIP3    H153722   5.296   1.095  14.198 -2.1529  1.2926 -2.0332
10769TIP3    H253723   5.413   1.168  14.135  2.2106 -0.9268  2.7206
10770TIP3   OH253724   1.150   4.795   5.102 -0.1026  0.1351  0.5602
10770TIP3    H153725   1.193   4.807   5.187  0.2320 -3.4075  1.0439
10770TIP3    H253726   1.196   4.721   5.062 -1.8008  0.1846 -1.6671
10771TIP3   OH253727   2.969   2.604  12.956 -0.1278  0.2131 -0.7116
10771TIP3    H153728   2.885   2.618  12.913 -0.1218 -0.8974 -1.1048
10771TIP3    H253729   3.025   2.564  12.889  0.9066  1.4445 -0.6234
10772TIP3   OH253730   6.658   3.566  14.086 -0.4480 -0.2767  0.8646
10772TIP3    H153731   6.643   3.566  14.181  2.4638 -0.4293  1.4113
10772TIP3    H253732   6.753   3.557  14.077 -0.2306  2.8995 -2.0064
10773TIP3   OH253733   0.995   5.673   5.007 -0.4825  0.1118 -0.1424
10773TIP3    H153734   1.051   5.742   5.041  0.7710 -0.3785 -1.1389
10773TIP3    H253735   1.027   5.593   5.048 -0.2499 -0.2096 -0.9229
10774TIP3   OH253736   1.537   4.183  16.334 -0.3074 -0.0390 -0.7741
10774TIP3    H153737   1.471   4.133  16.286  1.4842 -0.7673 -2.6224
10774TIP3    H253738   1.507   4.274  16.326 -2.3072 -0.5092  0.5271
10775TIP3   OH253739   0.155   1.276  14.825  0.2650  0.2790 -0.0498
10775TIP3    H153740   0.104   1.281  14.905  0.8832  1.4333  0.2973
10775TIP3    H253741   0.117   1.342  14.767  0.8170  0.5569 -0.1054
10776TIP3   OH253742   2.245   6.375   1.470 -0.3035  0.1272  0.0685
10776TIP3    H153743   2.264   6.300   1.527 -1.0160  0.3842  0.6604
10776TIP3    H253744   2.166   6.414   1.508  0.3245  1.4649  0.0644
10777TIP3   OH253745   2.403   5.017  16.288  0.3242  0.0685  0.4824
10777TIP3    H153746   2.340   5.023  16.216 -0.2506  1.2234  1.0479
10777TIP3    H253747   2.473   4.961  16.255 -0.8651 -1.0242 -0.2648
10778TIP3   OH253748   1.847   6.496  14.678  0.2145 -0.3660 -0.2552
10778TIP3    H153749   1.852   6.449  14.761  0.6877  0.2645  0.0845
10778TIP3    H253750   1.883   6.583  14.697 -0.0707 -0.0688 -1.0149
10779TIP3   OH253751   5.226   3.166   2.837 -0.0319 -0.0223  0.0582
10779TIP3    H153752   5.198   3.241   2.786 -0.5856 -0.5018 -0.3582
10779TIP3    H253753   5.321   3.167   2.831 -0.0310  0.6853  0.1224
10780TIP3   OH253754   1.037   2.975  13.684 -0.5720  0.0367 -0.0981
10780TIP3    H153755   1.098   2.997  13.614  0.4365 -2.1646  0.0009
10780TIP3    H253756   0.951   2.998  13.650  0.2108  2.7959 -0.4122
10781TIP3   OH253757   5.551   2.851  16.361 -0.1779 -0.8065 -0.0796
10781TIP3    H153758   5.636   2.877  16.324  0.1608 -0.3843  0.9533
10781TIP3    H253759   5.556   2.755  16.365  0.2073 -0.7941 -0.1495
10782TIP3   OH253760   4.390   5.315  11.369 -0.5836  0.1659 -0.6274
10782TIP3    H153761   4.335   5.321  11.290  0.6569  0.5241 -1.4935
10782TIP3    H253762   4.437   5.398  11.372  0.9097 -0.6372 -0.6804
10783TIP3   OH253763   3.710   1.491  14.250  0.1641  0.4114 -0.2824
10783TIP3    H153764   3.695   1.413  14.197  0.8862  0.3428 -0.3986
10783TIP3    H253765   3.687   1.564  14.193  0.3107  0.3142 -0.4665
10784TIP3   OH253766   2.954   0.174   5.904 -0.1234 -0.0273  0.4361
10784TIP3    H153767   2.892   0.240   5.873  1.0461 -0.1503 -2.4413
10784TIP3    H253768   2.962   0.191   5.998 -3.7795  0.5327  0.7783
10785TIP3   OH253769   1.225   3.911   1.422 -0.1515  0.1069 -0.1280
10785TIP3    H153770   1.220   3.995   1.469  1.2060 -0.4127  1.0043
10785TIP3    H253771   1.170   3.852   1.473 -0.5093  0.1078 -0.5057
10786TIP3   OH253772   5.738   2.960  14.385 -0.5291  0.4992 -0.2735
10786TIP3    H153773   5.833   2.946  14.391 -0.8036 -1.7499 -0.4678
10786TIP3    H253774   5.724   3.045  14.428  1.3985  0.1979  1.0838
10787TIP3   OH253775   6.638   4.587  13.195  0.0660  0.0502  0.2094
10787TIP3    H153776   6.686   4.517  13.239 -0.6884 -0.3026  0.4927
10787TIP3    H253777   6.567   4.542  13.148 -1.0647  0.6943  1.2451
10788TIP3   OH253778   6.618   6.013   5.696  0.2856  0.6918  0.0325
10788TIP3    H153779   6.571   6.096   5.685 -0.6199  0.1665 -0.1384
10788TIP3    H253780   6.689   6.016   5.632  1.2151  1.9819  1.0584
10789TIP3   OH253781   5.711   2.338  10.934 -0.1914  1.1439  0.3962
10789TIP3    H153782   5.729   2.385  11.016  0.5748  0.0428  0.8898
10789TIP3    H253783   5.616   2.331  10.931 -0.3192  2.6437  0.3391
10790TIP3   OH253784   2.812   4.831   5.639 -0.0608  0.3817  0.6499
10790TIP3    H153785   2.762   4.913   5.644 -1.3280 -0.2708 -0.7036
10790TIP3    H253786   2.759   4.767   5.686 -0.6682 -0.3772 -1.0027
10791TIP3   OH253787   0.856   3.875   5.203  0.2231  0.3300 -0.3938
10791TIP3    H153788   0.808   3.958   5.206  2.0988  1.5297 -1.2871
10791TIP3    H253789   0.863   3.849   5.295 -1.2723  0.6005 -0.1721
10792TIP3   OH253790   6.310   5.818  16.418  0.5132 -0.7153 -0.2290
10792TIP3    H153791   6.402   5.795  16.433  0.2772 -1.0425  0.7960
10792TIP3    H253792   6.311   5.872  16.339  1.7011  0.0495  0.2858
10793TIP3   OH253793   1.165   3.095  11.391 -0.3642  0.4686  0.1839
10793TIP3    H153794   1.209   3.013  11.371  0.4181  0.4806  1.7280
10793TIP3    H253795   1.082   3.089  11.345 -0.1805 -1.0456 -0.0096
10794TIP3   OH253796   0.088   1.754  13.424 -0.0150 -0.5301  0.2707
10794TIP3    H153797   0.019   1.688  13.437 -0.8077  0.3140  0.4691
10794TIP3    H253798   0.058   1.830  13.474 -0.5262  0.9707 -2.1288
10795TIP3   OH253799   4.077   5.864  17.259 -0.0577 -0.0957  0.4349
10795TIP3    H153800   4.136   5.804  17.305 -0.9824 -0.5822  1.0029
10795TIP3    H253801   4.120   5.949  17.266  1.1774 -0.6362 -0.2157
10796TIP3   OH253802   0.442   3.415  11.956 -0.3897  0.1685 -0.0865
10796TIP3    H153803   0.484   3.343  12.004  0.0624  1.1491  1.0368
10796TIP3    H253804   0.475   3.406  11.867  1.5362  0.3442  0.5441
10797TIP3   OH253805   6.365   6.537  16.532 -0.0129  0.6157 -0.1853
10797TIP3    H153806   6.429   6.484  16.580  0.9231  0.7842 -1.2122
10797TIP3    H253807   6.345   6.485  16.455 -1.8812  0.1192  0.5735
10798TIP3   OH253808   3.931   4.893   2.932  0.2867  0.5614  0.0940
10798TIP3    H153809   3.887   4.812   2.953  0.0891  0.3631 -1.0066
10798TIP3    H253810   4.005   4.867   2.877  0.0627  1.1359 -0.4980
10799TIP3   OH253811   2.512   3.492  14.432 -0.1421 -0.2125  0.7748
10799TIP3    H153812   2.424   3.459  14.418 -0.4974  1.3756 -1.2540
10799TIP3    H253813   2.554   3.486  14.346  0.7164  1.7826  1.0045
10800TIP3   OH253814   0.670   4.816  12.133  0.0812  0.3266  0.3287
10800TIP3    H153815   0.689   4.724  12.147 -1.0418 -0.0303 -0.3281
10800TIP3    H253816   0.586   4.830  12.178 -1.9177 -0.0471 -2.9768
10801TIP3   OH253817   5.846   3.977   4.192 -0.5876  0.3517 -0.1883
10801TIP3    H153818   5.779   4.000   4.256 -0.1867 -0.1491  0.4421
10801TIP3    H253819   5.813   4.008   4.108 -1.6581  0.0018  0.0929
10802TIP3   OH253820   0.893   6.646   0.473  0.3083 -0.5023  0.3130
10802TIP3    H153821   0.935   6.642   0.559  1.5780  1.1185 -0.1852
10802TIP3    H253822   0.811   6.693   0.489 -0.5468 -2.1376  0.9809
10803TIP3   OH253823   0.108   0.771   1.463 -0.6639  0.0295 -0.2345
10803TIP3    H153824   0.162   0.759   1.541  0.2752  1.2825 -0.6532
10803TIP3    H253825   0.095   0.866   1.457 -0.5379 -0.0206 -1.6967
10804TIP3   OH253826   5.264   1.831  17.267 -0.0679 -0.4619 -0.6271
10804TIP3    H153827   5.175   1.798  17.258 -0.3241 -0.2645  1.0010
10804TIP3    H253828   5.257   1.906  17.326  1.4339 -1.7996  1.4049
10805TIP3   OH253829   5.312   1.197   0.813 -0.2878  0.3811  0.2209
10805TIP3    H153830   5.227   1.183   0.856 -0.5337 -0.0749 -0.3998
10805TIP3    H253831   5.369   1.129   0.849 -0.3729  0.2741  0.1551
10806TIP3   OH253832   6.009   1.103   0.886  0.3492 -0.0214 -0.0915
10806TIP3    H153833   6.039   1.158   0.959 -0.4092 -0.0154  0.2190
10806TIP3    H253834   6.035   1.015   0.911 -1.4007 -0.2672  1.0121
10807TIP3   OH253835   3.245   1.393  14.337  0.5844 -0.3516  0.2156
10807TIP3    H153836   3.167   1.342  14.316 -0.3532  0.4683  1.6051
10807TIP3    H253837   3.298   1.334  14.391 -0.0268 -0.2304  0.9658
10808TIP3   OH253838   5.205   3.442   4.497  0.1630 -0.0598 -0.3678
10808TIP3    H153839   5.228   3.416   4.408  3.3458  0.0221  0.3256
10808TIP3    H253840   5.173   3.361   4.537  0.0663 -0.4300 -1.1593
10809TIP3   OH253841   0.193   2.184   0.731 -0.5079  0.0833 -0.3416
10809TIP3    H153842   0.167   2.252   0.793 -2.7334  2.4078 -3.5305
10809TIP3    H253843   0.229   2.232   0.656 -1.4938 -2.2585 -2.4539
10810TIP3   OH253844   4.629   1.254  16.408  0.0763  0.2863 -0.5032
10810TIP3    H153845   4.634   1.159  16.398  0.7581  0.5794 -5.4987
10810TIP3    H253846   4.718   1.281  16.431  0.2969 -0.2183 -0.7513
10811TIP3   OH253847   2.870   0.986  16.202  0.0149 -0.2017  0.3712
10811TIP3    H153848   2.924   0.917  16.164  0.9037  0.4694  0.3624
10811TIP3    H253849   2.877   1.059  16.139 -0.8431 -0.0716  0.4108
10812TIP3   OH253850   1.494   6.129   3.979  0.3495 -0.2456  0.1152
10812TIP3    H153851   1.417   6.158   4.027  0.8432  0.3333  0.5673
10812TIP3    H253852   1.533   6.061   4.034 -0.4711 -1.3648 -0.6591
10813TIP3   OH253853   2.923   2.893  12.813  0.0188 -0.1080  0.0319
10813TIP3    H153854   2.970   2.902  12.730  0.8430  0.7345  0.5756
10813TIP3    H253855   2.856   2.961  12.809 -0.6250 -0.7434 -0.3680
10814TIP3   OH253856   0.837   0.159   5.555 -0.1103  0.2906 -0.0807
10814TIP3    H153857   0.834   0.069   5.523 -1.1442 -0.2510  1.4595
10814TIP3    H253858   0.919   0.164   5.605  0.3943  0.4897 -0.9067
10815TIP3   OH253859   2.796   6.048  14.430  0.3150  0.0231 -0.1620
10815TIP3    H153860   2.753   5.964  14.419  1.1752 -0.2351 -1.9148
10815TIP3    H253861   2.887   6.033  14.403  0.1127  1.8487 -2.1549
10816TIP3   OH253862   4.975   2.256  15.920  0.1455  0.0213  0.2905
10816TIP3    H153863   5.065   2.253  15.951  0.4381  0.4007 -0.5081
10816TIP3    H253864   4.973   2.329  15.858 -0.6202 -0.2297  0.0061
10817TIP3   OH253865   2.763   0.864   5.521  0.1853  0.2108 -0.5794
10817TIP3    H153866   2.707   0.823   5.455 -1.9677  1.6747  0.2511
10817TIP3    H253867   2.821   0.793   5.550 -2.1082 -1.7741 -0.5420
10818TIP3   OH253868   0.782   6.270  11.454  0.0656  0.5629 -0.8087
10818TIP3    H153869   0.853   6.325  11.485  0.9552 -1.4317  0.9610
10818TIP3    H253870   0.725   6.260  11.530 -1.7089  1.4140 -1.9503
10819TIP3   OH253871   2.353   4.988   1.446 -0.5759 -0.3833 -1.0305
10819TIP3    H153872   2.301   5.019   1.372 -0.9360  1.3424 -0.0900
10819TIP3    H253873   2.379   5.067   1.493  1.3518 -1.3201 -0.4237
10820TIP3   OH253874   1.469   4.842   4.921 -0.1678 -0.3884 -0.2821
10820TIP3    H153875   1.499   4.804   4.838 -0.2584 -0.5202 -0.2546
10820TIP3    H253876   1.437   4.929   4.898  1.9591  0.5191 -0.0370
10821TIP3   OH253877   6.157   2.371  17.053 -0.6389  0.4685  0.0369
10821TIP3    H153878   6.179   2.293  17.104 -2.1391 -0.5324 -0.7553
10821TIP3    H253879   6.241   2.405  17.022 -0.0249 -1.9056 -1.1142
10822TIP3   OH253880   5.018   3.889  13.869 -0.4652  0.0451  0.2472
10822TIP3    H153881   4.989   3.811  13.822  3.8517 -1.3351 -0.5890
10822TIP3    H253882   5.066   3.855  13.945 -0.6264  1.9966  1.2916
10823TIP3   OH253883   4.309   6.399  16.365  0.1248  0.2231 -0.2286
10823TIP3    H153884   4.217   6.385  16.387 -0.2557  0.9989 -1.2329
10823TIP3    H253885   4.327   6.489  16.391 -0.0292  0.7931 -2.0088
10824TIP3   OH253886   1.280   4.243   3.164 -0.1698 -0.0664  0.9359
10824TIP3    H153887   1.214   4.276   3.226  0.1595  2.1298  0.1990
10824TIP3    H253888   1.363   4.257   3.209 -0.0094  0.2887  0.5267
10825TIP3   OH253889   4.111   4.744   2.376  0.1366 -0.0535 -0.0591
10825TIP3    H153890   4.047   4.718   2.443  0.6413  1.9871  1.2954
10825TIP3    H253891   4.147   4.661   2.345 -0.2193 -1.1005  2.1118
10826TIP3   OH253892   1.870   3.921  12.174  0.7323 -0.0648  0.5346
10826TIP3    H153893   1.853   3.917  12.268  0.5488 -1.2657  0.4660
10826TIP3    H253894   1.864   4.014  12.152  0.2291  0.1656  1.6120
10827TIP3   OH253895   4.260   3.458  16.739  0.3585 -0.4028 -0.4397
10827TIP3    H153896   4.277   3.486  16.649  0.2855  0.5552 -0.1657
10827TIP3    H253897   4.205   3.527  16.776  0.9438 -0.4444  0.5501
10828TIP3   OH253898   2.479   4.162   3.264  0.1979  0.5557  0.2894
10828TIP3    H153899   2.505   4.222   3.194 -1.4419  0.4202 -0.4786
10828TIP3    H253900   2.391   4.190   3.288 -1.0883 -2.1671 -0.8598
10829TIP3   OH253901   5.053   4.625  16.533  0.3337  0.0158 -0.1672
10829TIP3    H153902   5.089   4.638  16.446 -1.3981  2.7921 -0.5703
10829TIP3    H253903   5.104   4.683  16.590 -0.5330  0.5730  0.0671
10830TIP3   OH253904   4.639   0.524  17.120 -0.4454  0.6289 -0.1841
10830TIP3    H153905   4.690   0.503  17.042 -0.3520  0.3310 -0.0421
10830TIP3    H253906   4.570   0.458  17.122  0.3017 -0.1478  0.6813
10831TIP3   OH253907   1.155   5.789  14.927 -0.1011 -0.2577  0.0353
10831TIP3    H153908   1.074   5.757  14.886 -0.4661 -0.9862  1.2683
10831TIP3    H253909   1.154   5.750  15.015  0.9849  0.7183  0.4977
10832TIP3   OH253910   5.669   3.243  12.888  0.0119  0.2870 -0.0712
10832TIP3    H153911   5.610   3.256  12.814  0.4422  0.6458 -0.3533
10832TIP3    H253912   5.725   3.169  12.862 -0.2397  0.0093  0.1570
10833TIP3   OH253913   5.293   5.180   4.383  0.4148  0.2051  0.4623
10833TIP3    H153914   5.258   5.199   4.470  0.5612 -3.4613  1.4682
10833TIP3    H253915   5.384   5.155   4.399  0.2515 -1.2012 -0.6151
10834TIP3   OH253916   6.575   3.266  14.072 -0.5040 -0.1567  0.4280
10834TIP3    H153917   6.556   3.360  14.068 -2.2492 -0.4772  0.4644
10834TIP3    H253918   6.490   3.225  14.082 -0.0977 -1.9554 -2.4807
10835TIP3   OH253919   4.292   6.088  11.014  0.4478 -0.4283  0.1261
10835TIP3    H153920   4.254   6.136  10.941  0.7099  0.5162  0.5964
10835TIP3    H253921   4.349   6.023  10.973  0.9466  0.3905 -0.5204
10836TIP3   OH253922   0.482   4.195   3.910 -0.3460 -0.0586 -0.8528
10836TIP3    H153923   0.570   4.184   3.945 -0.5935  0.1727 -0.1395
10836TIP3    H253924   0.453   4.106   3.889 -0.8201 -0.4150  1.1080
10837TIP3   OH253925   2.600   2.151  12.137 -0.6010 -0.1201 -0.0378
10837TIP3    H153926   2.585   2.232  12.089  0.0672 -0.3599 -0.6682
10837TIP3    H253927   2.625   2.179  12.225 -0.5361  0.3568 -0.2091
10838TIP3   OH253928   2.150   4.783   1.489  0.1046  0.1676  0.5356
10838TIP3    H153929   2.212   4.852   1.464 -1.1229  1.0805 -0.0916
10838TIP3    H253930   2.135   4.734   1.408  0.0378 -0.0791  0.6972
10839TIP3   OH253931   4.932   4.273   2.255 -0.1554 -0.4389 -0.4206
10839TIP3    H153932   4.939   4.180   2.278 -0.0842 -0.0048  1.4648
10839TIP3    H253933   5.018   4.309   2.273 -0.9218  0.5191  1.5428
10840TIP3   OH253934   5.858   0.107  15.460 -0.4133 -0.2548  0.2362
10840TIP3    H153935   5.905   0.062  15.529  0.0439  0.4425  0.3916
10840TIP3    H253936   5.814   0.037  15.411  0.3025 -0.8618  0.4472
10841TIP3   OH253937   4.791   3.159   1.263 -0.0449 -0.3045 -0.7869
10841TIP3    H153938   4.723   3.182   1.326 -1.3671 -1.7612 -1.6223
10841TIP3    H253939   4.829   3.243   1.238  0.5791  0.3196  1.9522
10842TIP3   OH253940   3.989   1.490   5.707 -0.5313 -0.0974  0.1602
10842TIP3    H153941   4.020   1.577   5.684 -0.2320 -0.1541  0.3504
10842TIP3    H253942   3.897   1.489   5.677  0.2345 -0.6954 -2.4614
10843TIP3   OH253943   1.153   2.287  13.764 -0.2677 -0.0602 -0.3403
10843TIP3    H153944   1.091   2.284  13.837  0.5256 -2.2889  0.3447
10843TIP3    H253945   1.195   2.373  13.771 -1.0653  0.2468  1.0845
10844TIP3   OH253946   3.734   5.786   4.657 -0.2594  0.0981 -0.2979
10844TIP3    H153947   3.818   5.743   4.646 -0.1314  0.7361 -2.1475
10844TIP3    H253948   3.749   5.851   4.727 -0.0857 -1.7818  1.5055
10845TIP3   OH253949   3.662   1.969  15.088 -0.1128 -0.0243  0.0836
10845TIP3    H153950   3.661   1.888  15.036 -1.8818  1.0759 -1.7706
10845TIP3    H253951   3.624   1.944  15.172  0.6302 -1.3738  0.0565
10846TIP3   OH253952   5.158   2.243   0.096  0.1296 -0.7268 -0.3297
10846TIP3    H153953   5.117   2.283   0.173  1.3147  0.6860 -0.4020
10846TIP3    H253954   5.219   2.178   0.133  0.8673  0.1114 -0.0448
10847TIP3   OH253955   4.864   1.359  14.613 -0.9458 -0.7195  0.4421
10847TIP3    H153956   4.884   1.447  14.579 -0.2680 -0.5460  1.2395
10847TIP3    H253957   4.939   1.338  14.669 -0.7743 -2.0942 -0.2611
10848TIP3   OH253958   3.734   3.548   6.201  0.4333  0.1904 -0.5514
10848TIP3    H153959   3.830   3.557   6.200  0.5487 -0.9888 -1.7308
10848TIP3    H253960   3.718   3.460   6.235 -0.3445  1.0927  1.5987
10849TIP3   OH253961   5.427   6.215  11.484 -0.2575  0.5668 -0.5275
10849TIP3    H153962   5.384   6.132  11.502  1.8702 -0.1731  1.7860
10849TIP3    H253963   5.409   6.232  11.392 -2.0940 -1.6281 -0.6556
10850TIP3   OH253964   4.297   6.383   0.489 -0.2770 -0.1434  0.3668
10850TIP3    H153965   4.350   6.311   0.522  1.6606  0.9638 -0.1617
10850TIP3    H253966   4.277   6.359   0.399  0.1180 -0.1663  0.2835
10851TIP3   OH253967   0.990   2.976  15.424  0.0080  0.3672  0.4188
10851TIP3    H153968   1.074   2.931  15.430 -0.0456  0.3879  1.3774
10851TIP3    H253969   0.934   2.933  15.488 -1.2139 -0.6470 -1.2372
10852TIP3   OH253970   1.954   3.799  15.401  0.0341  0.0289 -0.4660
10852TIP3    H153971   2.016   3.869  15.387 -0.3804  0.2747 -1.1039
10852TIP3    H253972   1.943   3.758  15.315  1.3784 -1.7785  0.1435
10853TIP3   OH253973   6.421   3.515   0.438 -0.5046  0.3820 -0.3503
10853TIP3    H153974   6.408   3.581   0.370 -0.1258  1.3460  0.4800
10853TIP3    H253975   6.415   3.564   0.520 -2.6719 -0.9889  0.4236
10854TIP3   OH253976   4.863   5.310   2.566 -0.1795 -0.5176  0.3347
10854TIP3    H153977   4.885   5.371   2.636 -1.0153 -0.7069  0.7855
10854TIP3    H253978   4.790   5.351   2.520  0.2793 -0.4568 -0.3554
10855TIP3   OH253979   6.357   5.689   3.405 -0.0175 -0.0843 -0.1837
10855TIP3    H153980   6.364   5.779   3.438 -0.3954 -0.2149  0.2700
10855TIP3    H253981   6.396   5.692   3.318  0.9343  0.2925  0.2402
10856TIP3   OH253982   0.840   6.666   5.579 -0.3619  0.0769  0.0235
10856TIP3    H153983   0.844   6.704   5.667 -0.7374  1.6172 -0.6091
10856TIP3    H253984   0.796   6.582   5.592  1.7986 -0.9166  1.6799
10857TIP3   OH253985   6.258   3.341  16.221  0.1783 -0.1622 -0.1933
10857TIP3    H153986   6.332   3.401  16.234  1.3065 -1.6620  0.6882
10857TIP3    H253987   6.298   3.254  16.223 -1.6183 -1.0177  0.2000
10858TIP3   OH253988   5.822   2.140   2.630 -0.5436  0.4168  0.2927
10858TIP3    H153989   5.733   2.145   2.664 -0.5327 -1.9741  0.8201
10858TIP3    H253990   5.877   2.169   2.703 -0.7930  0.0745  0.6173
10859TIP3   OH253991   2.974   5.537   4.765 -0.4969 -0.2090 -0.2775
10859TIP3    H153992   2.973   5.506   4.674 -0.4457  2.4927 -1.3199
10859TIP3    H253993   3.019   5.622   4.760 -3.1543  1.4905  1.6970
10860TIP3   OH253994   4.593   4.025   5.515  0.5834 -0.3445 -0.3204
10860TIP3    H153995   4.591   3.938   5.554 -0.5170  0.8179  2.4669
10860TIP3    H253996   4.677   4.062   5.542 -0.3896  0.6484  1.5166
10861TIP3   OH253997   4.870   2.662   1.778  0.1424 -0.4444  0.1542
10861TIP3    H153998   4.901   2.573   1.794 -0.6244 -0.8666 -0.5624
10861TIP3    H253999   4.890   2.678   1.685 -1.3470 -0.5862 -0.2216
10862TIP3   OH254000   5.770   0.733  13.132 -0.2730  0.4700  0.0277
10862TIP3    H154001   5.772   0.726  13.037 -0.6440 -0.7773  0.0946
10862TIP3    H254002   5.849   0.688  13.161 -1.7149 -1.9393  0.4148
10863TIP3   OH254003   4.826   6.287   3.807  0.0181 -0.0301  0.3934
10863TIP3    H154004   4.756   6.261   3.747 -0.7438 -0.6386  1.5084
10863TIP3    H254005   4.906   6.252   3.766 -0.0543  1.9990 -1.6857
10864TIP3   OH254006   6.750   5.252   3.319  0.6460 -0.4155 -0.4019
10864TIP3    H154007   6.759   5.235   3.225 -1.8795 -0.8317 -0.6401
10864TIP3    H254008   6.698   5.178   3.352  0.3174  0.4254  1.0543
10865TIP3   OH254009   4.469   6.153   3.157  0.7298 -0.8474 -0.1590
10865TIP3    H154010   4.495   6.066   3.188  0.1944 -1.3984 -1.2200
10865TIP3    H254011   4.549   6.190   3.120  1.3600 -0.2164  1.7306
10866TIP3   OH254012   4.941   3.442   5.574 -0.1128 -0.3068  0.3072
10866TIP3    H154013   4.853   3.460   5.607 -0.1287 -0.9537  0.6493
10866TIP3    H254014   4.999   3.472   5.644 -0.1483 -1.7215  0.9921
10867TIP3   OH254015   3.987   2.072  14.016 -0.4806  0.2478 -0.3516
10867TIP3    H154016   4.082   2.071  14.003 -0.0322  0.4103  2.2932
10867TIP3    H254017   3.972   2.149  14.071 -1.5234 -2.0562  2.8204
10868TIP3   OH254018   3.393   4.614  13.367 -0.6459  0.4321 -0.1472
10868TIP3    H154019   3.444   4.579  13.440 -1.0403 -0.0609 -0.0977
10868TIP3    H254020   3.433   4.575  13.289 -0.3829  0.7575 -0.1734
10869TIP3   OH254021   1.406   0.968   3.665 -0.3831  0.5124  0.0703
10869TIP3    H154022   1.433   1.039   3.722  1.3340 -1.4630  1.9234
10869TIP3    H254023   1.400   0.892   3.723 -0.1468 -1.2815 -2.1172
10870TIP3   OH254024   1.822   3.838  14.836  0.0681  0.2662 -0.1159
10870TIP3    H154025   1.864   3.912  14.880  0.1206  0.2004 -0.0548
10870TIP3    H254026   1.732   3.868  14.819 -0.3503 -0.1803  1.2154
10871TIP3   OH254027   2.837   1.141  17.135  0.2361 -0.3619 -0.3535
10871TIP3    H154028   2.764   1.184  17.180 -0.3672 -0.6333 -1.0593
10871TIP3    H254029   2.907   1.207  17.135  1.5194 -1.3832  3.9152
10872TIP3   OH254030   6.022   0.585  16.511 -0.9208 -0.5351 -0.4048
10872TIP3    H154031   6.116   0.570  16.509 -0.8063 -0.8877  2.4391
10872TIP3    H254032   6.002   0.631  16.430  1.7750 -0.0742 -0.8779
10873TIP3   OH254033   4.974   5.856  15.560  0.0862  0.6988  0.0307
10873TIP3    H154034   4.968   5.770  15.519 -2.3986  1.5548 -1.6502
10873TIP3    H254035   5.035   5.906  15.506  1.9758 -0.0977  1.3360
10874TIP3   OH254036   5.796   6.724  11.188  0.1578 -0.1043 -0.4858
10874TIP3    H154037   5.759   6.795  11.136 -0.9732 -0.3593 -0.0611
10874TIP3    H254038   5.885   6.753  11.209 -0.4604  1.4078  0.1353
10875TIP3   OH254039   3.269   0.991  12.845  0.5086 -0.5445 -0.0221
10875TIP3    H154040   3.287   1.045  12.922 -1.7698  0.0862  0.1667
10875TIP3    H254041   3.353   0.980  12.802  1.2714  2.1227  0.6224
10876TIP3   OH254042   6.278   5.726  12.704  0.6993 -0.3143  0.6076
10876TIP3    H154043   6.372   5.706  12.706  0.6449 -0.4686  1.5851
10876TIP3    H254044   6.263   5.781  12.781  0.4159  1.6770 -0.7795
10877TIP3   OH254045   4.844   3.073   1.675 -0.0924 -0.0697  0.3193
10877TIP3    H154046   4.769   3.131   1.689 -0.7197 -1.0700  1.1639
10877TIP3    H254047   4.896   3.119   1.609 -2.0276  0.0946 -1.2021
10878TIP3   OH254048   4.709   4.447  12.122 -0.5050 -0.5237 -0.6627
10878TIP3    H154049   4.645   4.398  12.069 -1.0317 -0.2687 -0.2794
10878TIP3    H254050   4.660   4.470  12.202  0.6267 -1.9885  0.5225
10879TIP3   OH254051   2.201   5.398   2.103  0.0341 -0.1014  0.8318
10879TIP3    H154052   2.132   5.335   2.085 -0.7329  0.5047  1.5477
10879TIP3    H254053   2.279   5.362   2.060 -0.3252 -1.6179  1.3802
10880TIP3   OH254054   1.350   4.443  10.714 -0.7468  0.2188  0.4877
10880TIP3    H154055   1.292   4.404  10.780 -1.2361  1.2281  0.6780
10880TIP3    H254056   1.437   4.439  10.753 -0.3474 -2.8992 -0.5150
10881TIP3   OH254057   0.853   2.280   0.684 -0.1758 -0.2078 -0.1882
10881TIP3    H154058   0.837   2.372   0.664  0.6638 -0.2770 -1.2481
10881TIP3    H254059   0.777   2.234   0.648  0.0197 -0.0604 -0.7839
10882TIP3   OH254060   2.942   1.352   1.431  0.0026 -0.0826 -0.7978
10882TIP3    H154061   2.901   1.376   1.347  1.0880  0.1134 -1.2921
10882TIP3    H254062   2.887   1.282   1.465 -0.8235  0.2672 -1.3721
10883TIP3   OH254063   0.478   3.525   5.729 -0.3441 -0.3404  0.1488
10883TIP3    H154064   0.548   3.531   5.663 -0.1557  0.2604  0.3931
10883TIP3    H254065   0.425   3.451   5.701 -0.5430  0.1856 -0.9500
10884TIP3   OH254066   3.830   2.153   1.146 -0.0057  0.2898 -0.0016
10884TIP3    H154067   3.845   2.059   1.160 -1.2726 -0.1864 -1.5939
10884TIP3    H254068   3.747   2.171   1.189  1.0760  1.1528  1.8878
10885TIP3   OH254069   0.305   3.050  11.136  0.1034 -0.3232  0.1019
10885TIP3    H154070   0.373   3.000  11.090 -0.5099 -2.2945  1.1820
10885TIP3    H254071   0.353   3.101  11.201  0.5832 -1.7774  0.9295
10886TIP3   OH254072   4.133   2.536   2.295  0.0032  0.1894  0.1228
10886TIP3    H154073   4.067   2.539   2.364 -0.3560  2.1574 -0.2354
10886TIP3    H254074   4.083   2.535   2.214  0.3782  1.1699 -0.1435
10887TIP3   OH254075   6.357   4.685   5.518  0.0011 -0.0855 -0.3767
10887TIP3    H154076   6.307   4.604   5.515 -0.8564  0.4294 -0.3094
10887TIP3    H254077   6.361   4.713   5.426 -0.7293  0.4025 -0.2656
10888TIP3   OH254078   2.052   6.179  16.738 -0.5553 -0.4825 -0.0862
10888TIP3    H154079   2.023   6.125  16.811  0.6312 -2.4433 -1.0081
10888TIP3    H254080   1.971   6.216  16.703 -1.2323 -0.2905  1.5765
10889TIP3   OH254081   1.457   6.023  13.293  0.2092 -0.2843 -0.3381
10889TIP3    H154082   1.489   5.996  13.379  0.6850  2.0219  0.2767
10889TIP3    H254083   1.401   5.951  13.265 -0.1264 -1.0340  1.9871
10890TIP3   OH254084   4.190   1.596   0.442 -0.4739  0.0537 -0.2641
10890TIP3    H154085   4.247   1.520   0.455  0.2486  0.4052 -1.2717
10890TIP3    H254086   4.223   1.661   0.504 -1.2681 -0.5302  0.7957
10891TIP3   OH254087   0.997   4.453   2.908  0.2366  0.4902  0.1619
10891TIP3    H154088   1.013   4.427   2.817  0.7063  0.6679  0.1880
10891TIP3    H254089   1.002   4.372   2.958 -1.2094  0.2094 -0.1085
10892TIP3   OH254090   4.872   6.311   5.723  0.1891 -0.2684 -0.2805
10892TIP3    H154091   4.929   6.235   5.731  0.2573 -0.1334  0.6769
10892TIP3    H254092   4.917   6.369   5.662  2.4679  1.0065  2.3746
10893TIP3   OH254093   4.423   0.142   2.186  0.4254 -0.1611 -0.4852
10893TIP3    H154094   4.480   0.203   2.234 -1.0727 -0.0633  1.3205
10893TIP3    H254095   4.380   0.197   2.120 -0.5696  0.7066  0.8229
10894TIP3   OH254096   6.741   6.096  13.590  0.3104  0.5107 -0.5599
10894TIP3    H154097   6.664   6.045  13.570  1.1548 -1.1376  0.1949
10894TIP3    H254098   6.809   6.031  13.610  1.8980  1.8899 -1.1918
10895TIP3   OH254099   4.634   4.661  14.577 -0.0874  0.2613  0.0295
10895TIP3    H154100   4.644   4.716  14.500 -2.4742  0.5688 -0.1529
10895TIP3    H254101   4.570   4.707  14.631 -3.1814 -2.7642 -0.7015
10896TIP3   OH254102   3.705   2.727  12.172 -0.0178  0.4209  0.0852
10896TIP3    H154103   3.722   2.776  12.253 -1.4830 -0.2146  0.8302
10896TIP3    H254104   3.733   2.786  12.102  1.3193  0.9807  1.0428
10897TIP3   OH254105   1.291   3.687   1.721  0.5563  0.4926  0.1488
10897TIP3    H154106   1.344   3.644   1.788 -1.3623 -0.8045  0.9264
10897TIP3    H254107   1.280   3.620   1.653 -0.1325  0.6842  0.0568
10898TIP3   OH254108   5.349   0.055  14.102  0.2846  0.3291 -0.4152
10898TIP3    H154109   5.389   0.138  14.076  0.2793  0.5893  0.3742
10898TIP3    H254110   5.260   0.059  14.067 -0.0987  1.1746  0.5869
10899TIP3   OH254111   4.068   5.511   2.104  0.5713  0.4540 -0.0044
10899TIP3    H154112   4.132   5.454   2.147  2.2657  1.3706 -1.2199
10899TIP3    H254113   4.081   5.597   2.145 -1.0433  0.3189  0.8780
10900TIP3   OH254114   3.146   0.592  16.820 -0.3077  0.4702 -0.0274
10900TIP3    H154115   3.087   0.519  16.803 -0.5678 -0.1591  3.0880
10900TIP3    H254116   3.218   0.555  16.870  0.6164  1.9881 -0.1529
10901TIP3   OH254117   1.473   1.934   0.160  0.2660  0.6499 -0.1058
10901TIP3    H154118   1.531   1.863   0.132  0.0283 -0.2657  1.5597
10901TIP3    H254119   1.390   1.890   0.179 -0.2776  1.5835 -0.2632
10902TIP3   OH254120   5.503   0.763  14.827  0.4782  0.1902  0.0335
10902TIP3    H154121   5.582   0.714  14.803 -0.6512 -1.5596 -0.2886
10902TIP3    H254122   5.467   0.715  14.902 -0.7047  0.4638 -0.3423
10903TIP3   OH254123   4.766   0.812   5.452 -0.5288 -0.0243  0.5221
10903TIP3    H154124   4.683   0.769   5.430 -0.3932 -0.6409  1.1773
10903TIP3    H254125   4.832   0.742   5.444  0.2895  0.9302 -2.1045
10904TIP3   OH254126   6.113   5.267  13.334  0.1449  0.5061  0.2696
10904TIP3    H154127   6.054   5.300  13.266 -0.3580  0.3863  0.6392
10904TIP3    H254128   6.189   5.324  13.330  0.4657  0.0316 -0.9076
10905TIP3   OH254129   1.385   2.927   6.202  0.8579 -0.6643 -0.1642
10905TIP3    H154130   1.412   2.840   6.232 -1.0073 -1.0912  0.4242
10905TIP3    H254131   1.446   2.987   6.244  1.6618 -1.6374  0.0899
10906TIP3   OH254132   5.759   1.193  10.573 -0.4454  0.0814  0.1576
10906TIP3    H154133   5.714   1.228  10.650  1.6573 -0.2473  1.6141
10906TIP3    H254134   5.727   1.103  10.565 -0.8185  0.1804  0.5253
10907TIP3   OH254135   4.682   1.692   5.768 -0.2591  0.3855 -0.6480
10907TIP3    H154136   4.679   1.735   5.854  0.9689  2.9555 -1.7730
10907TIP3    H254137   4.593   1.660   5.754 -1.3309  2.7112  0.2714
10908TIP3   OH254138   1.386   1.062   0.682  0.1560 -0.1968  0.5874
10908TIP3    H154139   1.357   1.114   0.757  0.3107  1.4834 -0.4747
10908TIP3    H254140   1.388   1.124   0.609  2.5484 -1.1475 -0.2570
10909TIP3   OH254141   3.736   6.399  13.322 -0.3435  0.4764 -0.4092
10909TIP3    H154142   3.786   6.343  13.382  0.1277  1.8110  0.4807
10909TIP3    H254143   3.649   6.405  13.362 -0.1064  1.1546  0.0139
10910TIP3   OH254144   1.741   0.668  14.353 -0.4062 -0.1884  0.0906
10910TIP3    H154145   1.669   0.644  14.294  0.1943 -1.0455 -0.3088
10910TIP3    H254146   1.812   0.694  14.295 -0.5048  1.0478  0.4910
10911TIP3   OH254147   3.090   3.901  11.963 -0.4145 -0.3894  0.3820
10911TIP3    H154148   3.059   3.956  11.891  3.1303  1.4557  0.0902
10911TIP3    H254149   3.067   3.949  12.042  0.0757  0.0669  0.2499
10912TIP3   OH254150   2.847   4.425   5.103 -0.0200 -0.2466  0.2922
10912TIP3    H154151   2.942   4.429   5.108  0.0386  0.7450 -1.1139
10912TIP3    H254152   2.829   4.350   5.046  0.0580  1.0446 -1.5423
10913TIP3   OH254153   6.032   2.888   1.447  0.3214  0.3194 -0.1325
10913TIP3    H154154   5.987   2.819   1.397 -0.3107 -1.6750  2.9154
10913TIP3    H254155   6.110   2.845   1.482 -0.2278  0.9849  2.0745
10914TIP3   OH254156   1.414   3.841   3.742  0.0766  0.2677  0.3810
10914TIP3    H154157   1.392   3.782   3.814  0.3369 -0.1874  0.0927
10914TIP3    H254158   1.330   3.858   3.698 -0.1294  0.7713  0.9491
10915TIP3   OH254159   2.370   0.238   3.819  0.6288 -0.5139 -0.1850
10915TIP3    H154160   2.390   0.325   3.853 -3.1811  0.2851  0.4241
10915TIP3    H254161   2.410   0.236   3.732  1.1395  1.6698 -0.0512
10916TIP3   OH254162   3.689   6.020   5.736 -0.0750 -0.0169  0.3255
10916TIP3    H154163   3.603   6.061   5.744 -0.4050 -0.7013  0.3352
10916TIP3    H254164   3.672   5.936   5.693  0.8304  0.6806 -1.4917
10917TIP3   OH254165   5.455   6.404  13.629  0.2579  0.2386  0.9205
10917TIP3    H154166   5.411   6.489  13.634  0.8572  0.5609  0.7612
10917TIP3    H254167   5.414   6.352  13.697 -0.9728  0.2562  0.2238
10918TIP3   OH254168   3.105   1.644   2.967 -0.3085 -0.2681 -0.2403
10918TIP3    H154169   3.081   1.652   3.059 -2.7501  2.1697 -0.9564
10918TIP3    H254170   3.091   1.551   2.947  0.1960 -0.8220  1.7916
10919TIP3   OH254171   6.219   6.036  16.309 -0.0002 -0.3587  0.4359
10919TIP3    H154172   6.128   6.006  16.313 -0.8671  2.1865  1.5321
10919TIP3    H254173   6.248   6.037  16.400  0.3935  0.8903  0.3141
10920TIP3   OH254174   0.921   2.297   0.954 -0.1373 -0.7596 -0.0071
10920TIP3    H154175   0.899   2.283   0.862 -0.1639  0.9367 -0.3062
10920TIP3    H254176   0.917   2.392   0.965 -1.0945 -0.9685  1.9902
10921TIP3   OH254177   1.467   2.693  16.617  0.0126  0.5587 -0.1406
10921TIP3    H154178   1.488   2.783  16.642  3.4025  0.3881 -1.7256
10921TIP3    H254179   1.551   2.646  16.625 -1.5559 -2.4186  0.3320
10922TIP3   OH254180   6.439   6.626  13.390 -0.5234 -0.2106 -0.4800
10922TIP3    H154181   6.374   6.558  13.371 -0.1303 -0.3034 -1.5990
10922TIP3    H254182   6.436   6.637  13.485 -1.5313 -0.8520 -0.4219
10923TIP3   OH254183   5.996   0.316  13.363 -0.2116  0.3340 -0.9110
10923TIP3    H154184   5.967   0.304  13.273  1.1872 -0.2314 -1.3090
10923TIP3    H254185   5.988   0.411  13.378 -1.6860  0.2798 -1.1575
10924TIP3   OH254186   1.403   6.469  12.954  0.1272 -0.0558 -0.2215
10924TIP3    H154187   1.337   6.437  13.016 -0.3170  1.2523  0.0226
10924TIP3    H254188   1.487   6.452  12.996 -0.1922  1.7899  1.2776
10925TIP3   OH254189   1.794   5.174  15.604 -0.2483  0.3541 -0.3555
10925TIP3    H154190   1.727   5.218  15.553  0.8812  0.2266 -2.0442
10925TIP3    H254191   1.747   5.106  15.652 -1.5983  1.6139  0.1594
10926TIP3   OH254192   2.414   2.951   4.443 -0.3528 -0.0222 -0.5795
10926TIP3    H154193   2.457   2.875   4.404 -0.9161 -0.3064 -0.6583
10926TIP3    H254194   2.366   2.915   4.518  2.1202  0.7507  1.5259
10927TIP3   OH254195   3.311   5.591  14.682  0.5167 -0.0706 -0.6080
10927TIP3    H154196   3.276   5.678  14.662 -0.0688 -0.6330 -2.2274
10927TIP3    H254197   3.289   5.576  14.774  0.2175  1.2899 -0.4372
10928TIP3   OH254198   2.492   3.071   3.818 -0.0812  0.0818  0.2331
10928TIP3    H154199   2.437   3.089   3.894 -0.0265  2.1445 -0.1627
10928TIP3    H254200   2.431   3.043   3.750 -0.6300  1.9487 -0.0784
10929TIP3   OH254201   0.477   3.042  15.037 -0.4273  0.2141  1.1188
10929TIP3    H154202   0.464   2.983  15.111  0.7465 -1.2200  0.2170
10929TIP3    H254203   0.571   3.057  15.034 -0.5717  1.0894  0.5127
10930TIP3   OH254204   2.907   5.861   0.435  0.4207  0.1760  0.3250
10930TIP3    H154205   2.960   5.795   0.390 -0.0182 -0.3656  0.5857
10930TIP3    H254206   2.952   5.944   0.418  0.2600 -0.0090 -1.1221
10931TIP3   OH254207   4.731   3.637  14.603  0.0674  0.1420 -0.3980
10931TIP3    H154208   4.758   3.560  14.553  0.0052 -0.2590  0.1700
10931TIP3    H254209   4.792   3.706  14.576  1.5191 -0.6660  0.6386
10932TIP3   OH254210   3.270   2.289   2.329 -0.1425  0.1626  0.2752
10932TIP3    H154211   3.329   2.314   2.258  0.0986  1.0817  0.7889
10932TIP3    H254212   3.255   2.370   2.379  0.8427 -0.7311  2.1272
10933TIP3   OH254213   5.882   0.835  11.727  0.1740 -0.8325 -0.2341
10933TIP3    H154214   5.944   0.845  11.799  0.8656  0.1207 -0.9487
10933TIP3    H254215   5.814   0.900  11.745  0.7340 -0.0707 -0.8273
10934TIP3   OH254216   1.304   5.090  14.956  0.5068  0.4603 -0.3599
10934TIP3    H154217   1.350   5.116  14.877 -1.2368  2.0231 -0.9606
10934TIP3    H254218   1.244   5.163  14.974  0.7766  0.1336  2.3672
10935TIP3   OH254219   0.141   0.746   4.352  0.4609  0.9320 -0.4369
10935TIP3    H154220   0.114   0.837   4.359 -0.4231  0.6637 -0.1918
10935TIP3    H254221   0.154   0.718   4.443  2.3860  1.2784 -0.5816
10936TIP3   OH254222   5.222   4.970  12.147  0.0635 -0.3800 -0.1982
10936TIP3    H154223   5.217   4.874  12.144 -0.8780 -0.3136 -1.8484
10936TIP3    H254224   5.301   4.991  12.097  0.5215 -0.2934  0.5469
10937TIP3   OH254225   5.383   2.570   4.494  0.0120 -0.3674 -0.7138
10937TIP3    H154226   5.308   2.545   4.440 -0.9700 -0.3078  0.5880
10937TIP3    H254227   5.384   2.666   4.490 -1.1165 -0.2646  0.7084
10938TIP3   OH254228   6.284   1.441  11.332 -0.0390 -0.4214 -0.5109
10938TIP3    H154229   6.215   1.488  11.379  0.6128 -0.0628  0.1090
10938TIP3    H254230   6.327   1.389  11.400  0.0519 -0.9355 -0.9662
10939TIP3   OH254231   0.454   3.597   4.805 -0.2096 -0.0634  0.2699
10939TIP3    H154232   0.438   3.663   4.873  0.9282  0.6945 -0.1623
10939TIP3    H254233   0.461   3.647   4.724  0.6272 -0.7155 -0.0724
10940TIP3   OH254234   3.652   5.897   1.973 -0.3944  0.6995  0.1989
10940TIP3    H154235   3.653   5.805   1.947 -0.8668  0.4263  1.1002
10940TIP3    H254236   3.570   5.907   2.022  0.4958  1.1531  1.6582
10941TIP3   OH254237   0.803   3.264  10.889  0.6406  0.1508  0.3988
10941TIP3    H154238   0.888   3.294  10.921  0.9112 -0.3625  0.1668
10941TIP3    H254239   0.819   3.238  10.799 -0.3942  2.8573 -0.6603
10942TIP3   OH254240   0.999   2.279   4.208 -0.3937  0.0461 -0.1979
10942TIP3    H154241   0.979   2.246   4.296  0.4947  0.0026 -0.0086
10942TIP3    H254242   1.069   2.342   4.222  1.0140 -1.2688 -1.0687
10943TIP3   OH254243   2.177   3.155  13.462  0.5708  0.0919  0.2439
10943TIP3    H154244   2.211   3.187  13.378  0.0190 -0.8344 -0.3560
10943TIP3    H254245   2.199   3.062  13.462 -0.8222 -0.2629  0.4013
10944TIP3   OH254246   1.458   3.957  15.492  0.4932  0.1966 -0.0987
10944TIP3    H154247   1.383   3.953  15.550  1.6259 -1.8740  1.3595
10944TIP3    H254248   1.434   3.901  15.417 -0.1598  1.1690 -0.6291
10945TIP3   OH254249   6.688   6.265   5.463 -0.0668  0.4946 -0.0877
10945TIP3    H154250   6.694   6.170   5.457  1.1943  0.6171 -1.5736
10945TIP3    H254251   6.718   6.286   5.551  0.1828 -0.4611  0.0625
10946TIP3   OH254252   0.377   0.717   3.231 -0.0979 -0.6795  0.2257
10946TIP3    H154253   0.428   0.647   3.189  2.0887  0.5769  0.6508
10946TIP3    H254254   0.309   0.671   3.279 -0.4349 -2.3631 -1.6954
10947TIP3   OH254255   6.161   5.966   5.530 -0.3405 -0.0950  0.0542
10947TIP3    H154256   6.136   5.990   5.619  1.4367  0.9052  0.3301
10947TIP3    H254257   6.084   5.921   5.495 -2.8705  3.4138  0.5168
10948TIP3   OH254258   6.562   0.733  11.212  0.4135  0.4249 -0.0560
10948TIP3    H154259   6.633   0.670  11.202 -0.5263 -0.4612 -1.6091
10948TIP3    H254260   6.508   0.721  11.133 -1.6912  0.7705  1.2461
10949TIP3   OH254261   0.261   4.737  12.175  0.0199  0.0384  0.1276
10949TIP3    H154262   0.330   4.780  12.226  0.5741 -0.4966 -0.1624
10949TIP3    H254263   0.186   4.733  12.234  0.6944 -0.6861  0.9567
10950TIP3   OH254264   1.605   3.998  13.211 -0.0273 -0.0849  0.3104
10950TIP3    H154265   1.700   4.009  13.206  0.0495  0.3716  2.0456
10950TIP3    H254266   1.570   4.086  13.194 -0.0371  0.1061  1.2392
10951TIP3   OH254267   6.392   1.475  14.545 -0.1479 -0.0132  0.4677
10951TIP3    H154268   6.415   1.447  14.633  1.6247 -2.9971 -0.8092
10951TIP3    H254269   6.475   1.501  14.505 -0.9818  1.7246 -0.2521
10952TIP3   OH254270   4.439   2.339   2.984  0.7215  0.0058  0.0659
10952TIP3    H154271   4.534   2.344   2.984  0.7200  0.2048 -0.9280
10952TIP3    H254272   4.414   2.352   2.893 -0.2566 -0.1107  0.3035
10953TIP3   OH254273   4.715   1.996   5.541 -0.3489  0.1748 -0.2865
10953TIP3    H154274   4.774   2.020   5.612 -1.2168 -0.6871  0.7469
10953TIP3    H254275   4.640   1.955   5.584 -1.0341 -0.0968 -1.6779
10954TIP3   OH254276   2.982   4.485   5.706  0.4531  0.3033 -0.6987
10954TIP3    H154277   2.925   4.491   5.782 -1.0207 -0.5680 -1.6745
10954TIP3    H254278   2.930   4.520   5.633  1.3162 -0.1276 -1.5594
10955TIP3   OH254279   3.792   0.374   1.015  0.2187  0.6699  0.4095
10955TIP3    H154280   3.824   0.303   0.959 -0.2958 -0.2315  1.2208
10955TIP3    H254281   3.778   0.332   1.101  1.2740  2.0707  1.3057
10956TIP3   OH254282   3.657   6.260   5.926  0.0294  0.0238 -0.1509
10956TIP3    H154283   3.596   6.282   5.997 -0.3516  0.0495 -0.4857
10956TIP3    H254284   3.618   6.185   5.883 -0.0342  0.3613 -0.6930
10957TIP3   OH254285   2.027   3.093   0.237  0.2826 -0.0922 -0.6066
10957TIP3    H154286   2.068   3.176   0.263  0.4641 -0.1580 -0.6804
10957TIP3    H254287   2.025   3.041   0.317 -0.3336  0.1896 -0.4353
10958TIP3   OH254288   2.936   5.924   1.088 -0.5503 -0.7710 -0.5686
10958TIP3    H154289   3.023   5.911   1.127 -0.9742 -1.2975  0.2153
10958TIP3    H254290   2.907   6.009   1.121  0.2878  0.1317 -2.0431
10959TIP3   OH254291   5.083   5.182   1.052 -0.2640 -0.0720 -0.1619
10959TIP3    H154292   4.991   5.173   1.029  0.4405 -0.4579 -3.3984
10959TIP3    H254293   5.100   5.110   1.112 -2.0264 -0.0872  0.3633
10960TIP3   OH254294   3.733   5.552   2.907  0.2335  0.2756 -0.2591
10960TIP3    H154295   3.808   5.494   2.895 -0.6404 -0.7285 -1.0835
10960TIP3    H254296   3.703   5.534   2.996 -0.2147 -0.7972 -0.6078
10961TIP3   OH254297   0.761   2.777  10.856 -0.6451 -0.0113 -0.4228
10961TIP3    H154298   0.756   2.683  10.840  2.0114 -0.0959 -1.2677
10961TIP3    H254299   0.795   2.785  10.945 -0.0563  0.1381 -0.6621
10962TIP3   OH254300   0.310   1.794   2.788 -0.1820 -0.3559  0.2705
10962TIP3    H154301   0.251   1.759   2.854 -0.8358  0.8729  0.3679
10962TIP3    H254302   0.394   1.751   2.805 -0.4838 -0.4660  1.5358
10963TIP3   OH254303   1.176   4.642  17.241 -0.1117  0.4576 -0.2019
10963TIP3    H154304   1.250   4.703  17.238  0.7419 -0.5868 -2.2155
10963TIP3    H254305   1.213   4.562  17.278 -1.0373  0.8497  1.6890
10964TIP3   OH254306   5.103   4.475  16.831 -0.3090  0.8663  0.3025
10964TIP3    H154307   5.196   4.452  16.826 -0.8255 -1.4796  0.2224
10964TIP3    H254308   5.073   4.474  16.740 -1.0717 -1.8161  0.4825
10965TIP3   OH254309   3.165   2.663  14.523 -0.0702  0.1636 -0.5586
10965TIP3    H154310   3.111   2.696  14.595 -1.1265 -0.3307 -1.0884
10965TIP3    H254311   3.250   2.704  14.535 -0.6045  1.0736  0.2369
10966TIP3   OH254312   0.672   3.969  12.457 -0.0337  0.3139  0.1711
10966TIP3    H154313   0.642   4.005  12.373 -0.3504 -1.0411 -0.3261
10966TIP3    H254314   0.633   3.882  12.461  0.2657  0.2207  1.5785
10967TIP3   OH254315   3.972   2.915   4.026  0.2301 -0.2207  0.1320
10967TIP3    H154316   3.933   2.979   3.966  0.7978  1.5988  1.6168
10967TIP3    H254317   4.048   2.881   3.978 -0.0609  0.2331 -0.6713
10968TIP3   OH254318   1.895   5.799  10.307 -0.5777 -0.7200  0.3749
10968TIP3    H154319   1.968   5.841  10.352 -0.0157 -1.2894  0.0010
10968TIP3    H254320   1.838   5.769  10.378 -1.7180  1.8614  0.6598
10969TIP3   OH254321   2.814   3.640   2.964 -0.2398 -0.1940 -0.1746
10969TIP3    H154322   2.724   3.606   2.955 -0.6270  0.3480  1.3711
10969TIP3    H254323   2.857   3.580   3.024  1.1983 -1.7627 -2.6042
10970TIP3   OH254324   2.055   0.746   2.150 -0.2272  0.0945 -0.1052
10970TIP3    H154325   2.009   0.786   2.224  0.2607 -2.3535  1.6706
10970TIP3    H254326   2.064   0.816   2.086 -1.1315  2.2113  1.9430
10971TIP3   OH254327   3.941   0.663  10.715  0.2357 -0.0960 -0.2725
10971TIP3    H154328   4.015   0.603  10.703 -0.2053 -0.4255 -1.5033
10971TIP3    H254329   3.867   0.607  10.738  0.7363  0.3947  3.1160
10972TIP3   OH254330   3.041   6.062   5.999  0.7750  0.1034  0.2537
10972TIP3    H154331   2.978   5.990   5.990  1.9884 -0.7570 -2.5413
10972TIP3    H254332   2.995   6.138   5.966  0.6561 -0.1903 -0.2727
10973TIP3   OH254333   3.578   2.205  16.988 -0.1144  0.2462 -0.7494
10973TIP3    H154334   3.667   2.206  16.953  1.1158 -1.7762  1.9413
10973TIP3    H254335   3.544   2.119  16.962 -0.7684  0.4557 -0.5910
10974TIP3   OH254336   4.412   1.158   5.083 -0.1728  0.1220  0.0450
10974TIP3    H154337   4.499   1.197   5.097 -0.3454  0.1248  1.1733
10974TIP3    H254338   4.357   1.231   5.055 -0.4270  0.6704  1.8795
10975TIP3   OH254339   0.373   5.939   4.901  0.3491 -0.9041 -0.2157
10975TIP3    H154340   0.351   6.015   4.848 -2.2658 -1.5572 -0.1934
10975TIP3    H254341   0.451   5.903   4.860  0.4633  0.6267 -1.4351
10976TIP3   OH254342   3.483   2.636   4.863 -0.1203 -0.9238  0.0690
10976TIP3    H154343   3.532   2.558   4.837  0.1644 -0.9445  0.6642
10976TIP3    H254344   3.450   2.617   4.950  0.4900 -0.1480  0.4948
10977TIP3   OH254345   5.245   2.152   4.281 -0.0689  0.1123 -0.5109
10977TIP3    H154346   5.302   2.078   4.260 -1.1465 -1.0272  0.4017
10977TIP3    H254347   5.168   2.140   4.225  0.3582  1.3913 -1.4240
10978TIP3   OH254348   0.328   4.793  15.911  0.5015  0.0858  0.2117
10978TIP3    H154349   0.286   4.751  15.986  1.8430 -0.0193  0.9396
10978TIP3    H254350   0.371   4.870  15.948  0.1050  0.7550 -0.6854
10979TIP3   OH254351   0.667   6.128  16.630 -0.5075  0.5777 -0.2107
10979TIP3    H154352   0.590   6.073  16.645  1.1144 -2.6299 -2.4291
10979TIP3    H254353   0.711   6.131  16.714 -1.3662 -0.3145  0.2912
10980TIP3   OH254354   3.057   0.719  14.893 -0.3597 -0.5360 -0.2421
10980TIP3    H154355   3.107   0.791  14.933  1.4590 -1.5207 -0.6496
10980TIP3    H254356   3.044   0.656  14.963 -1.7766  0.0440  0.0600
10981TIP3   OH254357   1.522   0.826   0.196  0.4847  0.0706 -0.1807
10981TIP3    H154358   1.542   0.860   0.283 -0.9809 -0.2390  0.2919
10981TIP3    H254359   1.475   0.898   0.152  1.1456  0.1977 -0.6996
10982TIP3   OH254360   1.363   1.470  14.723  0.0465  0.0863 -0.3065
10982TIP3    H154361   1.344   1.383  14.687  1.4557  0.1297 -1.2290
10982TIP3    H254362   1.280   1.518  14.715 -0.4688 -0.8482 -0.7340
10983TIP3   OH254363   1.895   6.300  14.861 -0.0800 -0.5654  0.1805
10983TIP3    H154364   1.990   6.291  14.869  0.0080  0.0111 -0.1835
10983TIP3    H254365   1.864   6.312  14.950  0.4774  1.9310  0.1059
10984TIP3   OH254366   3.820   5.879  17.243  0.3074 -0.7118 -0.1169
10984TIP3    H154367   3.797   5.846  17.156 -0.2705 -0.4160 -0.0820
10984TIP3    H254368   3.914   5.896  17.239 -0.2403  2.7246 -1.8411
10985TIP3   OH254369   6.651   3.491  11.052 -0.0403 -0.1445 -0.6182
10985TIP3    H154370   6.583   3.488  11.119 -0.8165  0.8152 -1.3280
10985TIP3    H254371   6.732   3.503  11.100 -0.6919  1.5540  0.1217
10986TIP3   OH254372   0.559   5.164   0.090 -0.2984  0.0894 -0.6416
10986TIP3    H154373   0.502   5.239   0.073  0.0495  1.2250  2.5616
10986TIP3    H254374   0.646   5.193   0.061  0.0967  1.5542  1.7759
10987TIP3   OH254375   4.489   0.539   6.367  0.4069  0.0505  0.2148
10987TIP3    H154376   4.467   0.631   6.356  1.5395  0.2005 -1.1415
10987TIP3    H254377   4.466   0.519   6.458 -0.9143  1.3431  0.2012
10988TIP3   OH254378   1.691   4.480   1.589  0.0758 -0.1966  0.3263
10988TIP3    H154379   1.627   4.410   1.601 -2.6770  1.8302 -1.1428
10988TIP3    H254380   1.749   4.448   1.520 -0.7479 -1.2548  0.1001
10989TIP3   OH254381   3.681   4.232  13.167  0.1653 -0.3458  0.0958
10989TIP3    H154382   3.604   4.187  13.200 -0.3762  0.2538 -0.3306
10989TIP3    H254383   3.715   4.176  13.098 -1.3810  0.5771 -1.4805
10990TIP3   OH254384   5.086   1.258   5.056  0.0155 -0.0323 -0.4196
10990TIP3    H154385   5.171   1.262   5.012 -0.3790 -0.3351 -1.2229
10990TIP3    H254386   5.046   1.177   5.024 -0.0121 -0.6360  1.0185
10991TIP3   OH254387   5.187   1.193   0.317 -0.1008 -0.1230 -0.1818
10991TIP3    H154388   5.122   1.131   0.349  0.0141 -1.0221 -1.5821
10991TIP3    H254389   5.224   1.151   0.239 -0.7291  2.1086 -1.7859
10992TIP3   OH254390   0.486   6.311  12.980 -0.6563 -0.4152 -0.0277
10992TIP3    H154391   0.578   6.305  12.956 -1.0683 -1.1637 -1.6341
10992TIP3    H254392   0.466   6.225  13.018 -1.1241 -1.0068 -1.5320
10993TIP3   OH254393   0.336   3.511  14.709  0.3053  0.2984  0.9114
10993TIP3    H154394   0.357   3.459  14.631 -0.8886  0.3634  0.5234
10993TIP3    H254395   0.318   3.447  14.777 -1.0237  0.1598  0.4709
10994TIP3   OH254396   3.459   4.498  12.578  0.2513  0.5525 -0.2286
10994TIP3    H154397   3.513   4.488  12.500 -0.4906  1.0198 -0.8212
10994TIP3    H254398   3.383   4.550  12.548 -0.7287 -0.4320  0.4708
10995TIP3   OH254399   6.747   1.757  13.141 -0.1971 -0.4554 -0.1007
10995TIP3    H154400   6.838   1.776  13.166 -0.2219 -1.8680  1.1822
10995TIP3    H254401   6.694   1.796  13.211 -0.6460  0.7568 -1.0697
10996TIP3   OH254402   0.403   0.137  13.533 -0.0957 -0.5531 -0.0064
10996TIP3    H154403   0.434   0.217  13.491 -0.7298 -0.3913 -0.1796
10996TIP3    H254404   0.316   0.123  13.495  1.2491 -3.1595 -2.5236
10997TIP3   OH254405   1.952   5.557   2.977 -0.0024 -0.3820 -0.2006
10997TIP3    H154406   1.867   5.538   2.937 -0.3845  1.5736 -0.4097
10997TIP3    H254407   2.010   5.572   2.903  0.1814 -0.3496 -0.0508
10998TIP3   OH254408   1.505   1.710   4.815  0.4321  0.5948  0.0780
10998TIP3    H154409   1.510   1.646   4.886 -1.5587 -0.5888 -0.7733
10998TIP3    H254410   1.530   1.792   4.856 -1.8941  0.2195  2.5538
10999TIP3   OH254411   1.906   2.287   5.982  0.9596 -0.3094 -0.1434
10999TIP3    H154412   1.922   2.265   5.890  0.2064 -0.9140 -0.1315
10999TIP3    H254413   1.954   2.369   5.995  0.2639  0.3090 -1.3424
11000TIP3   OH254414   5.527   0.955   2.112 -0.3808  0.0109 -0.0936
11000TIP3    H154415   5.559   0.943   2.022  0.1646  1.1701 -0.0745
11000TIP3    H254416   5.596   1.006   2.155 -1.0714  0.2843  0.7131
11001TIP3   OH254417   2.174   3.104  15.693 -0.2571  0.3965  0.6273
11001TIP3    H154418   2.232   3.137  15.625  0.7850 -2.1233  0.1956
11001TIP3    H254419   2.205   3.146  15.773  0.5106  1.0115  0.0204
11002TIP3   OH254420   1.659   2.023  12.619  0.2078  0.6811 -0.1725
11002TIP3    H154421   1.731   1.967  12.592 -0.1088 -0.4867  1.3115
11002TIP3    H254422   1.662   2.097  12.558  1.9034  0.0699 -0.8769
11003TIP3   OH254423   4.588   5.603   6.348  0.1112  0.3652 -0.5824
11003TIP3    H154424   4.498   5.584   6.375  0.5967 -0.9872  0.2032
11003TIP3    H254425   4.608   5.688   6.387 -0.1631 -0.2532  0.9832
11004TIP3   OH254426   6.159   3.110   1.789 -0.5712 -0.1397  0.0856
11004TIP3    H154427   6.125   3.196   1.815 -1.6215 -0.8040  0.9531
11004TIP3    H254428   6.147   3.055   1.866  0.1503 -1.0671 -0.4480
11005TIP3   OH254429   4.436   1.589  14.970 -0.3157  0.2222 -0.1082
11005TIP3    H154430   4.420   1.683  14.981 -2.8102 -0.1072 -0.4257
11005TIP3    H254431   4.370   1.547  15.025 -0.9411 -1.3287 -1.9385
11006TIP3   OH254432   5.555   3.362  11.210  0.1790 -0.3535  0.0862
11006TIP3    H154433   5.513   3.338  11.127 -0.7534 -0.4126  0.5662
11006TIP3    H254434   5.546   3.285  11.265  2.5363 -1.0436 -0.3669
11007TIP3   OH254435   1.378   5.100   4.848 -0.5182 -0.7643  0.1536
11007TIP3    H154436   1.412   5.071   4.763 -0.5811 -0.0408 -0.1236
11007TIP3    H254437   1.283   5.101   4.836 -0.4612  2.6334 -0.9142
11008TIP3   OH254438   4.501   4.328   4.211 -0.2680  0.3709 -0.2739
11008TIP3    H154439   4.491   4.424   4.214  0.7779  0.4737  0.7202
11008TIP3    H254440   4.413   4.294   4.226 -0.5022  1.1781  0.2221
11009TIP3   OH254441   0.444   0.658   1.485 -1.0606 -0.0149 -0.0800
11009TIP3    H154442   0.522   0.663   1.430 -0.0118  0.8198  1.4021
11009TIP3    H254443   0.403   0.744   1.477 -1.3688 -0.1738 -0.2100
11010TIP3   OH254444   0.632   6.661  14.617  0.8052  0.2186 -0.1370
11010TIP3    H154445   0.668   6.742  14.654  0.0813  1.3344 -1.7590
11010TIP3    H254446   0.578   6.690  14.544 -0.7038 -1.6419  0.1605
11011TIP3   OH254447   3.096   3.686  13.009  0.2210 -0.1353  1.1769
11011TIP3    H154448   3.071   3.642  13.090  0.0827  0.5094  1.4918
11011TIP3    H254449   3.098   3.779  13.032 -1.5366  0.2426  0.0115
11012TIP3   OH254450   5.212   1.484   1.786  0.4619  0.1511 -0.2285
11012TIP3    H154451   5.221   1.398   1.746  0.9131  0.6581 -1.2685
11012TIP3    H254452   5.246   1.545   1.720 -0.5274  1.1962  0.1791
11013TIP3   OH254453   4.098   3.274   2.546  0.0857 -0.3656 -0.2600
11013TIP3    H154454   4.074   3.191   2.586 -2.9345  0.9128  0.8744
11013TIP3    H254455   4.126   3.329   2.619  1.9310 -0.2872 -0.9784
11014TIP3   OH254456   1.246   5.548  15.617 -0.5062 -0.3543 -0.0085
11014TIP3    H154457   1.291   5.540  15.532 -0.9660  0.5863 -0.3552
11014TIP3    H254458   1.250   5.460  15.654  0.2804 -0.6351 -0.7121
11015TIP3   OH254459   0.633   1.978   5.577 -0.3347 -0.3524  0.2687
11015TIP3    H154460   0.690   1.914   5.620 -1.1472  0.2450  2.3458
11015TIP3    H254461   0.544   1.946   5.594 -0.6960 -0.8512 -2.2572
11016TIP3   OH254462   6.343   3.777  13.820 -0.2198  0.8264  0.1531
11016TIP3    H154463   6.416   3.716  13.830 -1.7646 -1.1469  0.0295
11016TIP3    H254464   6.355   3.841  13.890  0.9564 -0.1448  0.8729
11017TIP3   OH254465   2.607   1.122   1.937  0.2475 -0.2374 -0.2296
11017TIP3    H154466   2.593   1.134   1.843  1.4186 -0.9444 -0.5187
11017TIP3    H254467   2.641   1.032   1.945 -1.7302 -0.9369  1.0980
11018TIP3   OH254468   5.448   3.518   3.819 -0.1355  0.1976 -0.7660
11018TIP3    H154469   5.372   3.575   3.834 -0.3154 -0.4287  1.0185
11018TIP3    H254470   5.522   3.577   3.813 -0.6577  0.7745 -1.8033
11019TIP3   OH254471   5.878   4.239  14.356  0.4691 -0.3743  0.1016
11019TIP3    H154472   5.939   4.175  14.319  0.9684  0.7009 -1.0175
11019TIP3    H254473   5.913   4.324  14.327 -0.9515  0.3183  0.3702
11020TIP3   OH254474   5.000   6.111   3.702  0.2684 -0.0737  0.1745
11020TIP3    H154475   4.974   6.023   3.728  0.6186 -0.1444  0.2952
11020TIP3    H254476   5.052   6.098   3.623 -0.4501  0.1059 -0.3335
11021TIP3   OH254477   0.103   2.742   0.005  0.6403 -0.0004 -0.1127
11021TIP3    H154478   0.081   2.809  -0.060 -2.1904  0.8962  1.5926
11021TIP3    H254479   0.050   2.666  -0.020  2.0303 -0.8261 -0.6631
11022TIP3   OH254480   0.923   5.786   0.928 -0.0160  0.2893 -0.6468
11022TIP3    H154481   0.975   5.708   0.948  0.1585  0.1746 -1.5119
11022TIP3    H254482   0.844   5.751   0.886 -1.2231  0.3953  1.4141
11023TIP3   OH254483   3.295   2.069  14.147 -0.4545 -0.3765  0.0023
11023TIP3    H154484   3.368   2.123  14.178 -1.9292  1.0789  1.1156
11023TIP3    H254485   3.265   2.114  14.068 -0.2343 -0.9048 -0.3851
11024TIP3   OH254486   5.522   4.394   2.957 -0.2614  0.1924 -0.0626
11024TIP3    H154487   5.464   4.410   3.031  0.6893  0.6656  0.6040
11024TIP3    H254488   5.584   4.329   2.989 -0.6422 -0.6046 -0.8954
11025TIP3   OH254489   2.788   3.373  14.599  0.7277 -0.3647 -0.0161
11025TIP3    H154490   2.846   3.300  14.579  0.3977 -1.3223  2.2199
11025TIP3    H254491   2.700   3.338  14.584  0.6048  0.0243 -0.2182
11026TIP3   OH254492   4.699   4.283   6.272 -0.2471  0.1856  0.1576
11026TIP3    H154493   4.672   4.372   6.298  0.3570 -0.1182  1.9904
11026TIP3    H254494   4.646   4.264   6.195  0.1850  2.4462 -0.7793
11027TIP3   OH254495   3.080   3.930  13.494  0.0692  0.0337  0.8817
11027TIP3    H154496   3.170   3.899  13.482  0.1263  0.9684 -1.5055
11027TIP3    H254497   3.081   3.974  13.579  2.0935  0.7552  0.5301
11028TIP3   OH254498   1.868   0.656  10.828 -0.1366  0.0986  0.2059
11028TIP3    H154499   1.862   0.749  10.848  2.2801  1.0374 -2.6364
11028TIP3    H254500   1.950   0.628  10.867  0.3694 -0.1558 -0.9908
11029TIP3   OH254501   3.763   2.891  11.942 -0.0720  0.1116  0.0743
11029TIP3    H154502   3.741   2.917  11.853 -1.0903  1.0879  0.5821
11029TIP3    H254503   3.858   2.880  11.941 -0.2534 -2.0912 -1.6607
11030TIP3   OH254504   5.372   3.848  13.472 -0.7416 -0.4841 -0.0629
11030TIP3    H154505   5.450   3.879  13.427  0.3552 -3.7183 -0.6880
11030TIP3    H254506   5.371   3.896  13.555  2.0079 -0.4172  0.0126
11031TIP3   OH254507   1.198   3.558  11.861 -0.3256 -0.1667 -0.0837
11031TIP3    H154508   1.200   3.644  11.820 -0.3210  0.5947  1.4242
11031TIP3    H254509   1.286   3.522  11.845  0.3405  0.9370  0.8748
11032TIP3   OH254510   2.829   2.616   0.182 -0.0714  0.0942 -0.3486
11032TIP3    H154511   2.809   2.635   0.273 -0.5010  0.0163 -0.4254
11032TIP3    H254512   2.781   2.682   0.132  0.4385  0.3554 -0.5076
11033TIP3   OH254513   0.076   5.902   2.321 -0.5306  0.3124 -0.8465
11033TIP3    H154514   0.025   5.821   2.325  3.2603 -2.3650 -1.7156
11033TIP3    H254515   0.094   5.924   2.412  1.1688 -1.9026 -0.5576
11034TIP3   OH254516   2.163   2.842  16.618 -0.0075 -0.2352  0.1399
11034TIP3    H154517   2.236   2.790  16.585  0.7989  0.1504  1.2375
11034TIP3    H254518   2.099   2.842  16.547  1.7370  0.7926 -1.5368
11035TIP3   OH254519   4.668   3.381   5.741 -0.1424  0.0849  0.9306
11035TIP3    H154520   4.596   3.443   5.757  0.8230  1.2997  0.7393
11035TIP3    H254521   4.642   3.302   5.788 -2.4939 -0.1887 -0.6615
11036TIP3   OH254522   5.936   5.209   6.613 -0.0556  0.3703 -1.0741
11036TIP3    H154523   5.911   5.146   6.546 -0.9947  0.5194 -0.8913
11036TIP3    H254524   5.907   5.168   6.695 -1.3033  1.2965 -1.0102
11037TIP3   OH254525   5.152   5.657  15.826 -0.2929  0.2592 -0.5678
11037TIP3    H154526   5.196   5.687  15.905 -0.1658 -0.7861 -0.2241
11037TIP3    H254527   5.145   5.735  15.771  0.4293  0.8060  0.0946
11038TIP3   OH254528   2.543   3.798  16.862 -0.4139  0.1269  0.0879
11038TIP3    H154529   2.496   3.871  16.901  2.6462  1.0747  2.4899
11038TIP3    H254530   2.564   3.741  16.936  3.1320  0.4413 -0.4862
11039TIP3   OH254531   5.026   2.154  12.939  0.4964 -0.3014 -0.4394
11039TIP3    H154532   4.940   2.139  12.900  1.1665 -1.6661 -1.5202
11039TIP3    H254533   5.034   2.249  12.946 -0.7287 -0.1288 -1.1827
11040TIP3   OH254534   1.732   1.888  14.174 -0.4586 -0.0761 -0.5736
11040TIP3    H154535   1.807   1.831  14.191 -1.0434 -1.0231 -1.0612
11040TIP3    H254536   1.767   1.960  14.121  0.0792 -0.5944 -0.9349
11041TIP3   OH254537   5.313   3.683  17.202  0.1981  0.4312 -0.2828
11041TIP3    H154538   5.240   3.622  17.195  0.8452 -0.4051  0.0369
11041TIP3    H254539   5.367   3.647  17.273  1.5222  0.3846 -1.2823
11042TIP3   OH254540   6.373   0.533  14.475 -0.1591 -0.4810 -0.3031
11042TIP3    H154541   6.454   0.565  14.515  0.4074 -3.9204  1.6572
11042TIP3    H254542   6.328   0.613  14.446  2.4155  1.7972  1.4294
11043TIP3   OH254543   1.199   1.371   2.238 -0.3345  0.0316 -0.3875
11043TIP3    H154544   1.255   1.416   2.301 -0.1313 -0.7980  0.0400
11043TIP3    H254545   1.144   1.312   2.291 -0.7477 -0.0702 -0.9082
11044TIP3   OH254546   2.691   0.864  12.798  0.3338  0.0552  0.8646
11044TIP3    H154547   2.764   0.916  12.766  1.8557 -1.7045  1.2755
11044TIP3    H254548   2.645   0.922  12.859  0.6296  1.6075 -0.3357
11045TIP3   OH254549   5.276   5.604   3.014 -0.3440  0.1038  0.4419
11045TIP3    H154550   5.207   5.652   3.060 -1.4462 -0.4351 -0.5663
11045TIP3    H254551   5.230   5.529   2.975  1.0744 -0.9921  0.8213
11046TIP3   OH254552   6.223   2.293  14.155 -0.7944 -0.0966 -0.5734
11046TIP3    H154553   6.168   2.325  14.084 -0.3964 -0.6299 -1.1307
11046TIP3    H254554   6.177   2.216  14.189  0.1122 -1.1965 -1.7561
11047TIP3   OH254555   4.897   3.907  14.350 -0.3996  0.3561 -0.1558
11047TIP3    H154556   4.942   3.860  14.280 -1.1217  0.5939 -0.7914
11047TIP3    H254557   4.915   3.855  14.429 -2.0923 -1.6787 -0.9967
11048TIP3   OH254558   3.765   6.710   4.210 -0.3253 -0.4154  0.3220
11048TIP3    H154559   3.767   6.678   4.300  2.1887  0.2854  0.5923
11048TIP3    H254560   3.688   6.767   4.207 -1.5507 -1.9305  1.4334
11049TIP3   OH254561   6.457   1.784   4.334 -0.3417 -0.7881 -0.0291
11049TIP3    H154562   6.537   1.829   4.306 -0.6868 -1.4147 -2.2533
11049TIP3    H254563   6.464   1.779   4.429  1.5340  0.5005 -0.0381
11050TIP3   OH254564   4.730   5.382  13.453  0.2315 -0.0071 -0.0326
11050TIP3    H154565   4.681   5.441  13.396  0.0042 -0.9656 -0.8572
11050TIP3    H254566   4.698   5.402  13.541 -0.0952  0.8469 -0.3371
11051TIP3   OH254567   2.302   4.514  17.071  0.2368  0.6067 -0.1836
11051TIP3    H154568   2.292   4.511  16.975  0.7524  0.4364 -0.2354
11051TIP3    H254569   2.309   4.422  17.096 -1.0935  0.5836  0.1556
11052TIP3   OH254570   5.636   0.354   4.969  0.0850  0.4129 -0.3378
11052TIP3    H154571   5.620   0.418   5.038  2.4019 -0.8563  1.5223
11052TIP3    H254572   5.564   0.291   4.978 -0.0950  0.7096  0.3761
11053TIP3   OH254573   5.217   5.776  16.607  0.4241 -0.1004 -0.0701
11053TIP3    H154574   5.167   5.849  16.572 -0.1506  0.4603  1.7885
11053TIP3    H254575   5.151   5.715  16.639  0.8553  0.3821  1.8887
11054TIP3   OH254576   4.776   6.164   6.077 -0.0350 -0.4836  0.1405
11054TIP3    H154577   4.760   6.134   6.166 -0.0833 -0.6664  0.0712
11054TIP3    H254578   4.844   6.231   6.085  0.4256 -0.9537  0.2469
11055TIP3   OH254579   4.287   3.779  12.319  0.2415 -0.1004  0.0737
11055TIP3    H154580   4.353   3.713  12.342 -0.2962 -0.6169  0.1575
11055TIP3    H254581   4.204   3.733  12.324 -0.2430  0.8313  1.1211
11056TIP3   OH254582   2.994   5.687  14.487  0.4454 -0.6535 -0.4468
11056TIP3    H154583   2.996   5.778  14.457 -0.5404 -1.0243 -1.7752
11056TIP3    H254584   3.068   5.646  14.442  2.4406 -0.0174  2.0810
11057TIP3   OH254585   2.537   1.762   1.802 -1.1116  0.1986 -0.3657
11057TIP3    H154586   2.462   1.797   1.850 -0.0689  0.5471  1.0636
11057TIP3    H254587   2.579   1.702   1.863 -0.6782 -0.6273 -1.4426
11058TIP3   OH254588   2.097   5.091  12.835  0.0529 -0.1175  0.2077
11058TIP3    H154589   2.148   5.112  12.756  2.6269 -2.4796  1.1076
11058TIP3    H254590   2.107   5.168  12.891  0.3535  0.5416 -0.7238
11059TIP3   OH254591   1.564   2.890  16.039 -0.1359  0.8944 -0.0750
11059TIP3    H154592   1.602   2.918  15.957 -0.2393  0.3798 -0.3030
11059TIP3    H254593   1.499   2.957  16.060 -0.6124  0.6588 -0.7786
11060TIP3   OH254594   5.281   1.174  14.477  0.2691  0.6567 -0.8002
11060TIP3    H154595   5.322   1.098  14.519  0.2402 -0.0680 -2.0306
11060TIP3    H254596   5.295   1.160  14.384 -2.5725  0.4830 -1.2994
11061TIP3   OH254597   4.393   3.149   3.642 -0.1566 -0.2518 -0.1037
11061TIP3    H154598   4.395   3.219   3.708  0.0490  0.0091 -0.3832
11061TIP3    H254599   4.460   3.088   3.672 -0.3867 -0.3661  0.1811
11062TIP3   OH254600   3.940   0.934  10.695 -0.2801  0.7605 -0.0280
11062TIP3    H154601   3.917   0.845  10.722  1.2757 -0.0788 -1.3118
11062TIP3    H254602   4.035   0.935  10.692 -0.2892  2.1641 -1.0188
11063TIP3   OH254603   3.805   3.135  16.765 -0.2998  0.3518  0.3048
11063TIP3    H154604   3.815   3.184  16.683 -0.0050  0.1275  0.2074
11063TIP3    H254605   3.762   3.197  16.824 -0.9160  0.3734 -0.1520
11064TIP3   OH254606   1.719   3.620   0.485 -0.5832 -0.0402  0.0400
11064TIP3    H154607   1.779   3.654   0.553  0.0430 -0.1940 -0.4224
11064TIP3    H254608   1.743   3.668   0.406 -1.9529  0.8219  0.1159
11065TIP3   OH254609   2.120   5.819   6.732 -0.1274 -0.5813 -0.1932
11065TIP3    H154610   2.174   5.892   6.763  0.2966  0.1423 -2.4380
11065TIP3    H254611   2.049   5.861   6.682 -0.1835 -1.6668 -1.0676
11066TIP3   OH254612   4.561   4.573   4.828  0.4551 -0.1766  0.2147
11066TIP3    H154613   4.531   4.647   4.775  0.1759  1.5318  2.6325
11066TIP3    H254614   4.482   4.522   4.846 -0.1664  1.3167  2.0210
11067TIP3   OH254615   3.999   2.533   3.533  0.3475  0.1067 -0.2973
11067TIP3    H154616   4.014   2.514   3.626 -0.3138 -0.1198 -0.2329
11067TIP3    H254617   3.973   2.450   3.495 -0.7991  0.4871 -0.3823
11068TIP3   OH254618   3.860   0.562  14.292 -0.0255 -0.2816  0.0859
11068TIP3    H154619   3.791   0.508  14.330  0.0482 -0.6993 -0.3703
11068TIP3    H254620   3.813   0.636  14.253 -0.1984 -0.4795 -0.0802
11069TIP3   OH254621   2.553   2.839   2.887 -0.2156 -0.1470 -0.4350
11069TIP3    H154622   2.634   2.852   2.936 -0.8100 -1.2580  0.9175
11069TIP3    H254623   2.505   2.921   2.899 -0.2101 -0.2826  0.5878
11070TIP3   OH254624   5.453   1.527  11.260  0.1094 -0.0669 -0.1168
11070TIP3    H154625   5.462   1.621  11.246  1.1534  0.2640  2.2355
11070TIP3    H254626   5.365   1.517  11.298 -0.4206 -0.2036 -1.3502
11071TIP3   OH254627   2.345   6.043  13.525  0.3341 -0.4384 -0.1374
11071TIP3    H154628   2.315   6.109  13.587  1.5138 -1.4445  1.5911
11071TIP3    H254629   2.436   6.025  13.550  0.9781 -0.6705 -2.3723
11072TIP3   OH254630   2.938   1.820  16.676 -0.1141  0.0075 -0.5317
11072TIP3    H154631   2.852   1.856  16.702 -0.2648  0.9158 -2.1376
11072TIP3    H254632   2.999   1.856  16.740 -1.0199 -1.4910  1.2829
11073TIP3   OH254633   3.461   0.413  13.226 -0.1341  0.0809  0.0876
11073TIP3    H154634   3.424   0.502  13.230  1.6674  0.8509  0.7376
11073TIP3    H254635   3.554   0.427  13.209 -0.1888 -1.8025 -2.1168
11074TIP3   OH254636   0.015   0.761   0.278 -0.0842  0.0098 -0.0309
11074TIP3    H154637   0.018   0.845   0.233  2.0497 -0.9075 -1.7986
11074TIP3    H254638   0.105   0.747   0.307 -0.7388 -0.9732  1.6298
11075TIP3   OH254639   2.090   0.478   4.753  0.4188  0.1301  0.7231
11075TIP3    H154640   2.104   0.521   4.837  2.8134 -0.7117  0.8353
11075TIP3    H254641   2.138   0.396   4.760 -0.7400 -0.7517 -0.8969
11076TIP3   OH254642   1.126   0.815   2.912 -0.1252 -0.0134 -0.3915
11076TIP3    H154643   1.082   0.740   2.952 -1.4309 -0.4799 -2.5365
11076TIP3    H254644   1.138   0.790   2.820  1.4099  1.5623 -0.6726
11077TIP3   OH254645   1.352   1.497  14.080  0.8945  0.2046  0.1866
11077TIP3    H154646   1.430   1.466  14.125  2.4988 -1.1353 -3.1671
11077TIP3    H254647   1.380   1.511  13.990 -2.6339  0.2032 -1.0852
11078TIP3   OH254648   5.495   3.146   5.982  0.2936  0.6655  0.3667
11078TIP3    H154649   5.418   3.092   5.999  0.6727  0.2769  0.8975
11078TIP3    H254650   5.549   3.135   6.060  0.8308  1.0320  0.0524
11079TIP3   OH254651   3.769   1.449  13.889 -0.3418  0.0501  0.1385
11079TIP3    H154652   3.729   1.381  13.944  0.2896 -1.7525 -1.5199
11079TIP3    H254653   3.844   1.406  13.848 -0.7121  1.3291 -2.0311
11080TIP3   OH254654   5.135   1.981  15.526  0.0566  0.1978 -0.1704
11080TIP3    H154655   5.100   2.015  15.609 -0.5510  1.8350 -1.0616
11080TIP3    H254656   5.228   1.967  15.544  0.1578  1.5569  0.4928
11081TIP3   OH254657   3.218   6.517   2.565  0.2449  0.0104  0.2739
11081TIP3    H154658   3.214   6.557   2.652 -2.4674  0.8845 -0.1527
11081TIP3    H254659   3.186   6.428   2.578  1.0139 -0.2576  0.3529
11082TIP3   OH254660   3.615   5.539  13.939  0.1144 -0.3097 -0.3791
11082TIP3    H154661   3.696   5.569  13.900 -1.0880  2.0701 -1.2523
11082TIP3    H254662   3.594   5.605  14.006 -1.2826 -0.6287 -0.4589
11083TIP3   OH254663   1.555   3.607   1.881  0.1020 -0.3246  0.2491
11083TIP3    H154664   1.554   3.591   1.976  0.5107 -0.9128  0.1571
11083TIP3    H254665   1.603   3.533   1.844  1.8831  0.9742 -0.2111
11084TIP3   OH254666   2.692   1.942  15.670  0.3338  0.4042  0.0589
11084TIP3    H154667   2.703   2.029  15.632  1.0148  0.6669  0.8384
11084TIP3    H254668   2.656   1.889  15.599  0.5785  1.1469 -0.6289
11085TIP3   OH254669   2.161   4.931  13.065  0.0425  0.0102 -0.3439
11085TIP3    H154670   2.114   4.965  12.988 -0.5694 -0.1858 -0.0574
11085TIP3    H254671   2.251   4.922  13.035 -0.2653 -0.4565 -1.1727
11086TIP3   OH254672   0.205   5.407  14.871 -0.2372 -0.0414 -0.2576
11086TIP3    H154673   0.265   5.440  14.938 -0.8377 -1.9563  1.3184
11086TIP3    H254674   0.188   5.483  14.815 -0.2589  1.8851  2.1578
11087TIP3   OH254675   4.208   1.983  12.493  0.4616 -0.1907  0.0678
11087TIP3    H154676   4.136   2.026  12.540  0.1890  0.2126 -0.7015
11087TIP3    H254677   4.283   2.041  12.505  0.0760  0.5656 -1.0347
11088TIP3   OH254678   4.623   1.378   5.105  0.2824 -0.6155  0.2128
11088TIP3    H154679   4.704   1.380   5.157  0.5339 -1.8416 -0.1135
11088TIP3    H254680   4.649   1.338   5.022  0.5349  3.6703 -2.0492
11089TIP3   OH254681   0.753   3.851   1.895  0.0324  0.1201  0.2815
11089TIP3    H154682   0.817   3.902   1.846 -0.3251  1.0561  0.7474
11089TIP3    H254683   0.722   3.911   1.963 -1.9500  0.0026 -0.4417
11090TIP3   OH254684   5.153   0.581  12.713 -0.3266 -0.2071  0.0493
11090TIP3    H154685   5.164   0.571  12.808 -0.5283 -0.9648 -0.0035
11090TIP3    H254686   5.072   0.536  12.693 -0.3747  0.0964 -0.4686
11091TIP3   OH254687   5.247   4.342  11.670 -0.1016 -0.6238 -0.3365
11091TIP3    H154688   5.234   4.357  11.576  1.4876  0.0768 -0.4851
11091TIP3    H254689   5.320   4.280  11.675  0.3786 -0.0212  0.4264
11092TIP3   OH254690   2.365   1.353  16.948 -0.3462  0.3539 -0.1008
11092TIP3    H154691   2.376   1.295  16.873  0.2465  1.5948 -1.0096
11092TIP3    H254692   2.452   1.362  16.986 -0.7100 -0.6063  1.0379
11093TIP3   OH254693   6.340   3.212   5.427 -0.5224 -0.1737 -0.2366
11093TIP3    H154694   6.256   3.182   5.461 -0.0515 -1.4267 -0.0958
11093TIP3    H254695   6.345   3.304   5.451 -0.7579 -0.6907  2.0520
11094TIP3   OH254696   3.411   0.472  16.901  0.3852  0.3566  0.1765
11094TIP3    H154697   3.501   0.449  16.876  0.2238 -0.9729  0.7595
11094TIP3    H254698   3.364   0.389  16.903 -1.0809  1.1096 -0.9071
11095TIP3   OH254699   3.677   1.588   1.769  0.2944 -0.1405  0.1044
11095TIP3    H154700   3.724   1.604   1.687 -1.7894 -0.3696 -1.1947
11095TIP3    H254701   3.716   1.651   1.831  0.5282  1.5205 -1.6223
11096TIP3   OH254702   0.992   0.659   0.577  0.0510  0.6385 -0.0150
11096TIP3    H154703   0.912   0.635   0.624  0.2380 -0.4810 -0.2407
11096TIP3    H254704   0.997   0.754   0.587 -1.0664  0.6817  0.3834
11097TIP3   OH254705   4.154   3.700  11.979  0.1838  0.0788  0.4837
11097TIP3    H154706   4.225   3.678  11.918  0.3544  1.0558  0.3088
11097TIP3    H254707   4.148   3.624  12.037 -0.5336 -1.2369 -1.2281
11098TIP3   OH254708   3.144   2.322   1.218  0.0708  0.1824  0.2979
11098TIP3    H154709   3.226   2.292   1.259  0.6652  2.9722  1.4181
11098TIP3    H254710   3.145   2.282   1.131  1.5626 -1.5297  1.0236
11099TIP3   OH254711   4.146   0.870   1.585  0.3529 -0.0062 -0.2397
11099TIP3    H154712   4.077   0.937   1.596  0.1341  0.0711 -1.8438
11099TIP3    H254713   4.128   0.806   1.654 -0.1963  0.9521  0.5376
11100TIP3   OH254714   5.395   5.008   3.338  0.0169  0.2644  0.3646
11100TIP3    H154715   5.477   5.008   3.289 -1.5773 -0.2479 -2.5007
11100TIP3    H254716   5.364   5.098   3.332 -0.2081  0.1896  0.4115
11101TIP3   OH254717   1.840   4.753  14.144  0.4149 -0.6211  0.5869
11101TIP3    H154718   1.824   4.847  14.151 -0.3450 -0.7546  0.7769
11101TIP3    H254719   1.931   4.746  14.114  0.5756  0.1630  0.8642
11102TIP3   OH254720   2.047   6.320   1.850 -0.0698 -0.2203 -0.4446
11102TIP3    H154721   2.131   6.362   1.832 -0.5152  0.6880 -0.4731
11102TIP3    H254722   2.014   6.363   1.928 -0.6371 -0.3731 -0.5906
11103TIP3   OH254723   1.790   6.254   6.375 -0.4111  0.1976 -0.7702
11103TIP3    H154724   1.799   6.340   6.333 -0.3939  0.0269 -1.1215
11103TIP3    H254725   1.721   6.210   6.324 -0.6533  0.1269 -0.3841
11104TIP3   OH254726   4.381   5.242   0.404 -0.1159  0.0896  0.6226
11104TIP3    H154727   4.389   5.151   0.431  0.1624 -0.0975 -0.0668
11104TIP3    H254728   4.391   5.240   0.308  1.5055  1.0170  0.7351
11105TIP3   OH254729   5.188   2.696  15.394  0.5384 -0.2669  0.4166
11105TIP3    H154730   5.156   2.669  15.480  0.6177 -1.0094  0.2225
11105TIP3    H254731   5.119   2.751  15.358  0.6417  0.3173  1.0840
11106TIP3   OH254732   5.550   1.154   0.127  0.2411  0.6301 -0.4928
11106TIP3    H154733   5.632   1.198   0.105 -0.7020  2.1301 -1.0746
11106TIP3    H254734   5.518   1.200   0.204  0.3472 -0.5163  0.2676
11107TIP3   OH254735   0.426   5.022  15.702 -0.1041  0.5155  0.2117
11107TIP3    H154736   0.441   4.943  15.755  1.5965  1.0820  0.6506
11107TIP3    H254737   0.439   5.095  15.764  0.7985  1.1654 -0.7030
11108TIP3   OH254738   1.382   6.012  15.228  0.0885  0.0457  0.1507
11108TIP3    H154739   1.373   6.105  15.208  0.8511  0.6863  2.5300
11108TIP3    H254740   1.418   5.974  15.148  0.7909  1.9907 -0.5086
11109TIP3   OH254741   1.380   3.996  13.791  0.1595 -0.5324 -0.0638
11109TIP3    H154742   1.396   3.919  13.845  0.0615 -0.4632  0.0652
11109TIP3    H254743   1.445   3.991  13.721 -0.4060 -1.1998 -0.5535
11110TIP3   OH254744   3.868   4.795   3.301  0.2055  0.3771  0.3500
11110TIP3    H154745   3.880   4.789   3.396 -1.3224  0.2412  0.5608
11110TIP3    H254746   3.789   4.847   3.290 -0.7553 -1.2188 -0.7659
11111TIP3   OH254747   5.664   2.113  12.535  0.2319 -0.1165 -0.4595
11111TIP3    H154748   5.621   2.028  12.542 -0.0908  0.0550 -0.3553
11111TIP3    H254749   5.593   2.176  12.522  0.4117  0.2174  0.1083
11112TIP3   OH254750   1.934   1.819   3.093 -0.1834 -0.0210  0.2035
11112TIP3    H154751   1.864   1.884   3.093  0.4872  0.7314 -0.6479
11112TIP3    H254752   1.891   1.737   3.119 -1.1141  0.6813  0.9458
11113TIP3   OH254753   1.797   4.428   3.853 -0.4783 -0.3272  0.4026
11113TIP3    H154754   1.850   4.486   3.907  1.1900 -1.9142  0.5736
11113TIP3    H254755   1.707   4.440   3.884  0.3445 -0.7989  3.1850
11114TIP3   OH254756   3.058   2.912  15.998 -0.2799  0.1786 -0.0155
11114TIP3    H154757   2.963   2.920  16.004 -0.3503 -0.3824 -0.3001
11114TIP3    H254758   3.072   2.832  15.947  0.3532 -0.2522  0.8062
11115TIP3   OH254759   3.613   0.697   0.374 -0.1871 -0.1052  0.3013
11115TIP3    H154760   3.606   0.765   0.306 -0.5714  1.3900  1.7672
11115TIP3    H254761   3.536   0.642   0.360  0.3284 -0.4987 -1.1506
11116TIP3   OH254762   2.315   6.060   4.028  0.5917 -0.0508 -0.1758
11116TIP3    H154763   2.365   6.113   3.967  2.1726 -0.9208  0.3162
11116TIP3    H254764   2.282   5.987   3.976 -1.9397  1.5168 -0.9496
11117TIP3   OH254765   2.013   2.530   3.690  0.2592  0.4005  0.7535
11117TIP3    H154766   2.062   2.455   3.658  0.3777  0.3701  0.9971
11117TIP3    H254767   1.957   2.495   3.760 -0.4747  0.3440  0.1533
11118TIP3   OH254768   3.136   1.405  11.300  0.0077 -0.1243  0.0572
11118TIP3    H154769   3.133   1.418  11.205  0.4562  0.4410  0.1146
11118TIP3    H254770   3.120   1.492  11.336  1.6206  0.0352  0.4724
11119TIP3   OH254771   1.031   2.883  10.808 -0.3809  0.1189 -0.2885
11119TIP3    H154772   0.948   2.863  10.850 -0.5669 -0.2679 -0.8378
11119TIP3    H254773   1.008   2.912  10.720  0.1371 -1.4068 -0.9566
11120TIP3   OH254774   2.896   5.071  16.916  0.1146  0.0480  0.4018
11120TIP3    H154775   2.875   4.979  16.901  1.2504 -0.3887  1.3791
11120TIP3    H254776   2.851   5.118  16.845 -0.6656 -1.2243  0.0333
11121TIP3   OH254777   0.307   3.000  11.486 -0.0455 -0.2697 -0.0967
11121TIP3    H154778   0.276   2.910  11.503 -1.7904  0.5871  1.6793
11121TIP3    H254779   0.243   3.056  11.530  1.4066  1.8494 -0.5328
11122TIP3   OH254780   2.184   6.541   4.683 -0.2899  0.8255 -0.3432
11122TIP3    H154781   2.231   6.605   4.737  0.0170  0.9937 -0.7986
11122TIP3    H254782   2.249   6.474   4.663 -0.9884 -0.4368  1.3569
11123TIP3   OH254783   1.657   4.502   6.490 -0.0431 -0.1265 -0.3073
11123TIP3    H154784   1.647   4.592   6.457  1.3457  0.5886  1.0895
11123TIP3    H254785   1.750   4.495   6.511 -0.3983 -1.4171  0.9416
11124TIP3   OH254786   0.004   0.163   1.950 -0.5838 -0.2157 -1.3744
11124TIP3    H154787  -0.053   0.203   1.884 -0.3193  1.1881 -0.7962
11124TIP3    H254788   0.083   0.138   1.901 -0.6366  0.2552 -1.7112
11125TIP3   OH254789   0.622   6.521   2.026 -0.0412  0.1028  0.0467
11125TIP3    H154790   0.602   6.543   1.935 -3.9034  0.8571  0.8987
11125TIP3    H254791   0.717   6.506   2.027  0.3705  1.3840 -3.7721
11126TIP3   OH254792   3.912   5.391  14.161  0.1290  0.1333  0.0808
11126TIP3    H154793   3.956   5.420  14.241  0.4390 -0.7253  0.2246
11126TIP3    H254794   3.979   5.344  14.112 -0.5447 -0.9313  0.1622
11127TIP3   OH254795   4.941   1.405  14.998 -0.0373 -0.1153  0.4670
11127TIP3    H154796   4.883   1.330  14.985  3.2326 -3.0512  1.1264
11127TIP3    H254797   4.969   1.429  14.910 -1.7814  1.0240  0.1827
11128TIP3   OH254798   3.628   0.170   4.242 -0.0725  0.3725  0.2406
11128TIP3    H154799   3.548   0.207   4.281  0.3796  0.1300  1.4633
11128TIP3    H254800   3.695   0.236   4.259  0.0195  0.5229 -0.6793
11129TIP3   OH254801   5.489   6.459  15.363  0.0689 -0.0043  0.5200
11129TIP3    H154802   5.564   6.505  15.325 -0.4798  0.6718  0.2374
11129TIP3    H254803   5.445   6.420  15.288  0.6997 -1.2804  0.7858
11130TIP3   OH254804   5.624   3.700   0.920  0.8442  0.2204 -0.6339
11130TIP3    H154805   5.701   3.730   0.968 -0.3962 -0.4545  1.9487
11130TIP3    H254806   5.582   3.638   0.979 -3.3393  2.7939 -0.4900
11131TIP3   OH254807   2.084   6.368  15.181  0.0054 -0.0649 -0.2241
11131TIP3    H154808   2.147   6.436  15.205  0.6213 -0.1285 -1.5676
11131TIP3    H254809   2.005   6.390  15.231  0.1238  1.7451 -0.7649
11132TIP3   OH254810   5.512   2.959  15.198  0.5309  0.4580 -0.0944
11132TIP3    H154811   5.490   2.893  15.132  1.4934 -0.7525  0.7555
11132TIP3    H254812   5.569   3.021  15.153 -2.1979  2.1258 -1.5684
11133TIP3   OH254813   0.229   3.937   4.380  0.8274 -0.0276  0.7477
11133TIP3    H154814   0.198   3.852   4.351  0.1233  0.0095  1.3625
11133TIP3    H254815   0.323   3.926   4.392  0.7519 -0.6938  0.7486
11134TIP3   OH254816   4.843   1.964   0.753 -0.3767  0.4629  0.0903
11134TIP3    H154817   4.808   1.967   0.664  1.2406 -1.3874 -0.6686
11134TIP3    H254818   4.930   2.004   0.746 -0.9274  1.9785  1.2602
11135TIP3   OH254819   6.281   1.741   1.807 -0.4633 -0.6037  0.5777
11135TIP3    H154820   6.359   1.685   1.803 -0.4064 -0.4674 -0.4347
11135TIP3    H254821   6.210   1.685   1.776 -0.5955 -0.4202  0.5480
11136TIP3   OH254822   2.057   5.560   0.537 -0.3175 -0.4729 -0.1091
11136TIP3    H154823   1.973   5.588   0.502 -0.6050 -1.0195  0.1290
11136TIP3    H254824   2.114   5.636   0.525 -0.5287 -0.4806 -1.3082
11137TIP3   OH254825   3.901   2.389   4.245 -0.3174  0.5405 -0.0209
11137TIP3    H154826   3.854   2.456   4.295 -1.3969 -0.7280  0.7037
11137TIP3    H254827   3.833   2.333   4.208  0.5833 -1.2606  0.9360
11138TIP3   OH254828   5.453   0.053   1.317 -0.0476  0.0433 -0.3466
11138TIP3    H154829   5.371   0.079   1.275  0.6580  0.6111 -1.4007
11138TIP3    H254830   5.428  -0.017   1.377 -0.9608 -1.5360 -2.4324
11139TIP3   OH254831   6.632   0.432  16.424 -0.1448  0.5400 -0.4424
11139TIP3    H154832   6.646   0.442  16.518 -1.3502 -0.5348 -0.1168
11139TIP3    H254833   6.623   0.522  16.391  2.4466  1.0392  0.0598
11140TIP3   OH254834   0.663   4.139  15.157  0.2752  0.0554  0.4873
11140TIP3    H154835   0.735   4.084  15.125 -0.2911  0.1054 -0.9863
11140TIP3    H254836   0.671   4.137  15.252  1.6881 -0.6484  0.3785
11141TIP3   OH254837   4.503   4.716   5.291 -0.3193  0.0611  0.5555
11141TIP3    H154838   4.587   4.671   5.290 -1.4609 -2.2785  1.5113
11141TIP3    H254839   4.470   4.708   5.202  0.3502  0.7570  0.2415
11142TIP3   OH254840   5.128   5.800   5.463 -0.2591 -0.3945 -0.0297
11142TIP3    H154841   5.056   5.843   5.417  0.2823 -0.4646 -0.9595
11142TIP3    H254842   5.206   5.850   5.439  0.0228 -0.3168  0.9730
11143TIP3   OH254843   0.067   5.692   4.829  0.2653 -0.0668 -0.3063
11143TIP3    H154844   0.049   5.690   4.923 -0.4781 -2.8200 -0.4022
11143TIP3    H254845   0.160   5.667   4.822  0.4363  0.5624 -0.2911
11144TIP3   OH254846   3.261   2.723   5.597 -0.1254 -0.2256  0.0365
11144TIP3    H154847   3.167   2.701   5.599  0.0460 -1.1604 -1.3004
11144TIP3    H254848   3.278   2.748   5.507  0.0530  4.1737  1.0690
11145TIP3   OH254849   2.280   2.743   4.034 -0.0283 -0.6288  0.0072
11145TIP3    H154850   2.191   2.723   4.063 -0.0501 -1.4189 -0.5777
11145TIP3    H254851   2.294   2.686   3.958  1.1389 -0.8547  0.3735
11146TIP3   OH254852   4.840   1.919   3.685  0.3480  0.3291 -0.6098
11146TIP3    H154853   4.911   1.962   3.637  1.3962 -0.4452  0.2159
11146TIP3    H254854   4.864   1.929   3.777 -1.5153  1.5830 -0.1924
11147TIP3   OH254855   2.176   4.937  11.398  0.5848 -0.2181 -0.5625
11147TIP3    H154856   2.089   4.923  11.435  0.5574 -0.7086 -0.8140
11147TIP3    H254857   2.167   4.917  11.305  1.2441 -1.4522 -0.3750
11148TIP3   OH254858   0.317   3.721   0.117 -0.2018 -0.1723  0.5864
11148TIP3    H154859   0.243   3.705   0.175 -0.0260 -0.1073  0.8288
11148TIP3    H254860   0.360   3.636   0.107 -0.3909 -0.2408  0.3284
11149TIP3   OH254861   6.033   4.804  14.926 -0.6543 -0.1388  0.3362
11149TIP3    H154862   5.996   4.873  14.982 -1.8957 -1.1946  0.8806
11149TIP3    H254863   5.979   4.727  14.945  0.8237 -1.3215 -0.1061
11150TIP3   OH254864   2.453   3.300  15.171  0.1119 -0.0675 -0.2690
11150TIP3    H154865   2.413   3.340  15.248 -1.3789  1.3138 -1.6754
11150TIP3    H254866   2.381   3.251  15.130  1.5818 -3.3065  0.7095
11151TIP3   OH254867   6.678   2.529   5.963 -0.3606 -0.1040 -0.0346
11151TIP3    H154868   6.637   2.516   6.049  0.8207 -0.8751  0.4323
11151TIP3    H254869   6.670   2.445   5.919  1.1030 -0.4144  0.2486
11152TIP3   OH254870   1.961   1.601   2.256 -0.1683 -0.1530  0.0221
11152TIP3    H154871   1.905   1.674   2.283 -0.5888 -1.1949  2.1700
11152TIP3    H254872   1.902   1.526   2.249  0.6601 -0.8966  0.6363
11153TIP3   OH254873   6.111   5.703   3.165  0.1255  0.0151  0.0106
11153TIP3    H154874   6.170   5.770   3.200  0.1896  0.0179 -0.1038
11153TIP3    H254875   6.158   5.621   3.177 -0.5627 -0.1960  1.5464
11154TIP3   OH254876   6.444   3.072  14.353  0.1758  0.3223 -0.2159
11154TIP3    H154877   6.497   3.090  14.431  0.0455 -0.0428 -0.0428
11154TIP3    H254878   6.437   2.977  14.351 -1.3695  0.3954  0.3608
11155TIP3   OH254879   5.633   4.080   4.689 -0.5042  0.6569 -0.3555
11155TIP3    H154880   5.630   4.023   4.766 -1.0323  0.1783 -0.7163
11155TIP3    H254881   5.542   4.107   4.676 -0.2192  1.8391 -0.0179
11156TIP3   OH254882   1.503   2.651  12.452  0.4982  0.0367  0.1167
11156TIP3    H154883   1.474   2.706  12.379 -0.2111  1.1750  1.2174
11156TIP3    H254884   1.596   2.671  12.461 -0.2106  3.1666  2.1259
11157TIP3   OH254885   1.584   5.691   0.787 -0.1023 -0.6123  0.7767
11157TIP3    H154886   1.564   5.769   0.840 -0.4847 -0.0043 -0.2386
11157TIP3    H254887   1.589   5.724   0.697  1.3794 -1.4740  0.5115
11158TIP3   OH254888   3.058   2.036  13.258 -0.2948 -0.0749 -0.2131
11158TIP3    H154889   3.020   1.958  13.217 -0.0433 -0.3429  0.0559
11158TIP3    H254890   3.133   2.003  13.308 -2.1160 -0.2389  2.6993
11159TIP3   OH254891   2.749   6.149  13.812  0.5986 -0.0123 -0.1370
11159TIP3    H154892   2.686   6.149  13.739  0.0378  0.9515  0.3366
11159TIP3    H254893   2.775   6.240  13.822  3.5505 -0.5696 -1.5222
11160TIP3   OH254894   4.382   4.060   5.702 -0.4985 -0.3037 -0.3664
11160TIP3    H154895   4.331   4.140   5.693 -1.4761 -0.8764 -0.0807
11160TIP3    H254896   4.450   4.066   5.634  0.0767  1.2064  0.3052
11161TIP3   OH254897   2.807   1.782   3.055  0.9924 -0.2486 -0.6763
11161TIP3    H154898   2.789   1.718   2.985  2.0387  0.4182 -1.5871
11161TIP3    H254899   2.723   1.825   3.070  0.1109 -2.1935  0.3713
11162TIP3   OH254900   4.951   0.237   1.665  0.8057  0.2444  0.9322
11162TIP3    H154901   5.037   0.274   1.682  1.2796  0.4673 -1.5780
11162TIP3    H254902   4.890   0.305   1.693  1.2178 -0.6325  4.5460
11163TIP3   OH254903   1.204   4.325  14.718 -0.1851  0.2570  0.6945
11163TIP3    H154904   1.118   4.290  14.738 -0.2745  0.4639  0.6722
11163TIP3    H254905   1.218   4.394  14.782 -1.0209  1.7960 -0.7281
11164TIP3   OH254906   4.961   0.506  12.145  0.2100 -0.2521  0.1696
11164TIP3    H154907   4.985   0.507  12.237  0.5126 -0.7620  0.0994
11164TIP3    H254908   4.959   0.599  12.120 -2.6548  0.0962  1.3609
11165TIP3   OH254909   5.453   4.171  14.853 -0.6558  0.4194 -0.3857
11165TIP3    H154910   5.529   4.187  14.908 -0.3476  2.1422 -1.2385
11165TIP3    H254911   5.379   4.172  14.913 -0.1123 -0.1497  0.3060
11166TIP3   OH254912   5.121   2.536   2.253 -0.4233 -0.6260 -0.6878
11166TIP3    H154913   5.171   2.456   2.269 -1.7856 -1.2544  0.8501
11166TIP3    H254914   5.060   2.512   2.183  0.0066 -0.5321 -1.0957
11167TIP3   OH254915   0.896   0.440   3.817 -0.1116  0.5883  0.0732
11167TIP3    H154916   0.854   0.360   3.849  0.7135  1.2118  3.0588
11167TIP3    H254917   0.855   0.456   3.732 -1.8590 -1.8026  0.3440
11168TIP3   OH254918   4.576   5.228  11.100  0.0139 -0.0452  0.0371
11168TIP3    H154919   4.525   5.148  11.114  0.3952 -0.3672 -0.3992
11168TIP3    H254920   4.584   5.266  11.188 -1.0374  0.0597  0.1042
11169TIP3   OH254921   2.616   5.719   3.813  0.2898  0.1302  0.9589
11169TIP3    H154922   2.593   5.635   3.773 -0.4844  0.7022  0.1825
11169TIP3    H254923   2.678   5.695   3.883 -1.5183 -1.3197  2.1785
11170TIP3   OH254924   5.592   4.193  12.910  0.7900  0.4143 -0.1766
11170TIP3    H154925   5.540   4.130  12.861  0.8455  0.2658 -0.0456
11170TIP3    H254926   5.621   4.257  12.845 -0.9959  1.4948  0.0136
11171TIP3   OH254927   6.002   0.455  14.046 -0.3540  0.4309  0.9298
11171TIP3    H154928   5.989   0.360  14.046 -2.7059  0.5983 -2.2492
11171TIP3    H254929   5.922   0.490  14.083  0.3322  1.2100  1.7026
11172TIP3   OH254930   2.793   3.753  15.653  0.4942  0.1530 -0.2859
11172TIP3    H154931   2.741   3.676  15.633 -3.1900  2.5717 -1.0318
11172TIP3    H254932   2.762   3.781  15.739  2.8246  0.0709  0.6402
11173TIP3   OH254933   6.040   3.738   2.464  0.1611 -0.2840 -0.2820
11173TIP3    H154934   6.047   3.763   2.372 -0.8475 -0.2399 -0.3518
11173TIP3    H254935   5.993   3.655   2.463 -1.0808  0.3785  0.2595
11174TIP3   OH254936   1.679   4.758   3.781  0.0044 -0.0447  0.5447
11174TIP3    H154937   1.639   4.672   3.775 -1.1311  0.5328 -0.7688
11174TIP3    H254938   1.669   4.796   3.694 -2.4330  2.6368  1.7978
11175TIP3   OH254939   0.358   3.244   0.113  0.4979  0.0171  0.1262
11175TIP3    H154940   0.310   3.210   0.038  2.4996  0.2720 -1.3249
11175TIP3    H254941   0.334   3.185   0.185 -0.5905 -0.9119 -0.9586
11176TIP3   OH254942   2.409   1.151  15.667 -0.1272  0.1915 -0.5965
11176TIP3    H154943   2.449   1.218  15.611  0.6817 -1.1983 -1.7507
11176TIP3    H254944   2.454   1.160  15.751  0.6622  0.4509 -1.0397
11177TIP3   OH254945   2.773   4.613  12.694 -0.3101  0.5550  0.2939
11177TIP3    H154946   2.703   4.592  12.632  0.9220 -2.0507 -0.3745
11177TIP3    H254947   2.836   4.664  12.642 -0.8489  1.3111  0.3781
11178TIP3   OH254948   1.036   4.971  15.053  0.0028 -0.3413  0.0254
11178TIP3    H154949   1.001   5.038  15.111 -3.0240 -1.3131 -0.4938
11178TIP3    H254950   1.129   4.993  15.044 -0.6626  3.2556  0.5258
11179TIP3   OH254951   6.339   2.037   1.059  0.4736 -0.0134  0.4869
11179TIP3    H154952   6.254   1.993   1.071 -0.3559  1.7266  1.4434
11179TIP3    H254953   6.319   2.113   1.004  1.3127  0.6441  1.0595
11180TIP3   OH254954   4.769   2.229  14.524  0.0881 -0.7272  0.1916
11180TIP3    H154955   4.778   2.139  14.554 -0.1676 -1.9418 -3.0416
11180TIP3    H254956   4.833   2.278  14.576  1.8764 -3.1843  0.4825
11181TIP3   OH254957   1.431   0.684  13.166  0.2884 -0.0463 -0.1198
11181TIP3    H154958   1.473   0.601  13.187  1.0239  0.6288  1.1609
11181TIP3    H254959   1.386   0.710  13.246 -1.5315 -0.0985 -1.0566
11182TIP3   OH254960   1.319   1.200   4.549 -0.6092  0.0043  0.0891
11182TIP3    H154961   1.370   1.257   4.606 -2.2615  1.2621  0.3664
11182TIP3    H254962   1.299   1.123   4.603 -1.0959  0.6232  0.8025
11183TIP3   OH254963   1.487   3.415  10.835  0.4448  0.0467  0.4049
11183TIP3    H154964   1.441   3.498  10.818 -0.6565 -0.2485  1.7829
11183TIP3    H254965   1.569   3.423  10.786 -0.0818  1.5321 -0.3033
11184TIP3   OH254966   2.400   5.313  16.746 -0.2509 -0.3503 -0.0342
11184TIP3    H154967   2.479   5.287  16.792 -0.9646 -2.6943  0.0193
11184TIP3    H254968   2.423   5.310  16.653  0.8986  3.3922 -0.0436
11185TIP3   OH254969   5.480   3.317  13.126 -0.3772  0.5238  0.1405
11185TIP3    H154970   5.517   3.401  13.097  0.7040 -0.4004 -1.2975
11185TIP3    H254971   5.521   3.252  13.069 -1.2113 -0.9948  1.2086
11186TIP3   OH254972   5.435   0.051   3.215 -0.1445  0.6630 -0.1695
11186TIP3    H154973   5.363   0.007   3.170  0.6569  0.9071 -1.7359
11186TIP3    H254974   5.511   0.040   3.157  1.0342  0.6360  1.3199
11187TIP3   OH254975   3.235   1.494   1.343 -0.3858 -0.4035  0.2058
11187TIP3    H154976   3.312   1.527   1.390 -0.8445 -0.5465  1.0651
11187TIP3    H254977   3.248   1.523   1.253  0.6477 -0.3704  0.3545
11188TIP3   OH254978   3.253   3.935  10.889 -0.0841  0.0967  0.2516
11188TIP3    H154979   3.344   3.952  10.916  0.2455  0.0003 -0.7395
11188TIP3    H254980   3.261   3.870  10.818 -1.0060 -0.6956  0.8545
11189TIP3   OH254981   1.685   4.465  13.308 -0.3762  0.7354 -0.7315
11189TIP3    H154982   1.671   4.411  13.230 -0.3848  0.5945 -0.6348
11189TIP3    H254983   1.596   4.484  13.339 -0.3775  0.9843 -0.8856
11190TIP3   OH254984   5.944   6.039  14.538 -0.6117 -0.0845  0.0597
11190TIP3    H154985   5.977   6.092  14.611  0.1920  0.6355 -0.7994
11190TIP3    H254986   5.879   5.981  14.578 -1.0326  1.0890  1.1515
11191TIP3   OH254987   0.556   6.015  14.600 -0.6722  0.0521 -0.2808
11191TIP3    H154988   0.490   6.012  14.669 -0.6053 -1.1700 -0.2582
11191TIP3    H254989   0.564   5.925  14.570  0.6679  0.2590 -0.5982
11192TIP3   OH254990   4.424   5.356   1.477 -0.2878  0.2440 -0.1579
11192TIP3    H154991   4.399   5.447   1.488  1.2685  0.7614 -0.6642
11192TIP3    H254992   4.458   5.351   1.388  0.9585 -0.4999  0.3351
11193TIP3   OH254993   1.229   1.744  14.045  0.5707 -0.1439  0.3432
11193TIP3    H154994   1.260   1.656  14.069 -1.0193 -0.7307  0.3801
11193TIP3    H254995   1.276   1.803  14.103  2.1890 -0.8835 -0.1410
11194TIP3   OH254996   1.866   1.634   3.749  0.3634 -0.5788  0.0346
11194TIP3    H154997   1.939   1.689   3.721 -0.1174 -0.3773 -0.8421
11194TIP3    H254998   1.805   1.695   3.789  1.3309 -0.9411  2.2150
11195TIP3   OH254999   3.682   5.463  13.044 -0.2980 -0.2835 -0.4276
11195TIP3    H155000   3.676   5.489  13.136 -1.6855 -1.0791 -0.2572
11195TIP3    H255001   3.765   5.417  13.037 -0.2242 -0.2980  0.4659
11196TIP3   OH255002   5.303   6.214  17.158 -0.5756 -0.1881  0.2235
11196TIP3    H155003   5.362   6.255  17.095  0.9331 -1.5125  0.7048
11196TIP3    H255004   5.223   6.196  17.109 -0.4441  1.2499 -0.5679
11197TIP3   OH255005   2.401   0.709   2.777 -0.0763  0.0890  0.1219
11197TIP3    H155006   2.471   0.669   2.829  1.2929  2.2409  0.0552
11197TIP3    H255007   2.447   0.755   2.707 -1.6323  0.7562 -0.5028
11198TIP3   OH255008   2.189   6.412   4.353  0.4245  0.1751 -0.4892
11198TIP3    H155009   2.214   6.503   4.370 -1.9821  0.7980  0.1912
11198TIP3    H255010   2.231   6.391   4.270  1.1915  1.8672 -0.5794
11199TIP3   OH255011   0.334   2.279  11.025  0.4304 -0.4194 -0.2687
11199TIP3    H155012   0.349   2.273  11.119  0.6870  0.9950 -0.1865
11199TIP3    H255013   0.397   2.218  10.986  0.6077 -0.7009  0.4516
11200TIP3   OH255014   3.594   1.621   0.716  0.1849 -0.4002 -0.1882
11200TIP3    H155015   3.562   1.699   0.670  2.2900  1.0431  0.5825
11200TIP3    H255016   3.569   1.636   0.807  2.7250  0.7519  0.4280
11201TIP3   OH255017   4.401   2.269   1.703 -0.0939  0.2186 -0.0516
11201TIP3    H155018   4.471   2.318   1.746  0.0422  0.8152 -0.9290
11201TIP3    H255019   4.446   2.212   1.640 -0.1693 -1.7715  1.5743
11202TIP3   OH255020   0.773   2.950   4.692 -0.2229 -0.0952  0.0127
11202TIP3    H155021   0.689   2.960   4.649  0.0340 -2.2369 -1.1316
11202TIP3    H255022   0.757   2.886   4.762  0.5495 -0.9519 -0.5738
11203TIP3   OH255023   5.828   1.861  17.182  0.0259 -0.3032 -0.2847
11203TIP3    H155024   5.757   1.899  17.234  0.8377 -1.3085  1.6396
11203TIP3    H255025   5.905   1.868  17.238  0.6669 -2.6468 -0.7728
11204TIP3   OH255026   5.934   2.653  11.315  0.4423  0.3149 -0.0883
11204TIP3    H155027   5.985   2.693  11.385 -0.2506 -1.3748  1.4735
11204TIP3    H255028   5.971   2.565  11.305 -0.8395 -0.2273 -0.3353
11205TIP3   OH255029   1.876   0.965  16.944 -0.0108 -0.4817 -0.6314
11205TIP3    H155030   1.857   0.885  16.895  0.1194 -0.2667 -1.0387
11205TIP3    H255031   1.946   0.939  17.004 -1.9442 -1.4420  1.3254
11206TIP3   OH255032   4.029   4.887  12.949 -0.0939 -0.5911  0.2672
11206TIP3    H155033   4.008   4.871  13.041  1.0649  1.0662  0.8630
11206TIP3    H255034   4.076   4.808  12.921  1.1836 -0.3690  1.6560
11207TIP3   OH255035   0.906   5.994  10.720 -0.3161 -0.3294 -0.4467
11207TIP3    H155036   0.896   5.985  10.626 -0.2911  3.5781 -1.0049
11207TIP3    H255037   0.868   6.080  10.740  3.1855  0.8473  2.3827
11208TIP3   OH255038   6.323   6.147  13.158 -0.3617 -0.0643  0.4680
11208TIP3    H155039   6.258   6.103  13.103  1.8557 -0.8636 -1.6522
11208TIP3    H255040   6.319   6.100  13.241 -1.0304 -1.5105 -0.3340
11209TIP3   OH255041   4.195   5.035   2.491 -0.6344 -0.2228  0.3751
11209TIP3    H155042   4.265   5.098   2.473  0.5236 -0.8566  2.2870
11209TIP3    H255043   4.241   4.954   2.512 -2.0160 -1.1024  0.1194
11210TIP3   OH255044   5.338   3.202  15.847  0.0972 -0.0540 -0.1519
11210TIP3    H155045   5.307   3.205  15.937 -0.7373  1.7338 -0.4431
11210TIP3    H255046   5.280   3.140  15.804 -0.6060  0.3615  0.1799
11211TIP3   OH255047   1.132   3.230   1.412  0.4100 -0.4429 -0.0617
11211TIP3    H155048   1.102   3.172   1.482  0.0990 -1.9919 -1.4089
11211TIP3    H255049   1.051   3.265   1.373  0.4021 -1.8317 -1.4143
11212TIP3   OH255050   2.984   2.726  14.758 -0.1802  0.3634 -0.3869
11212TIP3    H155051   2.917   2.792  14.742 -1.3563 -0.9027 -0.8931
11212TIP3    H255052   2.986   2.715  14.853 -0.6253  0.4811 -0.3651
11213TIP3   OH255053   3.791   0.494  13.990 -0.5279  0.2064 -0.4704
11213TIP3    H155054   3.831   0.407  13.997 -0.3711  0.2061 -1.2426
11213TIP3    H255055   3.705   0.485  14.031 -0.6304 -0.3936 -0.8131
11214TIP3   OH255056   0.014   0.488  15.613  0.8979 -0.0909 -0.0913
11214TIP3    H155057   0.023   0.581  15.590 -0.8971 -0.0413 -0.7333
11214TIP3    H255058   0.069   0.477  15.690 -0.8625  2.1694  1.6306
11215TIP3   OH255059   4.913   2.281   5.651 -0.3857  0.4988 -0.3248
11215TIP3    H155060   4.914   2.248   5.741  0.6129  0.4250 -0.3530
11215TIP3    H255061   5.005   2.297   5.630 -0.6984  1.6158 -0.9369
11216TIP3   OH255062   4.383   0.694   2.033 -0.4359  0.1978 -0.1513
11216TIP3    H155063   4.338   0.732   2.108 -0.2753  0.8386 -0.3777
11216TIP3    H255064   4.421   0.768   1.986  0.0831 -0.2509 -0.4682
11217TIP3   OH255065   0.478   0.789  15.522 -0.1112  0.1919 -0.1457
11217TIP3    H155066   0.564   0.800  15.481 -0.2959 -0.8172 -0.8397
11217TIP3    H255067   0.425   0.858  15.483  0.7367  1.8068  1.4039
11218TIP3   OH255068   4.828   0.664   4.781 -0.1539  0.8026 -0.2600
11218TIP3    H155069   4.852   0.731   4.718  2.5141 -0.5799 -0.8488
11218TIP3    H255070   4.857   0.582   4.742 -1.0066 -0.4309  1.5370
11219TIP3   OH255071   4.248   5.018   3.187 -0.0852  0.5505 -0.1364
11219TIP3    H155072   4.177   5.081   3.180 -0.6234 -0.1088 -0.8945
11219TIP3    H255073   4.238   4.980   3.274 -1.0557  0.0285 -0.4622
11220TIP3   OH255074   3.541   1.527  14.519 -0.4950 -0.5071  0.9863
11220TIP3    H155075   3.580   1.460  14.463  1.0247  1.1090 -0.0056
11220TIP3    H255076   3.497   1.587  14.459  0.0258  0.5443  1.6186
11221TIP3   OH255077   6.586   3.137  12.036  0.4173  0.0313 -0.1672
11221TIP3    H155078   6.513   3.197  12.049  1.2680  0.4625  3.6387
11221TIP3    H255079   6.566   3.062  12.092  1.5425 -1.2113 -1.3388
11222TIP3   OH255080   5.290   3.705  15.467  0.1825 -0.1538 -0.1375
11222TIP3    H155081   5.227   3.692  15.396  0.4403  2.6246 -0.9745
11222TIP3    H255082   5.256   3.778  15.518  2.2490  0.9060 -0.1388
11223TIP3   OH255083   5.836   4.631  15.001  0.6872 -0.3293  0.1074
11223TIP3    H155084   5.784   4.574  15.058 -2.2712  2.5742  0.6634
11223TIP3    H255085   5.813   4.604  14.912 -0.8252  0.0446  0.3580
11224TIP3   OH255086   5.290   1.879  11.388 -0.2213  0.3335  0.5582
11224TIP3    H155087   5.304   1.911  11.477 -0.1609  1.5049  0.1527
11224TIP3    H255088   5.250   1.954  11.342  1.3304  0.3556 -0.8401
11225TIP3   OH255089   0.804   5.113  11.608  0.2229 -0.0272  0.1039
11225TIP3    H155090   0.836   5.185  11.662 -1.3424  1.0126 -0.3013
11225TIP3    H255091   0.799   5.149  11.520  1.7417 -1.3956 -0.5892
11226TIP3   OH255092   0.387   5.431   2.414 -0.7623 -0.5516  0.9309
11226TIP3    H155093   0.460   5.429   2.352 -1.7508  0.3091 -0.3379
11226TIP3    H255094   0.412   5.370   2.483  1.1106 -0.3210  0.5075
11227TIP3   OH255095   5.230   4.839  16.343  0.1170  0.2863 -0.4161
11227TIP3    H155096   5.243   4.877  16.256 -0.0815  1.6640  0.1241
11227TIP3    H255097   5.293   4.767  16.347 -0.9250 -0.7873 -2.2404
11228TIP3   OH255098   2.526   5.303   2.237 -0.5829 -0.1276  0.4564
11228TIP3    H155099   2.613   5.342   2.241  0.0690 -1.2568 -1.3651
11228TIP3    H255100   2.501   5.309   2.145 -1.6016 -1.5438  0.6076
11229TIP3   OH255101   5.600   5.506   3.765 -0.1566  0.3336  0.3369
11229TIP3    H155102   5.649   5.532   3.688  0.1569 -0.6854  0.1734
11229TIP3    H255103   5.513   5.545   3.753 -0.3933 -0.5269 -0.9815
11230TIP3   OH255104   5.191   5.024  14.744 -0.2655 -0.3546 -0.4390
11230TIP3    H155105   5.122   4.964  14.716  0.5998 -1.2215 -0.7848
11230TIP3    H255106   5.163   5.054  14.831 -0.6310 -1.4341 -0.1608
11231TIP3   OH255107   5.087   0.285   1.055  0.3286 -0.5920  0.4272
11231TIP3    H155108   4.998   0.279   1.019  0.4999  0.0092 -0.1344
11231TIP3    H255109   5.144   0.275   0.978  0.7669 -1.6526  0.8802
11232TIP3   OH255110   5.569   1.223  13.748 -0.6687 -0.0383 -0.0085
11232TIP3    H155111   5.509   1.229  13.674  0.4917 -0.9264 -1.0650
11232TIP3    H255112   5.630   1.153  13.724  1.1785  1.2378  0.6899
11233TIP3   OH255113   3.170   3.865   3.381 -0.5002 -0.8085 -0.0645
11233TIP3    H155114   3.080   3.899   3.380 -0.9162 -1.8632 -0.3114
11233TIP3    H255115   3.219   3.929   3.432 -1.3470 -0.1062 -0.0952
11234TIP3   OH255116   0.543   3.630  16.470 -0.3359  0.3307 -0.2166
11234TIP3    H155117   0.539   3.640  16.565 -1.4853  0.0646 -0.2164
11234TIP3    H255118   0.481   3.559  16.451  0.3235 -0.0224 -1.1119
11235TIP3   OH255119   0.724   2.946  11.619  0.2015  0.6389 -0.6250
11235TIP3    H155120   0.659   3.015  11.603 -1.5782 -0.9609 -0.5547
11235TIP3    H255121   0.705   2.916  11.708  0.4889 -0.4075 -0.9097
11236TIP3   OH255122   1.550   5.872  15.048  0.0326  0.7250  0.4237
11236TIP3    H155123   1.574   5.834  14.963 -0.6589  0.8017  0.1887
11236TIP3    H255124   1.630   5.914  15.078  1.0482 -1.5310  1.0533
11237TIP3   OH255125   5.677   1.439   4.650  0.4731 -0.0227 -0.2568
11237TIP3    H155126   5.712   1.504   4.590  0.2057  0.9663  0.6279
11237TIP3    H255127   5.670   1.485   4.734  0.5508 -1.2734  0.4596
11238TIP3   OH255128   4.727   1.551  10.455  0.3052  0.2697  0.0576
11238TIP3    H155129   4.683   1.479  10.501  0.8003  0.6633  1.1977
11238TIP3    H255130   4.715   1.627  10.513  0.2420  0.9855 -0.8730
11239TIP3   OH255131   4.522   4.475  16.453 -0.1413 -0.3963  0.2351
11239TIP3    H155132   4.600   4.441  16.409 -0.6000 -2.0480  0.6575
11239TIP3    H255133   4.525   4.436  16.540 -1.9047 -1.1751 -0.0364
11240TIP3   OH255134   4.325   1.614  13.873 -0.3417  0.6674 -0.5644
11240TIP3    H155135   4.270   1.596  13.797 -0.5995  0.3539 -0.3090
11240TIP3    H255136   4.396   1.551  13.868 -0.5621  0.3991 -0.3464
11241TIP3   OH255137   5.975   1.286  12.095 -0.7733  0.1491 -0.2602
11241TIP3    H155138   5.950   1.213  12.152 -0.2448 -0.2390 -0.5087
11241TIP3    H255139   5.897   1.305  12.044 -0.5950 -1.0519 -1.0459
11242TIP3   OH255140   0.483   0.464  12.257  0.0395  0.2161 -0.0601
11242TIP3    H155141   0.564   0.415  12.246  0.5509  1.0108  0.0474
11242TIP3    H255142   0.430   0.410  12.315  0.1720 -0.6752 -0.7429
11243TIP3   OH255143   4.179   5.658  15.628  0.0385 -0.9214 -0.6706
11243TIP3    H155144   4.134   5.591  15.577 -0.5662 -0.4811 -0.7173
11243TIP3    H255145   4.146   5.741  15.594  0.7299 -0.5956 -0.5603
11244TIP3   OH255146   3.016   2.735  15.374 -0.1322  0.2733  1.3149
11244TIP3    H155147   3.029   2.747  15.280  1.5121  0.6739  1.5664
11244TIP3    H255148   2.960   2.808  15.400  0.4966  0.9322  0.8613
11245TIP3   OH255149   6.090   0.240   5.123 -0.1265 -0.5727 -0.0910
11245TIP3    H155150   6.078   0.331   5.151 -0.1822 -0.3312 -0.8689
11245TIP3    H255151   6.033   0.190   5.181 -0.3876 -0.0706  0.0968
11246TIP3   OH255152   6.454   1.133   2.474 -0.2904  0.3973  0.5386
11246TIP3    H155153   6.389   1.156   2.408 -2.0725 -0.7782  1.7929
11246TIP3    H255154   6.482   1.044   2.450  2.0852  1.4510 -0.8741
11247TIP3   OH255155   6.329   4.746   4.106  0.1058 -0.2893  0.2346
11247TIP3    H155156   6.335   4.732   4.200  0.5486 -2.2300 -0.0345
11247TIP3    H255157   6.349   4.839   4.094 -4.4584  1.2800  2.4172
11248TIP3   OH255158   2.322   4.163  11.435  0.0373  0.0121 -0.0311
11248TIP3    H155159   2.245   4.112  11.409  0.6553 -0.7023 -0.4711
11248TIP3    H255160   2.317   4.242  11.381  0.0359 -0.3897 -0.6239
11249TIP3   OH255161   5.866   2.245  15.737 -0.3940  0.2509  0.1341
11249TIP3    H155162   5.785   2.214  15.697 -0.3193  0.6617 -0.3448
11249TIP3    H255163   5.935   2.204  15.686 -0.2939  0.0118  0.4544
11250TIP3   OH255164   4.679   4.898  12.495 -0.3504 -0.4109 -0.0669
11250TIP3    H155165   4.763   4.902  12.541 -0.7638  2.5360  0.5764
11250TIP3    H255166   4.702   4.910  12.403 -0.0612  0.9668  0.1635
11251TIP3   OH255167   0.229   3.784   1.800  0.1090  0.0405 -0.1002
11251TIP3    H155168   0.247   3.690   1.801  0.9701  0.1714  1.9950
11251TIP3    H255169   0.308   3.823   1.762 -0.0207 -0.0349 -0.4530
11252TIP3   OH255170   0.130   6.613  16.168 -0.1869 -0.4100  0.3345
11252TIP3    H155171   0.122   6.564  16.086  1.8758  0.5970 -0.5247
11252TIP3    H255172   0.039   6.632  16.193 -0.9060 -1.8977 -0.9820
11253TIP3   OH255173   1.452   2.476   2.027 -0.2477 -0.3817 -1.0592
11253TIP3    H155174   1.426   2.511   2.112 -1.0106 -1.2897 -0.8958
11253TIP3    H255175   1.385   2.509   1.967 -1.9517 -2.7747 -0.6280
11254TIP3   OH255176   0.179   4.670  10.725  0.1812 -0.3325  0.4425
11254TIP3    H155177   0.116   4.615  10.679  0.8324 -0.2551 -0.5844
11254TIP3    H255178   0.161   4.759  10.695 -0.8548  0.0486  2.0830
11255TIP3   OH255179   5.197   3.256   3.398  0.6292 -0.3407  0.3364
11255TIP3    H155180   5.208   3.178   3.452 -0.5435 -0.0600  1.0309
11255TIP3    H255181   5.262   3.318   3.431  1.0735 -0.7740  0.2718
11256TIP3   OH255182   3.657   3.776   2.462 -0.7988  0.2512 -0.0183
11256TIP3    H155183   3.747   3.783   2.431 -0.5338  0.4305  0.7705
11256TIP3    H255184   3.612   3.727   2.393 -0.4599  1.4376 -1.1197
11257TIP3   OH255185   3.525   1.312   3.150 -0.6261  0.1627 -0.1738
11257TIP3    H155186   3.593   1.255   3.186 -0.5000 -0.1524 -0.8853
11257TIP3    H255187   3.461   1.251   3.112 -1.0379  0.4693  0.0221
11258TIP3   OH255188   4.131   5.868   0.376 -0.3035 -0.5369 -0.0082
11258TIP3    H155189   4.047   5.864   0.421  0.4286 -0.6180  1.3832
11258TIP3    H255190   4.120   5.811   0.300 -1.7307  0.0279 -0.2631
11259TIP3   OH255191   3.983   3.644  15.345  0.0422  0.2668 -0.2439
11259TIP3    H155192   3.916   3.709  15.364 -0.9110 -1.1410  1.5266
11259TIP3    H255193   4.042   3.648  15.421 -0.5117 -1.4822  0.3130
11260TIP3   OH255194   2.926   4.255  13.600  0.1972  0.4668  0.1378
11260TIP3    H155195   3.018   4.256  13.573 -0.8616  0.7700 -4.1521
11260TIP3    H255196   2.896   4.345  13.585 -0.9992  0.1647  0.6311
11261TIP3   OH255197   4.248   2.406   0.345  0.2580  0.2599  0.2569
11261TIP3    H155198   4.212   2.480   0.394  0.5726  1.9346 -1.9224
11261TIP3    H255199   4.173   2.367   0.300  0.4302  0.7410 -0.4590
11262TIP3   OH255200   3.527   3.386   2.810  0.1393  0.5373 -0.5361
11262TIP3    H155201   3.445   3.336   2.821 -0.2004  1.3070  0.4924
11262TIP3    H255202   3.500   3.464   2.762  0.5473  0.1056 -1.4971
11263TIP3   OH255203   5.914   3.308   4.427  0.2132 -0.2411 -0.4205
11263TIP3    H155204   5.965   3.375   4.472 -0.7838  0.3596 -0.1450
11263TIP3    H255205   5.973   3.272   4.361  1.3145 -0.2961  0.5715
11264TIP3   OH255206   3.230   5.266   1.723  0.1261 -0.1453 -0.3246
11264TIP3    H155207   3.162   5.290   1.660 -1.2047 -0.0621  1.0855
11264TIP3    H255208   3.182   5.237   1.801  1.6105  2.3084  1.6907
11265TIP3   OH255209   6.133   1.909  14.018 -0.3584 -0.3608 -0.2077
11265TIP3    H155210   6.191   1.905  13.943 -0.1849 -0.3023 -0.0773
11265TIP3    H255211   6.067   1.974  13.994  0.1849  0.2956  0.0313
11266TIP3   OH255212   5.030   1.931   3.911  0.4474 -0.2603  0.1601
11266TIP3    H155213   5.089   1.979   3.853 -0.6435 -1.0097 -1.6504
11266TIP3    H255214   5.086   1.904   3.984  2.3376 -0.8098 -1.3998
11267TIP3   OH255215   2.366   0.797  12.405 -0.1784  0.5400  0.0308
11267TIP3    H155216   2.298   0.759  12.460  0.4052  1.7506  1.6842
11267TIP3    H255217   2.447   0.784  12.454  0.2657  2.3014 -0.1392
11268TIP3   OH255218   4.187   2.767  16.752 -0.5569  0.3852 -0.0272
11268TIP3    H155219   4.281   2.769  16.733 -0.6824  0.6064 -0.6608
11268TIP3    H255220   4.146   2.754  16.667 -1.1163  0.6833  0.1931
11269TIP3   OH255221   2.564   6.059   4.453  0.1142 -0.5236 -0.1774
11269TIP3    H155222   2.614   6.140   4.440  0.2275 -0.8040 -1.6747
11269TIP3    H255223   2.548   6.027   4.364 -2.9191 -0.3429  0.2042
11270TIP3   OH255224   1.466   4.439  16.327 -0.4799  0.0283 -0.3597
11270TIP3    H155225   1.394   4.479  16.376 -0.7684  0.1355 -0.8605
11270TIP3    H255226   1.514   4.512  16.289  0.3757 -0.0008  0.6104
11271TIP3   OH255227   4.596   3.694  14.832 -0.4782 -0.8327  0.4325
11271TIP3    H155228   4.506   3.719  14.812 -0.0252  0.4671 -0.0370
11271TIP3    H255229   4.639   3.688  14.747  0.2401 -0.0028  0.7252
11272TIP3   OH255230   0.584   2.640  13.879 -0.6068 -0.2884  0.0905
11272TIP3    H155231   0.521   2.572  13.856  0.4700 -0.9419 -1.0788
11272TIP3    H255232   0.531   2.710  13.917 -1.8173 -1.5127  0.7506
11273TIP3   OH255233   5.393   4.195   2.829 -0.2235 -0.1441 -0.4132
11273TIP3    H155234   5.462   4.248   2.869 -1.8325  1.2971  0.6101
11273TIP3    H255235   5.342   4.162   2.903 -0.5945 -1.2671 -1.1380
11274TIP3   OH255236   5.002   0.411  15.859  0.3381 -0.2961  0.2329
11274TIP3    H155237   5.040   0.390  15.943 -0.1556 -2.1282  0.0306
11274TIP3    H255238   5.048   0.356  15.796 -1.1591 -1.0221 -0.2938
11275TIP3   OH255239   0.427   5.587   1.523 -0.3892 -0.5562  0.1733
11275TIP3    H155240   0.503   5.576   1.466 -0.7222  0.7630 -0.5761
11275TIP3    H255241   0.357   5.617   1.464 -0.5539  1.5413  1.3353
11276TIP3   OH255242   1.253   3.326   0.092  0.1450 -0.3233  0.3748
11276TIP3    H155243   1.285   3.383   0.163  1.2711 -1.7082  1.0407
11276TIP3    H255244   1.160   3.314   0.111  0.1019  0.5240  0.7508
11277TIP3   OH255245   6.761   5.383  13.535  0.3127 -0.2010 -0.1199
11277TIP3    H155246   6.800   5.296  13.543  0.8101  0.1574  2.1096
11277TIP3    H255247   6.835   5.443  13.532 -0.0060  0.2713  0.8399
11278TIP3   OH255248   1.332   2.065  13.822 -0.1207 -0.2418 -0.1290
11278TIP3    H155249   1.264   2.128  13.797  0.4442 -0.0874 -1.3460
11278TIP3    H255250   1.392   2.115  13.877 -0.5327 -0.1456  0.2335
11279TIP3   OH255251   0.558   2.069  16.817  0.0535  0.2587  0.2979
11279TIP3    H155252   0.625   2.039  16.756 -0.2354  2.5686 -1.2526
11279TIP3    H255253   0.606   2.081  16.900  0.9297 -0.7495 -0.0337
11280TIP3   OH255254   4.129   2.603   2.762  0.1991  0.5088 -0.0381
11280TIP3    H155255   4.080   2.548   2.823 -0.1468 -0.7114 -1.3516
11280TIP3    H255256   4.200   2.639   2.814  0.8091 -1.7025  0.7742
11281TIP3   OH255257   0.425   0.426   6.401  0.1654  0.0205 -0.2963
11281TIP3    H155258   0.508   0.447   6.443  1.2100  2.1145 -3.1005
11281TIP3    H255259   0.365   0.496   6.429 -0.2221 -0.5810  0.4323
11282TIP3   OH255260   4.493   4.298   6.104 -0.2285  0.4386  0.1232
11282TIP3    H155261   4.447   4.350   6.038 -0.5694 -0.0377 -0.0207
11282TIP3    H255262   4.427   4.281   6.172  0.8605  3.5335  2.1865
11283TIP3   OH255263   4.974   4.734   0.214 -0.2231  0.5133  0.1813
11283TIP3    H155264   5.034   4.666   0.245 -0.6029  0.1509  0.1249
11283TIP3    H255265   5.029   4.791   0.160 -0.4249 -1.3018 -2.1105
11284TIP3   OH255266   2.171   2.254  14.707 -0.5249  0.1077 -0.8145
11284TIP3    H155267   2.135   2.313  14.641 -1.6936  0.4040  0.0592
11284TIP3    H255268   2.262   2.283  14.717 -1.2277  2.2475  0.0657
11285TIP3   OH255269   5.537   0.716   1.316  0.1123  0.7346 -0.3591
11285TIP3    H155270   5.465   0.653   1.312 -1.6234  2.6093 -0.5600
11285TIP3    H255271   5.602   0.682   1.255 -0.1162 -1.5382  0.5508
11286TIP3   OH255272   4.315   6.023   0.222  0.0652  0.2898 -0.1099
11286TIP3    H155273   4.275   5.983   0.299  0.9532  0.5571  0.4984
11286TIP3    H255274   4.271   5.981   0.148 -0.6757 -0.0948  0.5330
11287TIP3   OH255275   0.221   5.504  15.323 -0.1901 -0.3285  0.0188
11287TIP3    H155276   0.200   5.583  15.272  0.9143 -0.3255 -0.4449
11287TIP3    H255277   0.224   5.535  15.413 -1.6404 -0.2311  0.0667
11288TIP3   OH255278   1.800   0.999  12.039  0.4725 -0.8356 -0.1977
11288TIP3    H155279   1.849   0.923  12.070  1.8384  0.4699  0.9782
11288TIP3    H255280   1.770   1.043  12.119  1.0006  0.6665 -0.7922
11289TIP3   OH255281   4.027   1.854   1.484  0.3347 -0.0468 -0.3404
11289TIP3    H155282   4.116   1.833   1.458 -0.0021  0.1223 -1.6840
11289TIP3    H255283   4.033   1.871   1.578  1.8325  0.6383 -0.5343
11290TIP3   OH255284   6.028   4.882  11.403  0.5075 -0.0346 -0.2856
11290TIP3    H155285   6.078   4.821  11.457  0.9931  2.8765  2.9124
11290TIP3    H255286   6.090   4.912  11.336  1.1663 -0.8176 -0.0391
11291TIP3   OH255287   5.108   2.240   6.027  0.3558  0.2045 -0.3283
11291TIP3    H155288   5.104   2.237   6.123  1.1824  0.7078 -0.2650
11291TIP3    H255289   5.165   2.314   6.008  0.8718 -0.3938 -1.1883
11292TIP3   OH255290   4.892   5.764  14.001  0.3817  0.7806  0.1430
11292TIP3    H155291   4.915   5.848  13.961 -0.8104  1.8044  1.5133
11292TIP3    H255292   4.891   5.781  14.095 -0.0637 -0.7411  0.4459
11293TIP3   OH255293   4.665   6.028  16.297 -0.4928 -0.1929 -0.0592
11293TIP3    H155294   4.753   6.013  16.263 -0.5928  0.5879 -0.7098
11293TIP3    H255295   4.607   6.001  16.226 -0.7484  0.0696  0.0452
11294TIP3   OH255296   0.381   5.223   5.569  0.0412  0.0585 -0.5347
11294TIP3    H155297   0.322   5.149   5.558  0.5445 -0.3000 -0.8439
11294TIP3    H255298   0.468   5.184   5.580  0.0916  0.5219  1.0177
11295TIP3   OH255299   6.117   3.267   4.274  0.6334  0.4684 -0.1759
11295TIP3    H155300   6.111   3.357   4.243  1.9594  0.1163 -1.5710
11295TIP3    H255301   6.185   3.227   4.220  0.0397 -1.3937  0.3677
11296TIP3   OH255302   4.844   4.271  11.157 -0.1188  0.5051 -0.4574
11296TIP3    H155303   4.756   4.249  11.126  0.6819 -1.8294 -1.3266
11296TIP3    H255304   4.853   4.365  11.140 -2.3648  0.7650 -0.4788
11297TIP3   OH255305   4.300   4.878  14.221 -0.2320 -0.5923 -0.1157
11297TIP3    H155306   4.344   4.938  14.162 -1.6348 -0.4688 -1.0943
11297TIP3    H255307   4.369   4.819  14.252  0.4473 -1.0961 -2.4153
11298TIP3   OH255308   4.813   4.450  14.612  0.3590  0.0736 -0.0021
11298TIP3    H155309   4.794   4.408  14.528 -1.0685 -0.4036  0.5255
11298TIP3    H255310   4.752   4.524  14.616  2.1636  1.6455 -0.4772
11299TIP3   OH255311   3.131   4.798  11.293  0.6984 -0.0960 -0.9013
11299TIP3    H155312   3.199   4.833  11.236  0.4139 -0.9727 -1.8064
11299TIP3    H255313   3.094   4.725  11.244  0.6991 -1.1229  0.5724
11300TIP3   OH255314   2.645   3.346  16.712 -0.0599 -0.3463  0.3656
11300TIP3    H155315   2.627   3.294  16.791 -1.3298 -0.6702 -0.1082
11300TIP3    H255316   2.618   3.290  16.640  0.7874  0.0801 -0.2962
11301TIP3   OH255317   3.083   4.939   0.756  0.1335 -0.4497 -0.5898
11301TIP3    H155318   3.161   4.924   0.808  1.2626  1.3799 -1.6471
11301TIP3    H255319   3.114   4.938   0.665 -0.5327  2.6869 -0.9732
11302TIP3   OH255320   3.584   0.110   3.843 -0.3156  0.3315  0.4674
11302TIP3    H155321   3.671   0.108   3.803  0.1826 -1.5988  1.4930
11302TIP3    H255322   3.579   0.196   3.885  0.9375  0.6368  0.0312
11303TIP3   OH255323   1.068   1.689  11.026 -0.6967 -0.1957  0.8774
11303TIP3    H155324   1.140   1.680  10.964 -1.0642  1.9582  0.0640
11303TIP3    H255325   0.993   1.651  10.980 -1.0603  1.7397 -0.2803
11304TIP3   OH255326   6.138   6.121  11.729  0.2484 -0.4845  0.4297
11304TIP3    H155327   6.145   6.168  11.812  0.2483 -0.9850  0.7133
11304TIP3    H255328   6.055   6.150  11.692  1.2713  1.4844 -0.4854
11305TIP3   OH255329   1.667   4.824  14.788 -0.6187  0.5385  0.0341
11305TIP3    H155330   1.611   4.895  14.757 -1.4483 -0.0406  0.1626
11305TIP3    H255331   1.730   4.810  14.717 -1.0134  0.8053 -0.3734
11306TIP3   OH255332   6.650   3.338   3.951  0.2118 -0.3010 -0.1438
11306TIP3    H155333   6.614   3.249   3.941 -0.4219 -0.0366 -0.3204
11306TIP3    H255334   6.587   3.383   4.008  0.5123  0.0437 -0.0816
11307TIP3   OH255335   2.338   0.298  15.452 -0.2567 -0.3402 -0.5383
11307TIP3    H155336   2.352   0.229  15.517  0.3429  0.1281 -0.1693
11307TIP3    H255337   2.255   0.339  15.479  0.8114  0.9555  0.9505
11308TIP3   OH255338   0.825   1.032  13.787  0.2874 -0.7144 -0.0170
11308TIP3    H155339   0.872   1.020  13.870 -2.3484 -0.1408  1.6696
11308TIP3    H255340   0.810   0.943  13.755  0.6801 -0.9655  0.4846
11309TIP3   OH255341   6.631   1.552  13.395 -0.5712 -0.1297 -0.3729
11309TIP3    H155342   6.578   1.624  13.359 -0.0849  0.3954 -0.0616
11309TIP3    H255343   6.604   1.545  13.486 -1.1704 -0.8682 -0.6023
11310TIP3   OH255344   3.680   5.013  11.712  0.0100 -0.0693  0.3723
11310TIP3    H155345   3.756   5.012  11.770  0.5838  2.6016 -0.1915
11310TIP3    H255346   3.713   4.981  11.628  0.3037  0.2283  0.3725
11311TIP3   OH255347   1.531   2.719  16.272  0.9585 -0.1796  0.3117
11311TIP3    H155348   1.589   2.644  16.284  1.6380 -0.0202 -1.7311
11311TIP3    H255349   1.578   2.777  16.212  0.4403  1.9057  1.7881
11312TIP3   OH255350   2.143   5.806  15.598 -0.7525 -0.0729  0.0133
11312TIP3    H155351   2.116   5.875  15.658 -1.6701 -0.5881  0.2063
11312TIP3    H255352   2.062   5.781  15.552 -0.0454  0.4964 -1.6393
11313TIP3   OH255353   4.903   0.160  16.117 -0.6976  0.0482 -0.7426
11313TIP3    H155354   4.857   0.239  16.089  0.3537  1.2101  0.6783
11313TIP3    H255355   4.989   0.165  16.076  0.0616  0.6551  0.8485
11314TIP3   OH255356   1.827   6.553  16.795 -0.0515 -0.0183 -0.3514
11314TIP3    H155357   1.849   6.610  16.868  0.0300  0.3588 -0.6652
11314TIP3    H255358   1.873   6.471  16.813 -1.4353 -0.5581  0.9196
11315TIP3   OH255359   4.264   5.060   0.688 -0.3683  0.1004  0.1668
11315TIP3    H155360   4.241   5.043   0.779  1.5092 -0.6266  0.5425
11315TIP3    H255361   4.283   5.153   0.684  2.9223 -0.3876  1.4040
11316TIP3   OH255362   5.840   0.551   6.041  0.2506 -0.5191  0.6079
11316TIP3    H155363   5.916   0.561   6.098 -0.3859 -0.1704  1.4164
11316TIP3    H255364   5.780   0.620   6.069 -0.1332 -0.4252 -0.4043
11317TIP3   OH255365   6.358   3.025  15.408 -0.4245  0.0037 -0.3984
11317TIP3    H155366   6.389   3.053  15.322  1.8668  0.6313  0.5590
11317TIP3    H255367   6.416   2.952  15.432 -2.9082 -2.1772 -0.5619
11318TIP3   OH255368   4.360   3.996   4.955 -0.2277 -0.3755 -0.6434
11318TIP3    H155369   4.424   3.998   4.885  1.1921 -1.7033  0.5381
11318TIP3    H255370   4.330   4.087   4.963  2.5916  0.6399 -0.3289
11319TIP3   OH255371   6.727   2.342   2.569 -0.0698  0.1268  0.2250
11319TIP3    H155372   6.743   2.249   2.589 -0.3013  0.1876  0.7100
11319TIP3    H255373   6.633   2.347   2.555 -0.4066  0.6792  2.3988
11320TIP3   OH255374   4.642   0.415   4.512 -0.0341  0.1016 -0.3370
11320TIP3    H155375   4.576   0.423   4.580  0.5554 -0.2012  0.2880
11320TIP3    H255376   4.611   0.472   4.442  0.0011  1.4742  0.7075
11321TIP3   OH255377   4.277   4.141   3.167  0.0106  0.1548 -0.4881
11321TIP3    H155378   4.326   4.211   3.123  1.0004 -0.1807  0.0509
11321TIP3    H255379   4.263   4.076   3.099  0.1179  0.3556 -0.7068
11322TIP3   OH255380   0.100   3.175  15.668  0.6096  0.4082 -0.2811
11322TIP3    H155381   0.127   3.116  15.738 -1.4098  1.1536  1.2666
11322TIP3    H255382   0.022   3.134  15.630  0.0876  1.3064 -0.2241
11323TIP3   OH255383   3.046   3.023  11.400 -0.3448  0.1048 -0.0429
11323TIP3    H155384   2.966   2.972  11.410  0.5997 -1.5407 -0.3657
11323TIP3    H255385   3.031   3.102  11.451 -1.1960 -1.3455  2.0942
11324TIP3   OH255386   5.778   2.444  15.158  0.3093 -0.3529 -0.8338
11324TIP3    H155387   5.834   2.370  15.137 -0.2370 -0.9490 -0.2212
11324TIP3    H255388   5.703   2.435  15.099  0.7143  0.2984 -1.4716
11325TIP3   OH255389   5.062   6.342  14.207 -0.0328 -0.6580  0.2468
11325TIP3    H155390   5.089   6.419  14.157 -0.5407  0.0245  0.9894
11325TIP3    H255391   5.051   6.273  14.141 -3.4947  0.9261 -1.0501
11326TIP3   OH255392   3.339   0.625   3.876  0.4199  0.1978  0.0333
11326TIP3    H155393   3.260   0.674   3.850 -0.2232 -1.1355 -0.6051
11326TIP3    H255394   3.411   0.686   3.858 -0.4383  1.4476  0.6349
11327TIP3   OH255395   1.085   5.817   3.244  0.1583  0.4081 -0.1900
11327TIP3    H155396   1.174   5.824   3.280  0.1289  0.2131 -0.0807
11327TIP3    H255397   1.049   5.905   3.254  0.1108  0.3264  0.3639
11328TIP3   OH255398   5.152   6.753  13.620  0.0066  0.2689 -0.6696
11328TIP3    H155399   5.078   6.757  13.559 -0.5554  2.3298  0.1000
11328TIP3    H255400   5.134   6.819  13.686  2.2759  0.4538 -0.1344
11329TIP3   OH255401   1.060   0.438   3.337  0.5927  0.3161  0.1697
11329TIP3    H155402   1.092   0.468   3.252  1.5697  1.4590  0.9062
11329TIP3    H255403   0.982   0.386   3.317  1.2139 -0.0243 -1.4572
11330TIP3   OH255404   0.460   1.150  11.271 -0.2161 -0.0826  0.1034
11330TIP3    H155405   0.485   1.077  11.215 -1.2068  0.7348 -1.5082
11330TIP3    H255406   0.519   1.221  11.245 -0.7296  0.3279  0.0426
11331TIP3   OH255407   4.783   6.362  13.982 -0.0590  0.1466  0.1434
11331TIP3    H155408   4.800   6.422  13.909 -0.4210 -0.5848 -0.5562
11331TIP3    H255409   4.702   6.395  14.021  1.1929  1.7470  1.5035
11332TIP3   OH255410   4.970   4.881   6.253 -0.2034 -0.1818  0.1483
11332TIP3    H155411   4.879   4.853   6.246 -0.1874 -0.5809  1.2710
11332TIP3    H255412   4.985   4.889   6.347  0.0072  2.9548 -0.0704
11333TIP3   OH255413   1.817   3.373   2.208 -0.5338 -0.3644  0.1695
11333TIP3    H155414   1.862   3.446   2.165 -1.5348 -1.1927 -2.5271
11333TIP3    H255415   1.742   3.413   2.252  1.0984  0.6485  2.1917
11334TIP3   OH255416   5.539   1.754  12.059 -0.0088  0.1920  0.0467
11334TIP3    H155417   5.534   1.787  11.969 -0.9527  0.0633  0.0437
11334TIP3    H255418   5.611   1.803  12.098 -0.0256  0.7321 -0.5811
11335TIP3   OH255419   0.949   2.149   4.908  0.6375 -0.0560 -0.1296
11335TIP3    H155420   0.863   2.107   4.916  0.9717 -0.6186  0.6980
11335TIP3    H255421   1.011   2.081   4.934  1.1282  1.2681  2.5789
11336TIP3   OH255422   0.167   4.491   6.685  0.4952  0.0221 -0.2590
11336TIP3    H155423   0.108   4.422   6.713 -0.5191  1.3361  1.0447
11336TIP3    H255424   0.228   4.502   6.758 -0.0377  1.1983  0.0416
11337TIP3   OH255425   0.055   0.651  14.379 -0.4608 -0.1927  0.1917
11337TIP3    H155426   0.111   0.674  14.304  2.2087 -0.0366  2.0895
11337TIP3    H255427   0.058   0.556  14.383  0.8391 -0.1455  1.0395
11338TIP3   OH255428   0.234   4.752   1.014 -0.6353  0.1464 -0.1931
11338TIP3    H155429   0.204   4.742   0.924 -0.5608  0.7287 -0.2899
11338TIP3    H255430   0.287   4.674   1.031  0.8013  0.8355 -1.2528
11339TIP3   OH255431   4.705   4.914  14.096  0.2889 -0.2458  0.0433
11339TIP3    H155432   4.712   4.988  14.156  1.4575 -0.0241 -0.3346
11339TIP3    H255433   4.795   4.881  14.088  0.2295 -0.1089 -1.7518
11340TIP3   OH255434   5.150   5.252   3.844  0.5667  0.1809  0.2217
11340TIP3    H155435   5.235   5.228   3.881 -0.5730 -2.4063  1.3893
11340TIP3    H255436   5.172   5.300   3.764  3.1304 -1.0340  0.0786
11341TIP3   OH255437   6.254   0.656   2.940  0.1352  0.1437  0.4799
11341TIP3    H155438   6.317   0.607   2.886  1.4585  0.5466  1.5890
11341TIP3    H255439   6.308   0.718   2.989 -1.4068  2.2950 -0.3721
11342TIP3   OH255440   1.708   6.019   2.507  0.0664  0.2405 -0.2560
11342TIP3    H155441   1.799   6.047   2.505 -0.0099  0.4814 -1.6518
11342TIP3    H255442   1.665   6.081   2.567  1.0795 -0.8353  1.6730
11343TIP3   OH255443   1.217   4.368  12.450 -0.0879  0.3452 -0.2392
11343TIP3    H155444   1.216   4.459  12.479  0.8015  0.8748 -1.7834
11343TIP3    H255445   1.147   4.363  12.385  0.2131  0.0505 -0.5376
11344TIP3   OH255446   5.522   3.382   5.794  0.5352  0.0225 -0.1060
11344TIP3    H155447   5.493   3.338   5.874 -0.5264 -0.8130 -0.9342
11344TIP3    H255448   5.601   3.430   5.821  1.0508 -1.4186  1.0967
11345TIP3   OH255449   6.203   1.113  12.728  0.0762  0.2216  0.0641
11345TIP3    H155450   6.208   1.208  12.731 -0.7643  0.3331 -1.3955
11345TIP3    H255451   6.117   1.093  12.767  0.2629  0.0488  0.3940
11346TIP3   OH255452   0.275   2.991   1.051  0.0530 -0.1858 -0.6225
11346TIP3    H155453   0.195   3.044   1.052  1.7460  2.6262  0.3953
11346TIP3    H255454   0.299   2.985   0.958 -0.1296  1.0158 -0.7678
11347TIP3   OH255455   1.815   3.102   2.242  0.6842 -0.1450 -0.1321
11347TIP3    H155456   1.746   3.061   2.190  3.1527 -2.7569 -1.6650
11347TIP3    H255457   1.799   3.196   2.235 -1.4578 -0.5816 -2.2060
11348TIP3   OH255458   4.896   1.353   3.386  0.0017 -0.3153 -0.0047
11348TIP3    H155459   4.990   1.346   3.402  0.2291  4.1588  2.3875
11348TIP3    H255460   4.861   1.388   3.468 -3.2662  0.8464 -1.7245
11349TIP3   OH255461   0.847   5.933   5.079 -0.6879 -0.5081  0.2606
11349TIP3    H155462   0.938   5.909   5.095 -0.4757 -0.2940 -0.5677
11349TIP3    H255463   0.802   5.849   5.068 -0.5968 -0.6154  0.6948
11350TIP3   OH255464   3.267   0.054   4.809  0.2592 -0.3313  0.1844
11350TIP3    H155465   3.201   0.018   4.750  0.0110 -1.7878  1.2953
11350TIP3    H255466   3.238   0.144   4.825  0.4920  0.2161 -2.0835
11351TIP3   OH255467   1.172   5.674   3.867  0.0004  0.1293  0.2425
11351TIP3    H155468   1.147   5.695   3.777 -1.8456  0.6267  0.8390
11351TIP3    H255469   1.186   5.759   3.909 -0.4690 -0.0497  0.7734
11352TIP3   OH255470   1.892   5.380  12.227  0.1895 -0.1388  0.0595
11352TIP3    H155471   1.954   5.323  12.273 -0.9278 -1.0379  0.5037
11352TIP3    H255472   1.820   5.393  12.289  0.1510  1.3307 -0.2365
11353TIP3   OH255473   2.081   0.219  11.579 -0.6762  0.4219  0.2513
11353TIP3    H155474   2.163   0.212  11.530 -0.6390 -0.1807  0.3852
11353TIP3    H255475   2.044   0.304  11.554 -0.0744  0.6386  0.0947
11354TIP3   OH255476   1.566   0.128  12.080  0.2705  0.2757 -0.3172
11354TIP3    H155477   1.503   0.154  12.147  2.4152  0.7317  1.6342
11354TIP3    H255478   1.644   0.104  12.128  1.5616 -0.4821 -2.6316
11355TIP3   OH255479   5.853   1.375   2.388  0.1731  0.0832  0.2601
11355TIP3    H155480   5.802   1.407   2.313  0.0556 -0.5298  0.0734
11355TIP3    H255481   5.944   1.379   2.358  0.0492 -1.4568 -0.4457
11356TIP3   OH255482   3.689   2.882  16.698  0.2991 -0.0242 -0.2219
11356TIP3    H155483   3.717   2.963  16.741  1.0858 -1.3022  1.8559
11356TIP3    H255484   3.743   2.876  16.620 -0.8035  2.1513 -1.2303
11357TIP3   OH255485   6.307   4.418  16.493 -0.4863  0.3800  0.1706
11357TIP3    H155486   6.376   4.352  16.501  0.1835  1.1194  0.7188
11357TIP3    H255487   6.281   4.415  16.401  0.1797 -0.0212 -0.0107
11358TIP3   OH255488   5.524   0.412   2.325  0.2359  0.4333 -0.2123
11358TIP3    H155489   5.488   0.327   2.352 -0.6024  0.9993  0.4982
11358TIP3    H255490   5.471   0.437   2.249 -0.7238  1.1425  0.6707
11359TIP3   OH255491   4.272   5.368   4.220 -0.1033  0.3018 -0.4595
11359TIP3    H155492   4.341   5.365   4.285 -0.2259 -1.0097 -0.3648
11359TIP3    H255493   4.312   5.333   4.140 -0.4017  0.3959 -0.6531
11360TIP3   OH255494   4.821   2.104  16.712  0.5228  0.3199  0.3281
11360TIP3    H155495   4.835   2.199  16.708  0.3037  0.4001  1.2414
11360TIP3    H255496   4.833   2.082  16.804 -0.0581 -0.4419  0.2323
11361TIP3   OH255497   3.437   2.706  14.518  0.4112  0.5080 -0.1406
11361TIP3    H155498   3.440   2.688  14.424  1.6401 -2.2667  0.3522
11361TIP3    H255499   3.505   2.651  14.556  0.6227  2.2843  2.3207
11362TIP3   OH255500   0.699   0.215  13.669  0.1509 -0.2398  0.3085
11362TIP3    H155501   0.653   0.212  13.753 -0.4407 -0.9223 -0.0303
11362TIP3    H255502   0.635   0.253  13.608  0.3219 -0.4331  0.0081
11363TIP3   OH255503   6.063   3.892   1.201 -0.6213  0.2832 -0.0043
11363TIP3    H155504   5.970   3.876   1.182 -0.8484  0.8173  0.6138
11363TIP3    H255505   6.082   3.836   1.275  0.1919 -1.5961 -1.5489
11364TIP3   OH255506   3.401   1.253  12.716 -0.0775 -0.4951 -0.0562
11364TIP3    H155507   3.397   1.220  12.626 -1.4637 -1.3587  0.2885
11364TIP3    H255508   3.364   1.341  12.712  0.5564 -0.2404 -0.4398
11365TIP3   OH255509   6.291   2.928  13.713  0.3692 -0.1652 -0.0549
11365TIP3    H155510   6.341   2.951  13.791  0.8579 -0.6162 -0.2285
11365TIP3    H255511   6.280   3.011  13.666 -1.2012  0.3895  1.1955
11366TIP3   OH255512   1.827   4.612  15.891  0.6956  0.4197 -0.1462
11366TIP3    H155513   1.805   4.618  15.797 -0.7176  1.7832  0.2347
11366TIP3    H255514   1.769   4.544  15.924 -0.4166  1.4786  0.1435
11367TIP3   OH255515   6.358   4.287   1.787 -0.1777 -0.2086  0.4199
11367TIP3    H155516   6.365   4.381   1.770 -2.2252 -0.3028 -1.4521
11367TIP3    H255517   6.387   4.246   1.705  0.9375 -1.2408  1.3050
11368TIP3   OH255518   5.947   6.020  13.739  0.7558 -0.2490  0.5244
11368TIP3    H155519   5.885   5.948  13.748  0.3928  0.0980  0.8323
11368TIP3    H255520   5.897   6.089  13.694  0.0527  1.0284  3.0758
11369TIP3   OH255521   0.514   2.417  12.288 -0.2195  0.6750  0.3421
11369TIP3    H155522   0.427   2.388  12.259  0.0656 -0.9455  1.0121
11369TIP3    H255523   0.541   2.352  12.353  1.5229  1.1181  0.1179
11370TIP3   OH255524   2.195   3.293  12.352  0.0451 -0.0728  0.4333
11370TIP3    H155525   2.266   3.333  12.401  1.0373 -2.3184  0.9464
11370TIP3    H255526   2.158   3.228  12.411 -2.6634  1.1754  0.2748
11371TIP3   OH255527   0.994   4.679  16.020  0.0415  0.1766  0.1041
11371TIP3    H155528   0.961   4.590  16.020  0.0813  0.1088 -1.9854
11371TIP3    H255529   1.027   4.693  16.109 -0.6786 -1.5944  0.6887
11372TIP3   OH255530   1.197   3.666  15.077  0.1100 -0.4173 -0.2604
11372TIP3    H155531   1.142   3.689  15.002  0.6145  1.3937 -0.1404
11372TIP3    H255532   1.281   3.641  15.039 -0.2493 -1.5072 -0.3664
11373TIP3   OH255533   6.460   4.723   4.826  0.0486 -0.0001 -0.0967
11373TIP3    H155534   6.397   4.694   4.892 -0.5935  0.4446 -0.4967
11373TIP3    H255535   6.538   4.670   4.842 -1.4352 -2.9139 -1.5213
11374TIP3   OH255536   1.706   1.836  11.510  0.0341  0.6221 -0.1300
11374TIP3    H155537   1.792   1.860  11.543  0.2370 -0.5791  0.2381
11374TIP3    H255538   1.720   1.817  11.417  0.2378  0.1035  0.0044
11375TIP3   OH255539   5.534   5.350   4.776 -0.1133 -0.9395 -0.5864
11375TIP3    H155540   5.521   5.413   4.847 -0.0073 -0.4783 -0.9683
11375TIP3    H255541   5.493   5.270   4.807  0.6213 -0.9786  0.3283
11376TIP3   OH255542   2.924   2.890   3.239 -0.1873 -0.1459 -0.7611
11376TIP3    H155543   2.882   2.901   3.154  1.5856  0.0055 -1.6777
11376TIP3    H255544   2.911   2.797   3.260 -0.5013 -0.2185 -1.2634
11377TIP3   OH255545   3.968   2.739  16.126  0.3319 -0.1790  0.2306
11377TIP3    H155546   3.888   2.782  16.154 -1.1565 -2.3720 -0.3863
11377TIP3    H255547   4.004   2.796  16.058  0.8902  2.2502  2.4017
11378TIP3   OH255548   0.876   0.231   0.588 -0.4001  0.5743 -0.5905
11378TIP3    H155549   0.969   0.243   0.607 -0.3137 -1.5257  0.6737
11378TIP3    H255550   0.874   0.184   0.505 -0.2687 -0.2502 -0.1351
11379TIP3   OH255551   3.390   1.266  11.891  0.1033  0.5034 -0.4714
11379TIP3    H155552   3.369   1.344  11.942  2.4543  0.6864  0.3381
11379TIP3    H255553   3.312   1.211  11.898 -1.1199  2.2151 -0.0050
11380TIP3   OH255554   5.694   5.252  17.131 -0.6255 -0.3076 -0.1073
11380TIP3    H155555   5.759   5.181  17.131 -0.2145  0.0215  1.7075
11380TIP3    H255556   5.680   5.271  17.038  2.1447 -0.1651 -0.5853
11381TIP3   OH255557   3.930   3.435   4.566 -0.3489  0.6424 -0.1751
11381TIP3    H155558   3.976   3.434   4.650  1.6722  1.5145 -1.2093
11381TIP3    H255559   3.965   3.360   4.519 -1.9162 -0.2003 -0.0626
11382TIP3   OH255560   6.016   3.332   0.615  0.1208 -0.2655 -0.0613
11382TIP3    H155561   6.086   3.355   0.676  0.8198 -0.0676 -0.9050
11382TIP3    H255562   5.994   3.415   0.573 -0.4989 -0.3631  0.0707
11383TIP3   OH255563   0.194   5.601  12.138  0.1381 -0.2571 -0.2256
11383TIP3    H155564   0.214   5.676  12.193  0.3935  0.2029 -0.9249
11383TIP3    H255565   0.127   5.633  12.077  0.3525 -0.5465 -0.6221
11384TIP3   OH255566   0.067   6.122  12.632 -0.2105  0.1957 -0.1980
11384TIP3    H155567   0.107   6.184  12.571  1.0834  1.3592  1.7693
11384TIP3    H255568  -0.019   6.159  12.651 -0.3866  0.1255 -0.8086
11385TIP3   OH255569   5.311   5.785   4.911  0.3240  0.4148  0.7506
11385TIP3    H155570   5.244   5.833   4.861 -0.0258 -0.3923  0.4180
11385TIP3    H255571   5.286   5.796   5.002  0.3835  1.0569  0.6932
11386TIP3   OH255572   4.155   1.636  16.103  0.2172  0.2267 -0.1753
11386TIP3    H155573   4.247   1.613  16.114  0.8236  2.0706 -1.0179
11386TIP3    H255574   4.146   1.722  16.144 -1.2289 -0.0661  0.1845
11387TIP3   OH255575   6.228   3.193   1.196 -0.4860 -0.4992  0.4734
11387TIP3    H155576   6.266   3.133   1.132 -1.7005 -1.4061  0.5727
11387TIP3    H255577   6.197   3.267   1.144  0.4581 -0.2240  0.2794
11388TIP3   OH255578   5.882   2.324   2.408  0.2802  0.5826 -0.5488
11388TIP3    H155579   5.922   2.406   2.437 -0.6751  0.6259  0.7114
11388TIP3    H255580   5.851   2.282   2.489 -2.2030  0.5554 -1.4276
11389TIP3   OH255581   6.342   4.795  15.874 -0.1440  0.6721  0.4900
11389TIP3    H155582   6.414   4.771  15.816 -0.5135  2.1349 -0.6543
11389TIP3    H255583   6.347   4.733  15.946  0.4915 -1.0687 -0.9771
11390TIP3   OH255584   1.234   0.574   4.074 -0.4244 -0.1457 -0.4554
11390TIP3    H155585   1.247   0.483   4.103 -0.3423  0.4544  1.5765
11390TIP3    H255586   1.203   0.567   3.984 -0.1405 -2.1736 -0.4371
11391TIP3   OH255587   0.959   1.250   4.733 -0.0849  0.1127  0.0269
11391TIP3    H155588   0.976   1.283   4.645  0.7779 -0.6394 -0.1117
11391TIP3    H255589   1.008   1.309   4.790  0.4999 -0.2085 -0.1250
11392TIP3   OH255590   4.988   3.170   5.533  0.1885  0.0223 -0.3039
11392TIP3    H155591   4.969   3.263   5.543  0.5256  0.1177 -0.5444
11392TIP3    H255592   4.963   3.149   5.443  1.9963  0.3467 -0.9091
11393TIP3   OH255593   1.208   4.304  16.098  0.9729 -0.2791  0.4491
11393TIP3    H155594   1.264   4.244  16.048  0.7879 -0.8690  0.9294
11393TIP3    H255595   1.245   4.390  16.082  0.4313 -0.3414 -1.3709
11394TIP3   OH255596   2.113   6.592  16.665 -0.5426 -0.0233  0.2559
11394TIP3    H155597   2.128   6.557  16.577 -1.6942  0.1369 -0.0134
11394TIP3    H255598   2.053   6.665  16.651  1.0503  1.4770  0.9166
11395TIP3   OH255599   4.124   6.437  12.813 -0.3838 -0.1401 -0.4584
11395TIP3    H155600   4.088   6.487  12.740 -1.9623  2.3698  1.8343
11395TIP3    H255601   4.185   6.376  12.773 -0.8598  1.3637 -3.7992
11396TIP3   OH255602   3.354   5.920  12.412  0.3142 -0.3577  0.2714
11396TIP3    H155603   3.421   5.892  12.475 -1.3314 -0.1648  2.2057
11396TIP3    H255604   3.344   6.014  12.429 -2.0020 -0.7801  1.6731
11397TIP3   OH255605   5.971   6.552   1.116  0.6874  0.1215  0.1046
11397TIP3    H155606   5.979   6.484   1.049 -0.8989  1.4881 -1.5610
11397TIP3    H255607   6.036   6.618   1.093 -1.1893  1.5642 -1.4141
11398TIP3   OH255608   5.108   2.126   2.146  0.0765  0.1778  0.6567
11398TIP3    H155609   5.070   2.170   2.222  0.5854  1.3072  0.2863
11398TIP3    H255610   5.034   2.085   2.102 -0.6515  1.8412  0.2592
11399TIP3   OH255611   1.441   4.998  13.527  0.3843 -0.9694 -0.2263
11399TIP3    H155612   1.430   5.022  13.435  0.7525  1.5584  0.3273
11399TIP3    H255613   1.353   4.998  13.563  0.3348 -0.9729 -0.3480
11400TIP3   OH255614   5.532   3.877  15.376 -0.6388  0.3333 -0.1565
11400TIP3    H155615   5.457   3.818  15.383 -0.2091 -0.3563 -1.1886
11400TIP3    H255616   5.545   3.888  15.282  1.0812 -0.2531 -0.0109
11401TIP3   OH255617   2.364   6.596  11.879 -0.0792  0.3122 -0.0390
11401TIP3    H155618   2.323   6.524  11.831 -1.0829  1.5046 -1.0109
11401TIP3    H255619   2.293   6.638  11.926  0.3947  1.0407  0.0500
11402TIP3   OH255620   3.377   0.588   1.094  0.1920  0.1227  0.1951
11402TIP3    H155621   3.283   0.603   1.085  0.1652  0.7920  1.3210
11402TIP3    H255622   3.418   0.654   1.039  0.0050  0.2293  0.1826
11403TIP3   OH255623   5.957   4.815   5.591  0.3105  0.5114  0.0643
11403TIP3    H155624   5.868   4.850   5.600 -0.4627 -1.1933 -0.6232
11403TIP3    H255625   6.007   4.861   5.659 -0.7347  2.5560 -0.4604
11404TIP3   OH255626   6.146   5.395   0.593 -0.3954 -0.3466  0.4878
11404TIP3    H155627   6.140   5.488   0.573 -1.1019 -0.2622  1.0485
11404TIP3    H255628   6.183   5.355   0.514  0.2272  0.4477  0.3646
11405TIP3   OH255629   6.592   3.010  13.086 -0.4396  0.3479  0.2812
11405TIP3    H155630   6.555   3.063  13.156  1.1672  1.2999  0.4584
11405TIP3    H255631   6.598   2.922  13.123 -1.2635  0.4479  0.6881
11406TIP3   OH255632   5.510   2.247  11.328  0.7486 -0.1575  0.2273
11406TIP3    H155633   5.451   2.212  11.262 -0.0893  0.7101  0.5023
11406TIP3    H255634   5.598   2.222  11.298  0.3316 -0.3378 -0.8545
11407TIP3   OH255635   2.416   2.350  14.756 -0.2929  0.5762  1.0305
11407TIP3    H155636   2.429   2.414  14.685 -0.9734  1.0420  1.3157
11407TIP3    H255637   2.465   2.386  14.830 -0.6215  0.7395  1.1712
11408TIP3   OH255638   5.417   4.062  14.317 -0.4104 -0.1823  0.1673
11408TIP3    H155639   5.469   4.143  14.314  2.0829 -1.7173 -2.1160
11408TIP3    H255640   5.424   4.032  14.408  0.6356  0.9293  0.4760
11409TIP3   OH255641   1.319   5.148   4.201 -0.5337  0.6885  0.3774
11409TIP3    H155642   1.262   5.077   4.231 -1.1052 -0.2027 -2.5142
11409TIP3    H255643   1.258   5.216   4.171  0.0089  1.7566  1.5986
11410TIP3   OH255644   6.106   4.110   2.906  0.3647  0.4120 -0.2293
11410TIP3    H155645   6.085   4.096   2.999  2.1840  1.1194  0.3162
11410TIP3    H255646   6.050   4.183   2.880 -1.4397 -0.8886 -0.2114
11411TIP3   OH255647   5.687   6.032  15.501  0.0417  0.4613 -0.3781
11411TIP3    H155648   5.625   6.072  15.439 -0.0615 -0.4744 -0.8958
11411TIP3    H255649   5.766   6.016  15.449  0.1053  0.0559 -0.1586
11412TIP3   OH255650   5.083   6.157   6.464  0.7486 -0.3117 -0.4692
11412TIP3    H155651   5.002   6.181   6.509  0.5300  1.1169 -1.5620
11412TIP3    H255652   5.146   6.142   6.535  0.2064  1.1083  0.3554
11413TIP3   OH255653   2.081   3.853   0.232  0.3070 -0.2880 -0.4569
11413TIP3    H155654   2.160   3.879   0.280  0.1749  3.4372 -1.9983
11413TIP3    H255655   2.114   3.803   0.158  0.9272 -1.2960  0.4607
11414TIP3   OH255656   2.930   2.057  14.393 -0.2295  0.3449 -0.1254
11414TIP3    H155657   2.972   2.142  14.379  0.3657  0.3769  1.5855
11414TIP3    H255658   2.947   2.008  14.312  0.3211  1.4779 -0.7191
11415TIP3   OH255659   0.673   3.373  14.773  0.2993  0.1655 -0.2918
11415TIP3    H155660   0.637   3.328  14.850 -0.4054 -1.0348 -1.2805
11415TIP3    H255661   0.682   3.304  14.707  2.8943  0.7276 -0.6533
11416TIP3   OH255662   0.649   6.016  12.944  0.0956 -0.2985  0.5390
11416TIP3    H155663   0.705   6.036  13.019 -1.0292  0.7154  1.1368
11416TIP3    H255664   0.575   5.968  12.982  0.2580 -1.1483 -0.1674
11417TIP3   OH255665   1.693   1.680   5.499  0.0993 -0.2911  0.1189
11417TIP3    H155666   1.708   1.624   5.576 -0.3866  0.8793  1.0955
11417TIP3    H255667   1.727   1.629   5.425  1.6771 -0.9495  1.2422
11418TIP3   OH255668   4.759   6.257  13.221 -0.2999  0.2387 -0.0278
11418TIP3    H155669   4.684   6.306  13.188 -0.9206 -0.6942 -0.0255
11418TIP3    H255670   4.741   6.166  13.198  0.0072 -0.2289  1.4544
11419TIP3   OH255671   1.549   5.712   5.087  0.2377 -0.8636  0.3726
11419TIP3    H155672   1.538   5.638   5.147 -2.1212 -0.2787  0.7632
11419TIP3    H255673   1.642   5.734   5.092  0.8955 -3.4129  0.6735
11420TIP3   OH255674   4.831   6.454  12.768 -0.2021 -0.3158  0.0259
11420TIP3    H155675   4.868   6.434  12.854 -0.2510 -1.6353 -0.2275
11420TIP3    H255676   4.895   6.514  12.728 -0.3370  0.5578  1.0771
11421TIP3   OH255677   5.677   5.455  12.425  0.2261  0.2771 -0.5922
11421TIP3    H155678   5.600   5.510  12.412  0.1599 -0.1806 -2.4586
11421TIP3    H255679   5.751   5.511  12.402  0.4022  0.4430  0.3352
11422TIP3   OH255680   5.817   0.691   5.689  0.0559 -0.2046 -0.0794
11422TIP3    H155681   5.730   0.720   5.660 -0.3051 -0.4340  0.7489
11422TIP3    H255682   5.844   0.758   5.751 -0.0186 -0.7183  0.5135
11423TIP3   OH255683   5.362   1.579  16.032  0.0681  0.2025 -0.7015
11423TIP3    H155684   5.423   1.586  16.105  0.1419  1.3178 -0.8611
11423TIP3    H255685   5.294   1.642  16.051 -1.1054 -1.0720 -0.4931
11424TIP3   OH255686   2.088   3.655   4.308  0.2004 -0.3183 -0.5353
11424TIP3    H155687   2.049   3.721   4.365 -0.2819 -0.8003 -0.2857
11424TIP3    H255688   2.023   3.584   4.308  1.3027 -1.3648  0.3081
11425TIP3   OH255689   5.017   3.395  11.952  0.4320 -0.6874 -0.0337
11425TIP3    H155690   4.929   3.433  11.946 -0.0873 -1.7722  0.4080
11425TIP3    H255691   5.004   3.302  11.939  1.1206 -1.2652  2.7369
11426TIP3   OH255692   1.422   6.297  13.272 -0.3055 -0.4425 -0.4062
11426TIP3    H155693   1.483   6.324  13.341 -1.8445 -1.7793  1.5818
11426TIP3    H255694   1.424   6.201  13.274 -3.3270 -0.5924  0.6226
11427TIP3   OH255695   1.147   4.823   4.030  0.1603 -0.4281  0.1021
11427TIP3    H155696   1.215   4.774   4.076  0.8225  0.1199 -0.2881
11427TIP3    H255697   1.066   4.797   4.074  0.5402 -1.5606  0.1736
11428TIP3   OH255698   0.052   3.613   2.147  0.2953  0.1987 -0.0133
11428TIP3    H155699   0.142   3.582   2.143 -0.0444 -0.8553  0.2903
11428TIP3    H255700   0.052   3.692   2.093  0.7661 -1.3590 -2.4834
11429TIP3   OH255701   1.318   4.018  11.770  0.3679 -0.3711  0.2462
11429TIP3    H155702   1.323   4.042  11.863 -0.0613  1.7960 -0.2396
11429TIP3    H255703   1.224   4.014  11.752  0.4519 -0.6483 -0.1275
11430TIP3   OH255704   6.306   4.180  14.994  0.1219 -0.5765 -0.5501
11430TIP3    H155705   6.270   4.099  15.030  0.5614 -1.3746 -1.8400
11430TIP3    H255706   6.231   4.223  14.952 -0.3779  0.3274  1.1885
11431TIP3   OH255707   0.519   6.729  11.027  0.2740 -0.0421  0.1491
11431TIP3    H155708   0.498   6.683  11.108  0.6259  0.2683  0.4198
11431TIP3    H255709   0.528   6.660  10.961 -0.1697 -0.2811  0.3380
11432TIP3   OH255710   2.910   0.295   4.026  0.1934  0.0315 -0.4399
11432TIP3    H155711   2.818   0.300   4.001 -0.2494  1.4816  1.3025
11432TIP3    H255712   2.913   0.225   4.091  0.4273 -0.3655 -0.8738
11433TIP3   OH255713   6.376   1.457   3.471  0.0973  0.1142  0.6290
11433TIP3    H155714   6.387   1.470   3.565  3.0894  1.7445  0.1639
11433TIP3    H255715   6.431   1.382   3.449  0.1165  0.2793  0.0744
11434TIP3   OH255716   3.775   0.208   2.088 -0.1597 -0.2485 -0.1921
11434TIP3    H155717   3.849   0.235   2.034 -0.0909  1.6360  0.7664
11434TIP3    H255718   3.807   0.132   2.136  0.5130 -0.5867 -1.1395
11435TIP3   OH255719   1.074   3.908  15.371  0.1775  0.2672 -0.1819
11435TIP3    H155720   1.111   3.992  15.344  1.2583 -0.5220 -1.2890
11435TIP3    H255721   1.110   3.893  15.458  0.5749  0.6044 -0.2827
11436TIP3   OH255722   0.779   6.440   4.929 -0.3544  0.1878 -0.6865
11436TIP3    H155723   0.829   6.370   4.969 -1.5727 -0.9880 -1.1463
11436TIP3    H255724   0.819   6.454   4.844 -0.6469 -0.5692 -0.9503
11437TIP3   OH255725   3.965   3.719   4.759 -0.0773 -0.2912  0.2759
11437TIP3    H155726   4.043   3.756   4.718 -0.2865 -1.9655 -1.7757
11437TIP3    H255727   3.995   3.638   4.799 -0.8740 -1.3868 -1.2738
11438TIP3   OH255728   1.354   6.150  11.378  1.0251  0.0349  0.2177
11438TIP3    H155729   1.268   6.184  11.353  0.9402 -0.7256 -0.6024
11438TIP3    H255730   1.414   6.222  11.360  0.6242  0.3881  0.2749
11439TIP3   OH255731   4.592   3.718  10.841  0.4581 -0.1330 -0.4850
11439TIP3    H155732   4.589   3.711  10.745  0.2111 -1.6301 -0.4006
11439TIP3    H255733   4.629   3.804  10.858 -1.1830  0.9099 -1.9182
11440TIP3   OH255734   5.532   3.245  12.653  0.9288  0.7140  0.3356
11440TIP3    H155735   5.586   3.206  12.584  0.3253  1.3820 -0.5406
11440TIP3    H255736   5.530   3.338  12.632  1.5762  1.0997  1.8628
11441TIP3   OH255737   0.263   4.541   5.491 -0.4799  0.9350 -0.5221
11441TIP3    H155738   0.227   4.503   5.411 -2.1769 -0.9615  1.0425
11441TIP3    H255739   0.191   4.537   5.554  1.0020  1.6989  1.3080
11442TIP3   OH255740   0.921   4.289   5.170 -0.5980  0.5967 -0.5060
11442TIP3    H155741   0.907   4.246   5.254  3.2399  0.1165  0.1098
11442TIP3    H255742   0.912   4.219   5.105 -0.4286  0.2416 -0.1496
11443TIP3   OH255743   4.250   3.083   4.494  0.3643 -0.0782 -0.3746
11443TIP3    H155744   4.272   3.089   4.401 -0.4860 -0.1183 -0.5786
11443TIP3    H255745   4.159   3.110   4.500  0.3959 -0.1128  0.4494
11444TIP3   OH255746   3.610   1.090  11.950  0.6234 -0.1183  0.4332
11444TIP3    H155747   3.568   1.050  12.026 -0.1607 -0.4716 -0.1767
11444TIP3    H255748   3.540   1.139  11.907  0.9066 -0.4326 -0.4012
11445TIP3   OH255749   0.037   1.930  15.966 -0.1972 -0.1899 -0.0107
11445TIP3    H155750   0.057   2.019  15.938 -0.4637  0.0402  0.5176
11445TIP3    H255751   0.111   1.877  15.934  0.0475  0.2496 -0.1722
11446TIP3   OH255752   2.571   3.105   3.513 -0.0150 -0.0195  0.0136
11446TIP3    H155753   2.548   3.132   3.602 -1.3253 -2.1906  0.3945
11446TIP3    H255754   2.661   3.135   3.501  0.7260 -0.9489  2.6204
11447TIP3   OH255755   3.575   2.994  11.247  0.0199 -0.2865 -0.1043
11447TIP3    H155756   3.555   3.048  11.324  0.7103  0.7170 -0.6036
11447TIP3    H255757   3.490   2.980  11.205  0.0144  2.1144 -1.0364
11448TIP3   OH255758   2.487   5.746   0.914  0.2640 -0.2668 -0.0925
11448TIP3    H155759   2.455   5.792   0.836  0.4918  0.9154  0.4860
11448TIP3    H255760   2.575   5.781   0.927  0.7942 -1.5381 -0.1401
11449TIP3   OH255761   3.071   2.590   1.674  0.4700  0.1860  0.3454
11449TIP3    H155762   3.048   2.674   1.715 -0.5459  0.3235 -0.4793
11449TIP3    H255763   3.008   2.528   1.710  0.1180  0.1337 -0.3520
11450TIP3   OH255764   5.116   6.322  15.708 -0.3448  0.1477  0.0828
11450TIP3    H155765   5.057   6.255  15.676  0.3229  0.5271 -2.0927
11450TIP3    H255766   5.194   6.274  15.738  0.1124 -0.0952 -1.4216
11451TIP3   OH255767   5.040   0.224  15.290 -0.0346  0.1119 -0.1213
11451TIP3    H155768   5.123   0.231  15.338 -0.0919 -1.5995  0.2645
11451TIP3    H255769   4.977   0.193  15.355 -0.7177  0.2678 -0.7000
11452TIP3   OH255770   4.901   1.211  15.654  0.4937  0.3858  0.3031
11452TIP3    H155771   4.871   1.271  15.722  3.1298  2.2972 -0.0880
11452TIP3    H255772   4.915   1.128  15.699 -0.7550  0.7382  1.3991
11453TIP3   OH255773   1.386   5.368  11.337  0.2508 -0.0253 -0.7368
11453TIP3    H155774   1.388   5.273  11.343 -0.5566 -0.3144 -3.6163
11453TIP3    H255775   1.474   5.392  11.308  0.5569  0.1733  0.3133
11454TIP3   OH255776   4.869   0.732   5.795 -0.6965  0.3129 -0.7886
11454TIP3    H155777   4.909   0.811   5.758 -1.1567  0.7634 -0.3445
11454TIP3    H255778   4.940   0.667   5.795  0.4410  1.4574  1.1873
11455TIP3   OH255779   6.029   1.062   3.279 -0.1433 -0.6016 -0.5154
11455TIP3    H155780   6.073   0.994   3.331 -0.2251 -0.6245 -0.4753
11455TIP3    H255781   6.061   1.144   3.315  0.1537 -0.6204 -0.7338
11456TIP3   OH255782   0.579   2.286   4.278 -0.1010  0.0401 -0.9016
11456TIP3    H155783   0.621   2.371   4.264 -1.1127  0.5472 -0.9201
11456TIP3    H255784   0.509   2.303   4.340 -0.4322 -0.7505 -1.0436
11457TIP3   OH255785   4.936   1.318  12.299 -0.4722 -0.5707 -0.0416
11457TIP3    H155786   5.028   1.327  12.272  0.4477  0.5802  3.0006
11457TIP3    H255787   4.930   1.229  12.333  0.3187  0.1287  2.0907
11458TIP3   OH255788   2.445   5.226   0.890  0.4062  0.5114  0.2424
11458TIP3    H155789   2.498   5.188   0.960 -0.5574  0.3416  0.9105
11458TIP3    H255790   2.472   5.317   0.885  1.6256  0.1479 -0.2914
11459TIP3   OH255791   3.689   0.617   6.085  0.4415  0.1082  0.3180
11459TIP3    H155792   3.740   0.578   6.014 -0.7005 -1.2303  0.1820
11459TIP3    H255793   3.648   0.695   6.046  1.4394  0.5364  0.1105
11460TIP3   OH255794   3.432   3.651  15.945  0.0720  0.4272  1.0853
11460TIP3    H155795   3.439   3.572  15.999 -0.4588  0.6931  1.5593
11460TIP3    H255796   3.365   3.703  15.989 -2.9254 -0.8112 -1.5906
11461TIP3   OH255797   4.038   5.246  15.300  0.0806 -0.1015 -0.7821
11461TIP3    H155798   4.051   5.330  15.255 -1.7700  0.8575  0.3698
11461TIP3    H255799   3.946   5.247  15.326  0.9370 -0.6718  2.8051
11462TIP3   OH255800   1.613   5.965  11.402  0.3443  0.0987 -0.3017
11462TIP3    H155801   1.548   5.951  11.332  0.5458 -2.7498 -0.0269
11462TIP3    H255802   1.564   5.953  11.483  0.6403  0.9060  0.0092
11463TIP3   OH255803   1.124   2.223  14.504  0.0532 -0.2980  0.2090
11463TIP3    H155804   1.101   2.262  14.589 -1.1343  0.5702 -0.4785
11463TIP3    H255805   1.218   2.205  14.510 -0.1099 -0.7864  1.9052
11464TIP3   OH255806   1.624   3.479   4.124  0.4523  0.0435 -0.1287
11464TIP3    H155807   1.708   3.452   4.163  0.8600 -0.7184 -1.4786
11464TIP3    H255808   1.561   3.415   4.157  0.3014  0.8155  1.1598
11465TIP3   OH255809   0.319   1.314   0.391 -0.2416  0.0059 -0.0889
11465TIP3    H155810   0.296   1.273   0.307 -0.2938 -0.5758  0.2001
11465TIP3    H255811   0.413   1.298   0.400 -0.1923  0.2637 -0.1375
11466TIP3   OH255812   3.667   0.323   6.075 -0.0045 -0.2706  0.2564
11466TIP3    H155813   3.750   0.332   6.028  1.1834 -1.1008  2.0786
11466TIP3    H255814   3.682   0.367   6.159 -2.0238  1.0902 -0.0311
11467TIP3   OH255815   5.051   4.837   6.910  0.5681  0.5650  0.1535
11467TIP3    H155816   4.987   4.881   6.966 -0.5657 -1.8207  0.8603
11467TIP3    H255817   4.998   4.787   6.848  1.7218 -0.9372  0.3220
11468TIP3   OH255818   2.632   6.699  17.007  0.4401  0.2854 -0.5479
11468TIP3    H155819   2.676   6.781  16.986  3.3633 -1.5061 -2.0643
11468TIP3    H255820   2.647   6.687  17.101  0.6147  1.1097 -0.4660
11469TIP3   OH255821   5.529   5.276  11.721  0.3390 -0.0264  0.3823
11469TIP3    H155822   5.575   5.318  11.648 -1.9970  0.2159 -1.0502
11469TIP3    H255823   5.533   5.340  11.792 -2.7523  2.6865 -1.6035
11470TIP3   OH255824   3.022   0.588  11.404 -0.2417 -0.3989  0.1386
11470TIP3    H155825   3.015   0.604  11.310 -1.6307 -0.3217  0.2413
11470TIP3    H255826   3.079   0.658  11.435 -0.3738  0.0228 -0.5371
11471TIP3   OH255827   6.515   4.312   3.350  0.0499 -0.3156 -0.2044
11471TIP3    H155828   6.580   4.383   3.341 -0.5655  0.3699  0.6473
11471TIP3    H255829   6.475   4.306   3.263  0.1071  0.3762 -0.2832
11472TIP3   OH255830   3.573   5.025   1.945  0.1984 -0.0787  0.1630
11472TIP3    H155831   3.669   5.016   1.945  0.4547  1.0967 -3.1301
11472TIP3    H255832   3.558   5.119   1.935 -1.3079 -0.2995  0.1418
11473TIP3   OH255833   5.502   3.388   0.643  0.2270  0.0473 -0.0552
11473TIP3    H155834   5.487   3.298   0.615  2.2476 -0.7364  1.1469
11473TIP3    H255835   5.565   3.424   0.579 -1.6587  1.1594 -1.3848
11474TIP3   OH255836   2.233   6.310   0.389  0.1270 -0.2266 -0.3260
11474TIP3    H155837   2.269   6.288   0.303  0.9407 -0.3978  0.0504
11474TIP3    H255838   2.287   6.260   0.451  1.9563  2.6566  0.5774
11475TIP3   OH255839   6.005   5.153   5.932 -0.0825 -0.3614  0.0222
11475TIP3    H155840   6.092   5.137   5.896  0.5312 -0.1048  1.3120
11475TIP3    H255841   5.968   5.066   5.947 -0.5011 -0.4738 -1.5052
11476TIP3   OH255842   3.057   5.053  15.935  0.3360 -0.1368 -0.2941
11476TIP3    H155843   2.966   5.046  15.907  0.1267  0.9491  0.0985
11476TIP3    H255844   3.089   5.133  15.893  0.6910  0.2530  0.6956
11477TIP3   OH255845   4.497   0.910   0.218  0.1743 -0.1420  0.3481
11477TIP3    H155846   4.580   0.877   0.182  1.1008  1.1294  1.2174
11477TIP3    H255847   4.521   0.992   0.260 -1.7588  0.8764 -0.4199
11478TIP3   OH255848   4.238   5.853  10.795  0.5880 -0.0185 -0.0513
11478TIP3    H155849   4.167   5.829  10.736 -0.0032 -0.2252  0.7181
11478TIP3    H255850   4.215   5.810  10.878  1.4063  0.2389  0.3182
11479TIP3   OH255851   6.376   2.484   0.039 -0.0253 -0.3005 -0.3816
11479TIP3    H155852   6.430   2.520   0.109 -1.2552 -0.3013  0.5997
11479TIP3    H255853   6.415   2.399   0.019  1.4438  0.4905 -1.0222
11480TIP3   OH255854   6.247   0.008   4.618 -0.1461 -0.2296 -0.7178
11480TIP3    H155855   6.156  -0.018   4.603 -0.5254  1.0946 -0.8360
11480TIP3    H255856   6.293  -0.074   4.630 -1.9239 -0.9060  2.8603
11481TIP3   OH255857   3.212   6.018   6.264  0.5113 -1.0783  0.2432
11481TIP3    H155858   3.137   5.979   6.310 -1.0772  0.6183 -0.7670
11481TIP3    H255859   3.267   6.055   6.333 -1.5405  0.9315  0.9286
11482TIP3   OH255860   3.590   6.678  11.605 -0.0377 -0.0842 -0.5512
11482TIP3    H155861   3.600   6.597  11.556 -0.2214 -0.2498 -0.3153
11482TIP3    H255862   3.551   6.739  11.542 -1.1625 -0.5726 -0.3381
11483TIP3   OH255863   3.597   5.209  14.732  0.1205 -0.6837 -0.0256
11483TIP3    H155864   3.519   5.257  14.761  0.4938  0.8367 -1.3747
11483TIP3    H255865   3.636   5.266  14.665  1.7811 -1.9273 -0.1665
11484TIP3   OH255866   6.614   6.584  13.007 -0.1487 -0.2378 -0.0751
11484TIP3    H155867   6.566   6.516  13.056  1.6585  0.3334  2.7743
11484TIP3    H255868   6.685   6.537  12.964 -0.6195 -0.5147 -0.5526
11485TIP3   OH255869   6.469   4.341  15.216 -0.2885  0.0822  0.1667
11485TIP3    H155870   6.484   4.417  15.272 -0.3897  1.5875 -1.7309
11485TIP3    H255871   6.373   4.336  15.208 -0.3559 -1.2041  1.4786
11486TIP3   OH255872   5.636   4.686  14.430  0.6137 -0.1955  0.1819
11486TIP3    H155873   5.561   4.725  14.385 -0.2249 -0.3943  1.3446
11486TIP3    H255874   5.672   4.623  14.368 -0.7078 -0.7118 -0.0972
11487TIP3   OH255875   2.288   6.314  16.197 -0.1450  0.2298 -0.2450
11487TIP3    H155876   2.315   6.222  16.205 -0.7633 -0.2379 -2.6391
11487TIP3    H255877   2.271   6.325  16.103 -2.2184  2.1922  0.2918
11488TIP3   OH255878   2.258   5.497   4.132 -0.1535  0.1116  0.1999
11488TIP3    H155879   2.301   5.428   4.182 -2.1268 -0.2371  1.5121
11488TIP3    H255880   2.238   5.456   4.048 -0.2644 -0.5449  0.5403
11489TIP3   OH255881   6.336   3.084  16.107 -0.0881 -0.1660  0.0167
11489TIP3    H155882   6.246   3.056  16.090 -0.9977  1.6297  1.4947
11489TIP3    H255883   6.356   3.145  16.036 -0.4861  0.2982  0.2926
11490TIP3   OH255884   1.520   0.642  14.173  0.3082  0.0574 -0.5578
11490TIP3    H155885   1.540   0.677  14.087  1.4253  0.1712 -0.2762
11490TIP3    H255886   1.507   0.548  14.159  0.8531  0.0157 -0.8088
11491TIP3   OH255887   1.975   3.862   1.151 -0.1784 -0.0394  0.4722
11491TIP3    H155888   1.889   3.883   1.114  0.6024  0.3392 -1.2194
11491TIP3    H255889   1.956   3.803   1.224 -1.7668 -1.9189 -1.3279
11492TIP3   OH255890   2.149   4.091  14.253 -0.1831 -0.7489  0.3134
11492TIP3    H155891   2.137   3.997  14.268 -0.5947 -0.6910  0.3747
11492TIP3    H255892   2.242   4.101  14.235  0.0384 -1.0406  1.2435
11493TIP3   OH255893   6.690   2.528   0.015 -0.1843  0.2697 -0.6715
11493TIP3    H155894   6.619   2.574   0.060 -0.3299 -0.9150  0.3632
11493TIP3    H255895   6.709   2.453   0.071 -0.0718 -1.0499 -2.3958
11494TIP3   OH255896   1.878   1.856  16.079 -0.5357  0.7135  0.1103
11494TIP3    H155897   1.961   1.808  16.082 -1.5180 -1.1209 -0.6105
11494TIP3    H255898   1.892   1.932  16.136  1.2527 -0.1433  0.8878
11495TIP3   OH255899   5.914   3.770   0.217 -0.1880  0.3745 -0.3743
11495TIP3    H155900   5.843   3.734   0.164  0.3218  1.2449 -1.6935
11495TIP3    H255901   5.898   3.736   0.305 -1.0251 -1.1693 -1.0887
11496TIP3   OH255902   1.212   0.977  16.403  0.3429  0.4241 -0.2807
11496TIP3    H155903   1.250   0.962  16.316 -0.0077 -0.5806 -0.2691
11496TIP3    H255904   1.167   0.895  16.424  0.3710  0.6829  0.8268
11497TIP3   OH255905   0.558   3.812   5.718  0.3728  0.4424 -0.7357
11497TIP3    H155906   0.562   3.717   5.706  0.0730  0.4220 -0.6751
11497TIP3    H255907   0.607   3.827   5.799  1.1762  0.4327 -1.2117
11498TIP3   OH255908   6.403   3.890  11.604  0.4205  0.2840 -0.6668
11498TIP3    H155909   6.318   3.932  11.589  0.4024  1.5017  2.2090
11498TIP3    H255910   6.419   3.840  11.524 -2.5431  0.7630 -1.6926
11499TIP3   OH255911   5.785   0.672  14.941  0.2303 -0.1589  0.0349
11499TIP3    H155912   5.867   0.626  14.923  1.4917  1.9071  0.2307
11499TIP3    H255913   5.726   0.604  14.973  2.3013 -1.4947  1.2531
11500TIP3   OH255914   2.826   3.327   4.545  0.4435 -0.4576 -0.9714
11500TIP3    H155915   2.758   3.260   4.555  0.3732 -0.3008 -0.3920
11500TIP3    H255916   2.898   3.297   4.600  0.1837  0.2417 -0.2470
11501TIP3   OH255917   5.703   1.505   2.584  0.4267 -0.2586 -0.5311
11501TIP3    H155918   5.774   1.494   2.521  0.1682  0.6491 -1.0049
11501TIP3    H255919   5.626   1.468   2.540  0.0114  1.3486 -1.2416
11502TIP3   OH255920   2.899   6.658   2.791 -0.1412 -0.4951 -0.1026
11502TIP3    H155921   2.837   6.676   2.862  1.6220 -1.2040  1.7206
11502TIP3    H255922   2.865   6.579   2.749  0.4142 -1.9626  2.0600
11503TIP3   OH255923   5.186   0.610  15.647  0.0900  0.7941 -0.4631
11503TIP3    H155924   5.189   0.664  15.568 -0.1679  0.6688 -0.5604
11503TIP3    H255925   5.191   0.673  15.719  0.4305  0.8996 -0.5802
11504TIP3   OH255926   6.333   4.435  17.069 -0.0673 -0.0191 -0.0560
11504TIP3    H155927   6.318   4.340  17.061 -0.6806 -0.0086  0.7331
11504TIP3    H255928   6.245   4.472  17.071  0.1493  0.4673  0.6439
11505TIP3   OH255929   0.549   1.851   0.001  0.1349  0.7825  0.5429
11505TIP3    H155930   0.560   1.921   0.066 -0.6079  0.6617  0.8008
11505TIP3    H255931   0.567   1.771   0.049 -0.3641  0.6966  0.5860
11506TIP3   OH255932   2.161   4.071   3.885 -0.5505  0.1204 -0.3271
11506TIP3    H155933   2.086   4.089   3.941  1.2287  1.9766  1.6359
11506TIP3    H255934   2.174   4.152   3.835 -0.1526 -0.3595 -1.0160
11507TIP3   OH255935   0.786   0.778   2.385 -0.1356 -0.0093  0.5788
11507TIP3    H155936   0.724   0.760   2.456 -0.3760  1.4359  0.7693
11507TIP3    H255937   0.846   0.843   2.422  1.0570 -0.8320  0.1438
11508TIP3   OH255938   2.402   6.415   0.784 -0.0679  0.3888  0.4993
11508TIP3    H155939   2.451   6.443   0.706  2.3217  2.1668  2.4428
11508TIP3    H255940   2.335   6.355   0.751  1.3285  0.4292 -2.7866
11509TIP3   OH255941   2.479   1.441  14.184 -0.0520 -0.1851 -0.1871
11509TIP3    H155942   2.496   1.381  14.257 -2.0102  0.5008  0.8930
11509TIP3    H255943   2.536   1.516  14.201  0.7835 -0.7748 -0.3373
11510TIP3   OH255944   4.275   6.099   4.422  0.2636  0.5260  0.7007
11510TIP3    H155945   4.295   6.026   4.364  0.8680  0.8940  0.4367
11510TIP3    H255946   4.358   6.146   4.432 -0.0886  1.1108  0.9564
11511TIP3   OH255947   2.906   0.286  12.108 -0.0643  0.6906  0.3845
11511TIP3    H155948   2.896   0.278  12.013  1.7661  3.0248 -0.0956
11511TIP3    H255949   2.979   0.227  12.130 -0.7522 -0.1598  0.4457
11512TIP3   OH255950   5.367   2.597  16.192  0.8807 -0.0278 -0.6303
11512TIP3    H155951   5.434   2.535  16.223 -0.4666 -0.7062  1.1088
11512TIP3    H255952   5.329   2.633  16.272 -1.5017 -0.4219 -1.5173
11513TIP3   OH255953   3.141   1.131  11.925  0.2031  0.1940  0.0596
11513TIP3    H155954   3.159   1.050  11.972  0.2335  0.6288  0.8148
11513TIP3    H255955   3.065   1.168  11.970 -0.4052  0.1250 -0.8749
11514TIP3   OH255956   3.509   3.012  13.303 -0.6599 -0.0922 -0.0151
11514TIP3    H155957   3.518   3.105  13.325 -0.9902 -0.2716  0.9251
11514TIP3    H255958   3.499   3.010  13.208 -2.0676  0.9452  0.0833
11515TIP3   OH255959   4.861   3.826   2.022  0.2727 -0.5272 -0.6085
11515TIP3    H155960   4.830   3.914   2.002  1.0121 -0.2574 -0.6130
11515TIP3    H255961   4.952   3.826   1.993  0.2273 -1.3514 -0.7706
11516TIP3   OH255962   5.351   3.840  11.121 -0.5107  0.0837 -0.4427
11516TIP3    H155963   5.391   3.842  11.034  0.8761  0.1467  0.1743
11516TIP3    H255964   5.400   3.773  11.168 -1.0601  0.2583  0.3933
11517TIP3   OH255965   1.046   4.674  11.192 -0.4337  0.8333 -0.3552
11517TIP3    H155966   0.984   4.743  11.217 -0.6306  0.2129  0.9841
11517TIP3    H255967   0.992   4.609  11.147 -0.6125  0.6868  0.0597
11518TIP3   OH255968   1.934   3.197  14.431 -0.2791  0.4140 -0.2457
11518TIP3    H155969   1.896   3.279  14.400  0.2239  0.5386 -0.5312
11518TIP3    H255970   1.915   3.196  14.525 -0.1879  0.9124 -0.2193
11519TIP3   OH255971   1.937   2.862   5.357 -0.1240 -0.9830  0.1589
11519TIP3    H155972   1.995   2.901   5.292 -0.0788 -0.8221  0.2934
11519TIP3    H255973   1.991   2.853   5.435 -0.3047 -0.7428  0.3144
11520TIP3   OH255974   5.636   3.583  13.669 -0.4933 -0.2016  0.2278
11520TIP3    H155975   5.639   3.580  13.765 -0.9724  2.5407  0.3904
11520TIP3    H255976   5.545   3.566  13.647 -0.5516 -0.0050  0.3155
11521TIP3   OH255977   1.451   6.502  11.255  0.1011 -1.0103 -0.0908
11521TIP3    H155978   1.517   6.569  11.272  0.0058 -0.6836 -0.9279
11521TIP3    H255979   1.446   6.497  11.159  0.0364 -2.1448 -0.0487
11522TIP3   OH255980   6.302   5.925   1.164  0.3103 -0.2535  0.5299
11522TIP3    H155981   6.359   5.880   1.103  1.6826  1.2096  0.6442
11522TIP3    H255982   6.362   5.967   1.226 -0.7755  2.4544 -0.1161
11523TIP3   OH255983   3.809   5.348  16.947 -0.9885 -0.1149 -0.7710
11523TIP3    H155984   3.792   5.317  17.036  0.5551 -0.7156 -0.6430
11523TIP3    H255985   3.843   5.436  16.958  0.4088 -0.6481 -0.6386
11524TIP3   OH255986   4.368   0.594   3.548 -0.1624  0.5247  0.3130
11524TIP3    H155987   4.304   0.658   3.579 -0.9793  0.5089 -1.2872
11524TIP3    H255988   4.419   0.641   3.482 -1.4210 -0.6915 -1.6252
11525TIP3   OH255989   6.260   5.590  13.703 -0.3148 -0.5705  0.0414
11525TIP3    H155990   6.264   5.661  13.767 -1.5271 -0.9303  0.5286
11525TIP3    H255991   6.348   5.551  13.705 -0.2599 -0.4179  1.3036
11526TIP3   OH255992   4.621   2.675  15.635 -0.0738 -0.2025 -0.2689
11526TIP3    H155993   4.632   2.590  15.592 -0.3159  0.3898 -1.5687
11526TIP3    H255994   4.668   2.736  15.578 -0.8216  0.6903  0.0511
11527TIP3   OH255995   4.809   0.218   2.102  0.4425  0.3052  0.0234
11527TIP3    H155996   4.752   0.256   2.169 -0.3429 -0.1029 -0.4010
11527TIP3    H255997   4.854   0.147   2.147  0.7627  0.7524  0.4132
11528TIP3   OH255998   0.462   2.381  13.709  0.3751 -0.4931  0.0053
11528TIP3    H155999   0.378   2.358  13.668 -0.1605 -0.5349  1.0778
11528TIP3    H256000   0.506   2.297  13.721  0.4015 -0.5092 -0.1950
11529TIP3   OH256001   2.770   5.088   5.787  0.6568 -0.4295  0.2277
11529TIP3    H156002   2.845   5.134   5.825  0.7683 -0.2303 -0.2343
11529TIP3    H256003   2.729   5.044   5.862 -0.1390  1.3616  0.8953
11530TIP3   OH256004   4.788   2.056  12.305  1.0161  0.5656  0.1631
11530TIP3    H156005   4.784   1.965  12.335  3.2042  0.5136  0.4978
11530TIP3    H256006   4.701   2.092  12.323  0.9455 -0.6567  2.6549
11531TIP3   OH256007   4.963   0.725   0.368 -1.0793  0.0949  0.5306
11531TIP3    H156008   5.021   0.653   0.342  1.4460  2.2358 -0.1695
11531TIP3    H256009   4.957   0.717   0.464 -1.9116 -1.7351  0.3713
11532TIP3   OH256010   1.221   4.323  13.133 -0.1851  0.0220  0.0600
11532TIP3    H156011   1.181   4.397  13.088 -0.4208 -0.7256 -0.9941
11532TIP3    H256012   1.182   4.246  13.092  0.4432 -0.6934  0.7735
11533TIP3   OH256013   1.111   0.832   2.271 -0.0756  0.2382 -0.2561
11533TIP3    H156014   1.038   0.854   2.214 -0.9165 -1.1065  0.2645
11533TIP3    H256015   1.130   0.740   2.251  0.8837  0.3126  0.2559
11534TIP3   OH256016   0.683   0.973  16.650 -0.1579 -0.4979  0.2213
11534TIP3    H156017   0.700   1.067  16.643 -1.0335 -0.2252  1.4453
11534TIP3    H256018   0.627   0.955  16.574 -3.0706  0.7929  1.8707
11535TIP3   OH256019   0.802   5.215  15.647  0.0988  0.2186 -0.2131
11535TIP3    H156020   0.841   5.248  15.566 -0.1773  0.2472 -0.3371
11535TIP3    H256021   0.819   5.121  15.647 -1.9828 -0.2274 -1.5059
11536TIP3   OH256022   3.728   4.314  16.644  0.3712  0.0942 -0.5005
11536TIP3    H156023   3.677   4.235  16.657  1.7341 -0.5266  1.5456
11536TIP3    H256024   3.791   4.291  16.575  2.5588 -1.6369  1.9165
11537TIP3   OH256025   4.170   2.832   1.393  0.2040  0.9024 -0.7011
11537TIP3    H156026   4.150   2.869   1.307  0.3701  1.2225 -0.6061
11537TIP3    H256027   4.086   2.832   1.439 -0.0758 -0.1754 -1.1949
11538TIP3   OH256028   4.060   0.047   3.600  0.3215  0.6899  0.1098
11538TIP3    H156029   4.123   0.105   3.642 -1.2176  2.7387 -0.2408
11538TIP3    H256030   4.063  -0.034   3.652  0.2064  2.2440  2.7164
11539TIP3   OH256031   2.850   2.459  14.705  0.1399 -0.3502  0.6311
11539TIP3    H156032   2.885   2.548  14.701  2.1495 -1.0091  2.1857
11539TIP3    H256033   2.862   2.425  14.616  0.7182  0.4442  0.3940
11540TIP3   OH256034   0.377   5.130   4.126  0.0285 -0.1877 -0.1168
11540TIP3    H156035   0.350   5.218   4.101 -2.9446 -0.4017  1.9023
11540TIP3    H256036   0.343   5.073   4.056  0.4327  0.0675 -0.5307
11541TIP3   OH256037   0.328   6.063  15.816  0.3416 -0.2547 -0.2660
11541TIP3    H156038   0.261   6.130  15.800  1.0195  0.1717 -1.5007
11541TIP3    H256039   0.340   6.022  15.730  1.3878 -0.5730  0.0251
11542TIP3   OH256040   4.789   5.732  12.443  0.1398  0.2309  0.1751
11542TIP3    H156041   4.694   5.723  12.433  0.2687 -2.2760  0.5960
11542TIP3    H256042   4.799   5.806  12.503 -1.6699 -0.5693  1.5793
11543TIP3   OH256043   3.954   3.478   5.451  0.0594  0.2437  0.1722
11543TIP3    H156044   3.925   3.390   5.474 -1.1984  0.5066 -0.2945
11543TIP3    H256045   4.028   3.496   5.509  1.2694 -1.6472 -0.6728
11544TIP3   OH256046   2.103   3.669   5.752  0.3977 -0.6481 -0.5348
11544TIP3    H156047   2.073   3.622   5.830 -1.2229 -0.0858 -0.7655
11544TIP3    H256048   2.094   3.606   5.680 -1.0197 -0.2785 -0.7174
11545TIP3   OH256049   1.124   6.464  16.147 -0.1979 -0.1906  0.4700
11545TIP3    H156050   1.110   6.391  16.208 -0.7680  0.8666  1.6526
11545TIP3    H256051   1.208   6.501  16.173 -0.3202  0.1039  0.4544
11546TIP3   OH256052   1.410   4.945  16.895 -0.6551  0.3464  0.3241
11546TIP3    H156053   1.336   5.006  16.890  0.5117  1.7217 -1.9271
11546TIP3    H256054   1.485   5.001  16.917 -0.1198 -0.8674  1.6574
11547TIP3   OH256055   1.188   6.687  14.813  0.2369 -0.2161  0.1623
11547TIP3    H156056   1.184   6.754  14.881  1.1000 -0.2387  0.2525
11547TIP3    H256057   1.106   6.695  14.765 -0.3378 -0.1322  1.1441
11548TIP3   OH256058   6.401   1.228  15.677 -0.0452 -0.1544 -0.8223
11548TIP3    H156059   6.457   1.156  15.649 -0.0567  0.5007 -2.7210
11548TIP3    H256060   6.348   1.249  15.599 -1.4946  0.5572  0.3053
11549TIP3   OH256061   3.755   3.818  14.742  0.2575  0.2766 -0.2949
11549TIP3    H156062   3.768   3.852  14.831 -0.7623 -0.1705  0.0424
11549TIP3    H256063   3.720   3.893  14.693 -1.3128 -0.0629  0.2665
11550TIP3   OH256064   2.231   4.543  12.134  0.1344 -0.1210  0.2486
11550TIP3    H156065   2.260   4.515  12.047  0.0846 -0.2973  0.2898
11550TIP3    H256066   2.239   4.465  12.189  1.7636  0.3798  0.7953
11551TIP3   OH256067   1.832   2.158  14.798  0.0018 -0.4242 -0.6344
11551TIP3    H156068   1.783   2.195  14.725  0.7271  1.7209 -0.1298
11551TIP3    H256069   1.822   2.063  14.789 -2.8026 -0.1383 -1.4943
11552TIP3   OH256070   1.720   1.138   2.986  0.3084  0.3921 -0.3054
11552TIP3    H156071   1.658   1.193   3.034  1.9700  1.4568  0.7274
11552TIP3    H256072   1.687   1.139   2.896  0.4267  3.4522 -0.4379
11553TIP3   OH256073   6.269   5.970  14.576  0.2143  0.1939 -0.5346
11553TIP3    H156074   6.359   5.945  14.599  1.0137  1.7631 -1.7061
11553TIP3    H256075   6.254   6.052  14.624  0.3279  1.2017 -2.1521
11554TIP3   OH256076   2.244   0.267   3.237 -0.0744 -0.5259  0.2217
11554TIP3    H156077   2.213   0.270   3.146 -1.5674 -2.3381  0.6109
11554TIP3    H256078   2.263   0.358   3.259  0.8048 -0.0941 -2.0456
11555TIP3   OH256079   0.841   3.172  11.820 -0.1750  0.1418 -0.4576
11555TIP3    H156080   0.887   3.096  11.786  0.0682 -0.0501  0.2727
11555TIP3    H256081   0.857   3.241  11.756 -0.9406 -0.5852 -1.4617
11556TIP3   OH256082   5.424   2.534   1.289  0.0113  0.3174  0.1333
11556TIP3    H156083   5.384   2.584   1.361  1.5523  1.5259  0.1927
11556TIP3    H256084   5.418   2.592   1.213 -0.4605 -0.4502 -0.4328
11557TIP3   OH256085   5.215   2.363  16.038 -0.4374  0.1111 -0.1586
11557TIP3    H156086   5.173   2.315  16.109 -1.3476  1.6249  0.3643
11557TIP3    H256087   5.270   2.428  16.083  1.3247 -0.8380 -0.8436
11558TIP3   OH256088   3.273   6.608   5.007 -0.3764 -0.3324 -0.1760
11558TIP3    H156089   3.283   6.556   4.927 -0.0581  1.5317 -1.4145
11558TIP3    H256090   3.301   6.696   4.982 -0.0644  0.2660  2.0646
11559TIP3   OH256091   1.154   1.326  10.565 -0.6509  0.1910  0.2184
11559TIP3    H156092   1.204   1.244  10.563 -2.2132 -0.8413  0.9945
11559TIP3    H256093   1.135   1.345  10.473 -0.4811 -0.4709  0.0395
11560TIP3   OH256094   2.031   3.425   5.599 -0.1861  0.3977 -0.1305
11560TIP3    H156095   1.939   3.429   5.571 -0.4907 -0.3621  0.7187
11560TIP3    H256096   2.081   3.417   5.518 -0.8337  1.2061 -0.6315
11561TIP3   OH256097   6.496   4.892  11.389 -0.4041 -0.0572 -0.1702
11561TIP3    H156098   6.416   4.910  11.339 -0.0712 -1.2499 -1.1719
11561TIP3    H256099   6.558   4.859  11.324  1.3606  2.0197  0.3418
11562TIP3   OH256100   5.161   2.157   4.836 -0.6957  0.1920  0.5680
11562TIP3    H156101   5.169   2.176   4.930 -0.9693  3.0919  0.1078
11562TIP3    H256102   5.066   2.156   4.820 -0.6470 -0.1548  0.2906
11563TIP3   OH256103   3.121   1.656   6.203  0.4864  0.1400 -0.2462
11563TIP3    H156104   3.075   1.616   6.277 -0.2365 -2.2799 -1.8533
11563TIP3    H256105   3.051   1.687   6.146  1.0095  1.1216 -0.3721
11564TIP3   OH256106   2.588   3.781  15.907 -0.5129 -0.0423 -0.1944
11564TIP3    H156107   2.569   3.870  15.876  2.1548  0.5867 -0.2100
11564TIP3    H256108   2.570   3.725  15.831 -0.3891  0.7009 -0.7791
11565TIP3   OH256109   5.406   2.903  11.453  0.4920 -0.1172  0.5159
11565TIP3    H156110   5.469   2.865  11.393  0.9710 -0.5028  1.2550
11565TIP3    H256111   5.327   2.917  11.400  0.5351 -1.4858  0.0724
11566TIP3   OH256112   2.439   0.834  16.627  0.4327 -0.4859 -0.0755
11566TIP3    H156113   2.530   0.860  16.613  0.0659  0.3118 -1.0911
11566TIP3    H256114   2.389   0.891  16.569 -0.6132 -1.7394 -0.4454
11567TIP3   OH256115   6.295   4.338   2.056 -0.2003  0.5200 -0.0292
11567TIP3    H156116   6.300   4.322   1.962 -0.5341 -0.9806  0.1871
11567TIP3    H256117   6.359   4.278   2.094 -1.0581  0.0988  0.7920
11568TIP3   OH256118   3.730   5.278   5.385 -0.1482 -0.0545  0.1736
11568TIP3    H156119   3.731   5.221   5.461  1.3544 -2.1924 -1.3400
11568TIP3    H256120   3.638   5.302   5.374 -0.8525 -2.2448  0.8384
11569TIP3   OH256121   3.574   1.158   4.522 -0.1178 -0.4823  0.1176
11569TIP3    H156122   3.574   1.221   4.450  0.1624 -0.6665 -0.0453
11569TIP3    H256123   3.643   1.189   4.581  1.4749 -1.7849 -0.9849
11570TIP3   OH256124   6.151   4.821   1.790  0.1540 -0.2549  0.3136
11570TIP3    H156125   6.097   4.746   1.765  0.1793 -0.3857  0.6505
11570TIP3    H256126   6.206   4.789   1.861  0.4197 -0.0171  0.2151
11571TIP3   OH256127   6.439   2.050  14.838 -0.0862  0.8974 -0.0463
11571TIP3    H156128   6.355   2.059  14.793 -0.8998  0.0984  1.2528
11571TIP3    H256129   6.499   2.018  14.770 -0.4380  2.8033 -1.3345
11572TIP3   OH256130   4.636   1.716   3.745  0.1996  0.7519 -0.0430
11572TIP3    H156131   4.711   1.773   3.731 -0.1840  1.2372 -0.1606
11572TIP3    H256132   4.608   1.690   3.657  1.0217 -0.4900  0.0444
11573TIP3   OH256133   1.912   3.774   1.962 -0.3708 -0.0028 -0.5834
11573TIP3    H156134   1.994   3.820   1.979 -0.2123  0.1699 -1.7348
11573TIP3    H256135   1.935   3.681   1.967 -0.0305  0.0433 -1.1922
11574TIP3   OH256136   1.700   2.655  14.649 -0.0096  0.0106 -0.5611
11574TIP3    H156137   1.790   2.650  14.682 -0.2604 -0.7277  0.0379
11574TIP3    H256138   1.707   2.707  14.570  0.6025  1.9386  0.6916
11575TIP3   OH256139   3.014   2.812  17.001  0.1227 -0.1278 -0.4738
11575TIP3    H156140   3.046   2.825  17.091 -0.7682 -0.7221 -0.0583
11575TIP3    H256141   3.093   2.788  16.952  0.6795  0.5128  0.0660
11576TIP3   OH256142   3.427   2.862  11.835 -0.0998 -0.7123 -0.1165
11576TIP3    H156143   3.387   2.798  11.893 -0.6940  0.0982  0.4028
11576TIP3    H256144   3.354   2.894  11.781  0.6023 -2.1443 -2.0188
11577TIP3   OH256145   1.862   0.208  15.618 -0.1007 -0.1401 -0.0333
11577TIP3    H156146   1.950   0.173  15.605  0.0188 -0.5048  1.5650
11577TIP3    H256147   1.821   0.203  15.532  0.6934 -2.0891 -0.3458
11578TIP3   OH256148   4.745   4.350   4.743  0.2327 -0.7156 -0.3844
11578TIP3    H156149   4.723   4.374   4.653  0.5400 -0.4593 -0.3944
11578TIP3    H256150   4.668   4.376   4.794  0.2634 -0.3840 -0.5021
11579TIP3   OH256151   5.205   0.529  12.976 -0.2019 -0.1260 -0.3993
11579TIP3    H156152   5.181   0.572  13.058  1.0448  0.9869 -0.5750
11579TIP3    H256153   5.252   0.450  13.004  1.9063  1.2012  0.0538
11580TIP3   OH256154   2.465   3.400   2.315 -0.3542  0.1502  0.3999
11580TIP3    H156155   2.421   3.448   2.386  0.0116  1.0294  0.0529
11580TIP3    H256156   2.540   3.359   2.358 -0.8253 -0.3564  0.7560
11581TIP3   OH256157   4.320   5.756  16.918 -0.0937 -0.4673  0.2666
11581TIP3    H156158   4.329   5.790  17.007 -0.4475 -1.5765  0.7403
11581TIP3    H256159   4.385   5.686  16.912  0.1963 -0.1408 -0.4828
11582TIP3   OH256160   2.782   6.572   1.803 -0.5415  0.3603  0.4723
11582TIP3    H156161   2.717   6.516   1.762  0.2789 -0.9242  0.8768
11582TIP3    H256162   2.857   6.569   1.744 -0.3031  0.6356  0.7527
11583TIP3   OH256163   6.012   3.664   1.907 -0.1252 -0.4296 -0.1164
11583TIP3    H156164   6.089   3.705   1.947 -0.6243 -0.1927  0.6301
11583TIP3    H256165   6.038   3.646   1.817  1.0001 -0.8729  0.2818
11584TIP3   OH256166   4.025   4.026  12.708  0.5604 -0.2121 -0.7253
11584TIP3    H156167   3.944   3.973  12.710  1.2345 -1.2590  0.3673
11584TIP3    H256168   3.995   4.115  12.725 -0.1870 -0.8942  2.0414
11585TIP3   OH256169   1.933   4.806  11.210 -0.2570 -0.3697 -0.2345
11585TIP3    H156170   1.972   4.891  11.229 -2.0663  0.5321 -0.3685
11585TIP3    H256171   1.932   4.761  11.295  0.8512 -0.3543 -0.1959
11586TIP3   OH256172   2.573   4.852  14.844  0.0128 -0.6737  0.4590
11586TIP3    H156173   2.510   4.786  14.875 -1.0415  0.0670 -0.0862
11586TIP3    H256174   2.520   4.929  14.825  1.3173  0.6149  1.8085
11587TIP3   OH256175   6.765   2.682  14.878 -0.1710  0.6241 -0.8677
11587TIP3    H156176   6.726   2.606  14.920  0.8605  1.2729  1.4496
11587TIP3    H256177   6.839   2.647  14.829 -0.3606  0.0083 -0.7174
11588TIP3   OH256178   1.455   0.334   3.670 -0.0980  0.4903  0.2612
11588TIP3    H156179   1.386   0.329   3.604  1.1474  0.2536 -1.0659
11588TIP3    H256180   1.460   0.427   3.693 -0.4874  0.5830 -0.0378
11589TIP3   OH256181   1.350   4.571  11.278  0.1447 -0.1545  0.2596
11589TIP3    H156182   1.410   4.587  11.352  0.2061  0.7226  0.0394
11589TIP3    H256183   1.405   4.583  11.201 -0.3610  0.9509  0.0474
11590TIP3   OH256184   0.675   2.399   5.768  0.6868 -0.4736 -0.1895
11590TIP3    H156185   0.641   2.312   5.789  0.1034 -0.3144 -0.4511
11590TIP3    H256186   0.759   2.382   5.725  1.8956 -0.8185  2.1168
11591TIP3   OH256187   0.320   1.666  17.225  0.1490 -0.1603 -0.0624
11591TIP3    H156188   0.374   1.742  17.248  1.0307 -0.2267 -1.7984
11591TIP3    H256189   0.340   1.601  17.293  0.5424  0.5988  0.5701
11592TIP3   OH256190   5.382   6.141   2.577  0.1123  0.0744  0.4230
11592TIP3    H156191   5.312   6.091   2.618  0.1807 -0.1593  0.2563
11592TIP3    H256192   5.384   6.223   2.625 -0.0711 -0.0414  0.6299
11593TIP3   OH256193   6.081   3.254   5.537  0.2461 -0.0204  0.0635
11593TIP3    H156194   6.025   3.178   5.552  0.1305  0.0704  0.0973
11593TIP3    H256195   6.020   3.322   5.507  0.1269  0.4949  1.4174
11594TIP3   OH256196   5.463   0.910  11.634 -0.1962 -0.4312  0.2573
11594TIP3    H156197   5.497   0.883  11.719  0.8367 -2.8144 -0.8418
11594TIP3    H256198   5.368   0.913  11.646 -0.0488 -0.3855  1.5502
11595TIP3   OH256199   0.706   3.188  12.780 -0.1300 -0.4783 -0.1513
11595TIP3    H156200   0.789   3.150  12.807 -0.4810  0.1514  2.0370
11595TIP3    H256201   0.650   3.182  12.858 -0.8936  2.4931 -0.3254
11596TIP3   OH256202   6.390   1.391  13.313  0.2179 -0.0357 -0.3217
11596TIP3    H156203   6.367   1.382  13.220  0.8380  1.4372 -0.6349
11596TIP3    H256204   6.351   1.313  13.354  0.9180 -1.3405 -1.9836
11597TIP3   OH256205   4.648   5.513  12.079 -0.7310 -0.1588  0.0650
11597TIP3    H156206   4.654   5.555  11.993 -0.2952 -0.7610 -0.2013
11597TIP3    H256207   4.578   5.449  12.070  0.6744 -1.6779 -0.4798
11598TIP3   OH256208   4.645   4.367  16.670 -0.1919 -0.0373  0.3282
11598TIP3    H156209   4.625   4.437  16.732 -0.6437  0.7697 -0.6979
11598TIP3    H256210   4.700   4.306  16.719  2.4506  2.3188  0.5513
11599TIP3   OH256211   3.575   0.747   4.198  0.4001 -0.0545 -0.7620
11599TIP3    H156212   3.572   0.774   4.289 -0.4011  0.2304 -0.8647
11599TIP3    H256213   3.639   0.805   4.157  0.8432 -0.2561 -0.3670
11600TIP3   OH256214   5.739   2.294   3.968 -0.3164  0.0485  0.2600
11600TIP3    H156215   5.704   2.219   4.017 -1.3078 -0.9725 -1.8639
11600TIP3    H256216   5.770   2.256   3.886  0.9684  1.7310 -0.0781
11601TIP3   OH256217   5.357   2.427   0.038  0.6394  0.0301 -0.9575
11601TIP3    H156218   5.296   2.358   0.065 -0.0464  1.3080  1.0312
11601TIP3    H256219   5.302   2.506   0.032  1.3702  0.4199 -3.3143
11602TIP3   OH256220   3.081   6.268   1.227  0.1217  0.7181  0.0460
11602TIP3    H156221   3.094   6.178   1.258 -1.7481  0.8817  1.4233
11602TIP3    H256222   3.099   6.322   1.303 -0.7430  1.3979 -0.2253
11603TIP3   OH256223   4.997   3.149  16.519  0.0706 -0.7470  0.2206
11603TIP3    H156224   5.039   3.231  16.542 -2.2841  0.4913  0.4506
11603TIP3    H256225   5.056   3.107  16.456  0.8606  1.6321 -0.7120
11604TIP3   OH256226   2.051   6.717   4.528 -0.4311 -0.1808 -0.0611
11604TIP3    H156227   2.100   6.668   4.594 -0.4268 -0.1648 -0.0519
11604TIP3    H256228   2.112   6.727   4.455  0.4166  1.8348  0.8372
11605TIP3   OH256229   1.678   0.209   4.478  0.0938  0.2230 -0.4376
11605TIP3    H156230   1.614   0.235   4.544  0.6718  0.4668  0.0385
11605TIP3    H256231   1.724   0.135   4.517 -0.0754 -0.1232 -0.8884
11606TIP3   OH256232   4.908   1.436  11.746  0.0180  0.1270  0.3351
11606TIP3    H156233   4.914   1.423  11.840 -1.9818  1.3882  0.7132
11606TIP3    H256234   4.880   1.528  11.736 -1.9331 -0.5711 -1.3480
11607TIP3   OH256235   2.008   0.118   2.512 -0.5607 -0.5621 -0.2311
11607TIP3    H156236   1.952   0.089   2.584  1.1464  0.6630  1.6899
11607TIP3    H256237   2.097   0.113   2.546  0.2799  0.6035 -2.0711
11608TIP3   OH256238   5.537   1.003   5.298 -0.5698 -0.1175 -0.7032
11608TIP3    H156239   5.542   1.074   5.362  1.5958 -1.4505  0.7025
11608TIP3    H256240   5.458   0.955   5.322 -2.6850  2.2368 -2.3075
11609TIP3   OH256241   0.230   0.075  16.136 -0.6640 -0.7173 -0.3653
11609TIP3    H156242   0.232  -0.021  16.140  1.1180 -0.7353 -0.8610
11609TIP3    H256243   0.195   0.102  16.220 -0.7785 -1.7926 -0.0495
11610TIP3   OH256244   1.960   6.024   4.137 -0.3453  0.8833 -0.1683
11610TIP3    H156245   2.055   6.018   4.151 -0.5796 -0.4962  1.0243
11610TIP3    H256246   1.952   6.072   4.055  1.5075 -1.5455 -1.9492
11611TIP3   OH256247   3.291   2.280  15.579 -0.3213  0.5251 -0.5200
11611TIP3    H156248   3.318   2.237  15.498 -3.2607 -1.7807 -0.4547
11611TIP3    H256249   3.345   2.239  15.647 -0.8033 -0.6722 -0.8480
11612TIP3   OH256250   4.101   5.394   5.783  0.1139  0.2377 -0.0246
11612TIP3    H156251   4.113   5.307   5.820  0.8005  1.1025  1.9352
11612TIP3    H256252   4.052   5.379   5.702 -0.2000 -1.9091  0.4958
11613TIP3   OH256253   2.292   4.954   0.978 -0.0727  0.1190  0.0105
11613TIP3    H156254   2.234   5.014   0.933 -0.6244 -0.2791  0.1843
11613TIP3    H256255   2.375   5.002   0.987 -0.2820  0.5741 -0.4978
11614TIP3   OH256256   3.024   5.839  13.096  0.5034 -0.3627 -0.3015
11614TIP3    H156257   3.079   5.773  13.139 -0.1117  1.2835  3.4411
11614TIP3    H256258   3.062   5.849  13.009  4.5387 -1.1958  1.1409
11615TIP3   OH256259   1.921   3.837  11.292  0.1753 -0.0232  0.6747
11615TIP3    H156260   1.858   3.802  11.229  0.9337  0.8346 -0.6027
11615TIP3    H256261   1.883   3.818  11.378 -2.1872  1.1114 -0.0503
11616TIP3   OH256262   5.600   2.300  16.495  0.1394  1.0362 -0.0339
11616TIP3    H156263   5.618   2.280  16.403 -0.7033 -0.3788  0.0848
11616TIP3    H256264   5.684   2.328  16.531  0.6782  0.6812 -1.0044
11617TIP3   OH256265   0.579   1.244   2.816 -0.1716  0.7153  0.3798
11617TIP3    H156266   0.601   1.288   2.898  1.3192  0.6598  0.0338
11617TIP3    H256267   0.615   1.156   2.825 -0.8483  0.3866  0.0298
11618TIP3   OH256268   4.332   2.321  10.199 -0.2278 -0.0824 -0.1455
11618TIP3    H156269   4.276   2.339  10.124  1.4695  0.9028 -1.2538
11618TIP3    H256270   4.335   2.225  10.204 -0.9393 -0.1569 -0.8754
11619TIP3   OH256271   4.567   5.876   4.148 -0.8222 -0.3388  0.5295
11619TIP3    H156272   4.594   5.968   4.142 -0.6019 -0.4255  0.1128
11619TIP3    H256273   4.472   5.878   4.136 -0.8004 -0.1744  0.3760
11620TIP3   OH256274   4.747   2.404  13.460 -0.4331 -0.1223  1.1192
11620TIP3    H156275   4.729   2.310  13.465 -1.9874  0.1524  1.2050
11620TIP3    H256276   4.705   2.441  13.538 -1.7759  0.8815 -0.0092
11621TIP3   OH256277   3.640   3.087   2.091  0.0157  0.9769  0.4453
11621TIP3    H156278   3.662   3.179   2.104 -1.6984  1.3924  0.6552
11621TIP3    H256279   3.649   3.048   2.178  0.4113  1.0165  0.4236
11622TIP3   OH256280   2.466   1.638   5.838 -0.0918 -0.1247 -0.3981
11622TIP3    H156281   2.498   1.678   5.920 -1.5634  0.4422 -0.0618
11622TIP3    H256282   2.464   1.544   5.857  3.6651 -0.5582 -1.2809
11623TIP3   OH256283   3.274   1.789   5.596 -0.2711  0.4465  0.2331
11623TIP3    H156284   3.330   1.728   5.548  0.5103 -0.1229  1.8278
11623TIP3    H256285   3.311   1.875   5.575  0.1629  0.1970 -0.0577
11624TIP3   OH256286   0.716   0.892  11.346  0.3320  0.5175  0.1549
11624TIP3    H156287   0.746   0.953  11.414  0.2467  0.4010  0.2975
11624TIP3    H256288   0.749   0.807  11.373  2.7265  0.8654 -1.3992
11625TIP3   OH256289   5.575   0.612  13.856 -0.4464 -0.0321 -0.3584
11625TIP3    H156290   5.559   0.592  13.764 -0.3240 -1.1286 -0.1601
11625TIP3    H256291   5.488   0.614  13.896 -0.4920  0.3286 -0.4751
11626TIP3   OH256292   4.354   2.404   2.717  0.2089 -0.5196  0.5700
11626TIP3    H156293   4.333   2.392   2.624 -3.1460 -2.7162  1.4543
11626TIP3    H256294   4.287   2.464   2.749  2.1586  1.3504  1.4242
11627TIP3   OH256295   3.106   4.117   0.856 -0.4059 -0.1597 -0.0403
11627TIP3    H156296   3.138   4.207   0.865 -0.1295 -0.4213  2.0991
11627TIP3    H256297   3.046   4.120   0.781  0.5518  1.5132 -0.7904
11628TIP3   OH256298   5.410   0.391  12.652 -0.4112 -0.7120 -0.5670
11628TIP3    H156299   5.463   0.414  12.575 -0.1823  0.6237 -0.0393
11628TIP3    H256300   5.350   0.465  12.662 -0.8835 -1.1858  0.1618
11629TIP3   OH256301   6.494   4.994  15.003  0.7501 -0.6536 -0.0768
11629TIP3    H156302   6.407   5.015  14.969 -0.2585 -1.4427  1.8239
11629TIP3    H256303   6.533   5.078  15.024 -1.3978 -0.3040  3.1744
11630TIP3   OH256304   1.109   0.918  16.086 -0.2840 -0.0955 -0.3810
11630TIP3    H156305   1.022   0.945  16.115  0.2605 -0.0668  1.2766
11630TIP3    H256306   1.126   0.837  16.133  0.3620 -0.4210 -1.1496
11631TIP3   OH256307   4.997   3.498  13.359 -0.7388 -0.9149  0.3353
11631TIP3    H156308   4.933   3.428  13.369 -0.6673 -1.2849 -1.3699
11631TIP3    H256309   5.079   3.453  13.340 -1.1015 -0.4651 -2.9572
11632TIP3   OH256310   3.040   4.604   1.907  0.0456  0.0804  0.0369
11632TIP3    H156311   3.089   4.528   1.935  0.8437  0.3407 -0.6207
11632TIP3    H256312   2.961   4.568   1.865  0.5545 -0.3977 -0.5287
11633TIP3   OH256313   5.440   1.833   3.692 -0.7671 -0.1479  0.1767
11633TIP3    H156314   5.447   1.762   3.755 -0.6666 -0.6299 -0.3728
11633TIP3    H256315   5.353   1.822   3.652 -1.6264  1.2541  1.5200
11634TIP3   OH256316   0.855   1.287   2.223 -0.0495  0.5876  0.4246
11634TIP3    H156317   0.822   1.377   2.233 -0.6240  0.3231  0.9302
11634TIP3    H256318   0.806   1.236   2.287  1.1557  0.1336  1.0198
11635TIP3   OH256319   4.701   0.347   5.070 -0.1593  0.0091  0.6794
11635TIP3    H156320   4.670   0.406   5.001 -0.7839 -0.1613  0.8082
11635TIP3    H256321   4.747   0.404   5.131  1.1394  0.0414 -0.3011
11636TIP3   OH256322   6.579   4.424   2.022 -0.4167 -0.0830 -0.0960
11636TIP3    H156323   6.606   4.354   1.962 -2.3451 -1.4073  0.4870
11636TIP3    H256324   6.483   4.420   2.021 -0.5431  1.8181  0.8423
11637TIP3   OH256325   1.599   2.597   1.049 -0.3525  0.1298 -0.0545
11637TIP3    H156326   1.568   2.657   0.981  0.6505 -0.1849 -0.8248
11637TIP3    H256327   1.612   2.514   1.002  1.2016  0.1409  0.3149
11638TIP3   OH256328   6.775   5.702  13.167 -0.2453 -0.2656 -0.3877
11638TIP3    H156329   6.769   5.606  13.174  0.4202 -0.2082  1.8882
11638TIP3    H256330   6.690   5.733  13.198 -0.5500 -0.1025 -1.3579
11639TIP3   OH256331   2.229   4.100   1.788 -0.4547 -0.5616  0.0311
11639TIP3    H156332   2.205   4.045   1.713  0.3884 -1.8195  0.6436
11639TIP3    H256333   2.316   4.133   1.766 -0.0789 -1.1793  0.5817
11640TIP3   OH256334   5.405   0.426  10.877 -0.4292 -0.4922  0.4338
11640TIP3    H156335   5.386   0.333  10.888 -0.0676 -0.6951 -0.5559
11640TIP3    H256336   5.362   0.450  10.795 -3.2356  0.9991  2.2041
11641TIP3   OH256337   5.646   0.349   6.003  0.5244  0.2911 -0.1093
11641TIP3    H156338   5.698   0.425   6.026  1.6349 -0.5328  0.1805
11641TIP3    H256339   5.559   0.384   5.983  0.6633  1.4845  1.2568
11642TIP3   OH256340   1.425   3.205  14.196 -0.3306  0.3680 -0.8375
11642TIP3    H156341   1.343   3.176  14.237 -0.2699 -0.3650 -1.2349
11642TIP3    H256342   1.406   3.296  14.169 -1.2076  0.0297 -1.4233
11643TIP3   OH256343   3.820   2.734  17.120 -0.3728 -0.0844 -0.1950
11643TIP3    H156344   3.897   2.774  17.080 -1.2581  1.5329 -0.3935
11643TIP3    H256345   3.806   2.654  17.070  1.9178 -1.1444  0.7133
11644TIP3   OH256346   3.261   2.647   2.201 -0.2365  0.1983 -0.2439
11644TIP3    H156347   3.206   2.724   2.215  0.1316  0.2999  0.6648
11644TIP3    H256348   3.345   2.683   2.173  0.2105  0.1869  1.0317
11645TIP3   OH256349   5.035   3.531  17.240  0.8722 -0.0457  0.1183
11645TIP3    H156350   5.039   3.606  17.299  1.2575  0.5653 -0.6655
11645TIP3    H256351   5.036   3.454  17.298 -0.0105  0.5502  0.9492
11646TIP3   OH256352   1.743   6.156  11.247  0.4033  0.1061 -0.0096
11646TIP3    H156353   1.813   6.131  11.187  0.4407  0.6212 -0.1854
11646TIP3    H256354   1.716   6.074  11.288  1.3115 -0.0583  0.2802
11647TIP3   OH256355   0.029   4.676   0.558  0.1231 -0.2425 -0.1049
11647TIP3    H156356  -0.040   4.739   0.538 -0.4802 -1.1342 -0.9110
11647TIP3    H256357   0.081   4.672   0.478  0.5172 -0.3185  0.1548
11648TIP3   OH256358   0.371   2.535   3.136 -0.4519 -0.0049 -0.5591
11648TIP3    H156359   0.380   2.490   3.220  0.8802  0.7380 -0.2833
11648TIP3    H256360   0.414   2.477   3.073  0.6916  0.5437 -0.3097
11649TIP3   OH256361   6.087   4.340  14.896 -0.3780  0.0727  0.0796
11649TIP3    H156362   6.098   4.392  14.817  1.3282  0.5189  0.5744
11649TIP3    H256363   6.003   4.295  14.883  0.5051 -1.0030 -2.6313
11650TIP3   OH256364   5.287   2.374   1.638 -0.0009 -0.1782  0.4855
11650TIP3    H156365   5.381   2.379   1.619 -0.1940  0.9769 -0.3054
11650TIP3    H256366   5.246   2.364   1.552 -0.6063 -0.7042  0.8283
11651TIP3   OH256367   1.199   0.103   0.906 -0.0534 -0.0938  0.0597
11651TIP3    H156368   1.276   0.138   0.949  0.3853 -3.2551  2.1708
11651TIP3    H256369   1.232   0.068   0.823  0.9618 -1.7578  1.1075
11652TIP3   OH256370   5.287   4.599  13.496 -0.0830 -0.2100 -0.0487
11652TIP3    H156371   5.325   4.591  13.583  1.1421 -2.1379 -0.7012
11652TIP3    H256372   5.339   4.668  13.453 -1.0109  1.0937  0.8561
11653TIP3   OH256373   0.064   3.655  15.202 -0.0962 -0.1479 -0.0954
11653TIP3    H156374   0.041   3.707  15.279  2.3482  1.1854 -0.1835
11653TIP3    H256375   0.109   3.578  15.237  0.9544  0.4251 -0.1435
11654TIP3   OH256376   0.122   0.211   2.716 -0.1136 -0.0076 -0.4888
11654TIP3    H156377   0.197   0.212   2.657 -1.3957  0.3141 -2.1902
11654TIP3    H256378   0.047   0.230   2.660 -1.4056  0.2994  1.2609
11655TIP3   OH256379   5.600   6.058  12.553 -0.1623 -0.5263  0.0608
11655TIP3    H156380   5.575   5.978  12.599  1.4616  0.3506  2.6611
11655TIP3    H256381   5.538   6.124  12.585 -0.2686 -0.3102 -0.5768
11656TIP3   OH256382   3.708   0.677  16.975  0.2899 -0.3743  0.3215
11656TIP3    H156383   3.713   0.757  16.922  0.2292  1.9752  3.5644
11656TIP3    H256384   3.799   0.656  16.995  0.2602 -0.2278  0.6281
11657TIP3   OH256385   5.788   0.661  14.656  0.3990 -0.0337  0.3099
11657TIP3    H156386   5.869   0.651  14.606  0.1735 -1.5148  0.1989
11657TIP3    H256387   5.816   0.654  14.747  0.4022 -0.5323  0.2725
11658TIP3   OH256388   0.989   6.429   2.977 -0.2592 -0.6727  0.0675
11658TIP3    H156389   0.966   6.337   2.988 -4.1532  0.1615  0.4151
11658TIP3    H256390   0.964   6.470   3.060  0.9668  0.7922 -0.2318
11659TIP3   OH256391   0.557   4.627  14.538  0.0984 -0.4645  0.3398
11659TIP3    H156392   0.514   4.587  14.463 -0.0138 -1.8041  1.0907
11659TIP3    H256393   0.572   4.555  14.599 -0.7083  0.7317  2.0413
11660TIP3   OH256394   0.417   2.637  16.641  0.2494 -0.2941 -0.1528
11660TIP3    H156395   0.468   2.627  16.721  1.1412 -1.8315 -0.8843
11660TIP3    H256396   0.394   2.730  16.639  2.9607  0.4672  0.2659
11661TIP3   OH256397   3.618   0.877   1.274 -0.4326  0.0556  0.9877
11661TIP3    H156398   3.604   0.863   1.180  0.1684 -0.1914  0.9292
11661TIP3    H256399   3.548   0.938   1.300  0.2514  1.2775  0.0796
11662TIP3   OH256400   3.845   4.673   4.378  0.8301 -0.1631  0.2029
11662TIP3    H156401   3.837   4.664   4.473 -0.6685  1.7842  0.3207
11662TIP3    H256402   3.790   4.603   4.342  0.6926 -0.3504  0.7764
11663TIP3   OH256403   3.026   1.788  13.617 -0.5197  0.3234 -0.4555
11663TIP3    H156404   2.987   1.875  13.612 -2.3602 -0.4209  0.0361
11663TIP3    H256405   3.083   1.791  13.694 -0.4503  1.1222 -0.5330
11664TIP3   OH256406   6.754   6.203   3.166  0.7089 -0.0107  0.2675
11664TIP3    H156407   6.782   6.165   3.083  1.6474  0.0108  0.5585
11664TIP3    H256408   6.672   6.159   3.187  0.9377 -0.6758 -0.2143
11665TIP3   OH256409   3.054   1.610   3.245 -0.0044  0.0478 -0.3042
11665TIP3    H156410   2.965   1.601   3.279  0.6925  0.0568  1.6063
11665TIP3    H256411   3.080   1.520   3.224  0.6502 -0.4148  2.1999
11666TIP3   OH256412   5.605   5.996   2.527 -0.4442 -0.4977 -0.3153
11666TIP3    H156413   5.639   6.033   2.608  0.5724 -1.5112 -0.2562
11666TIP3    H256414   5.531   6.052   2.504 -0.3427  0.1868  0.9594
11667TIP3   OH256415   2.655   2.065   1.135  0.2861 -0.5956 -0.0548
11667TIP3    H156416   2.684   2.049   1.046 -0.4584  1.3840 -0.7153
11667TIP3    H256417   2.561   2.048   1.133 -0.0616  1.1815 -0.1493
11668TIP3   OH256418   1.064   5.568   1.040 -0.0980 -0.1744 -0.2692
11668TIP3    H156419   1.057   5.488   0.987  1.0381 -2.0122  2.1740
11668TIP3    H256420   1.158   5.587   1.042 -0.3019  0.9287 -0.3361
11669TIP3   OH256421   5.036   4.012   2.347 -0.4042 -0.2171  0.8236
11669TIP3    H156422   5.116   4.062   2.364 -0.5985  0.4444 -0.1532
11669TIP3    H256423   5.066   3.933   2.302 -0.5101  1.4392 -2.3739
11670TIP3   OH256424   1.101   1.139   2.022 -0.0273 -0.1088  0.1886
11670TIP3    H156425   1.107   1.097   1.936  2.0369 -0.6317  0.5331
11670TIP3    H256426   1.144   1.224   2.009 -0.4267  0.1411  0.5141
11671TIP3   OH256427   4.085   2.017  12.049  0.3138  0.1178 -0.2750
11671TIP3    H156428   3.994   1.997  12.024  0.2306 -0.6791  0.5839
11671TIP3    H256429   4.097   2.108  12.024 -0.6443  0.1577 -0.6525
11672TIP3   OH256430   3.103   2.561   4.760  0.2819  0.2577  0.4729
11672TIP3    H156431   3.036   2.607   4.710 -0.0922 -1.0517 -0.2941
11672TIP3    H256432   3.185   2.582   4.716  0.4585  2.1038  1.5926
11673TIP3   OH256433   3.771   2.098  16.343  0.2033  0.0265  0.1449
11673TIP3    H156434   3.718   2.177  16.349  0.9653  0.8052 -2.1766
11673TIP3    H256435   3.711   2.030  16.312 -0.3975 -0.2886  1.9134
11674TIP3   OH256436   6.299   0.790   5.658  0.2253  0.4605  0.3783
11674TIP3    H156437   6.250   0.822   5.734  0.5448  2.8042 -0.3240
11674TIP3    H256438   6.355   0.864   5.633  0.3579 -0.3513 -1.9404
11675TIP3   OH256439   1.879   4.272  15.221 -0.0592  0.6990  0.0943
11675TIP3    H156440   1.872   4.195  15.165  0.9626 -0.2284  1.1905
11675TIP3    H256441   1.948   4.325  15.181 -0.3294  0.7555 -0.3077
11676TIP3   OH256442   3.863   2.529   3.235  0.1872  0.3939  0.4488
11676TIP3    H156443   3.956   2.529   3.212 -0.3851  0.0007 -2.1474
11676TIP3    H256444   3.834   2.440   3.218 -1.0311  0.9508 -0.5731
11677TIP3   OH256445   5.829   5.647   1.621 -0.2559 -0.0049 -0.1526
11677TIP3    H156446   5.789   5.562   1.642  0.6219  0.4442  4.3053
11677TIP3    H256447   5.920   5.638   1.648  0.0434  2.1056 -0.2890
11678TIP3   OH256448   6.487   5.589  14.280  0.4992  0.3651  0.8684
11678TIP3    H156449   6.470   5.543  14.363  0.3817  0.7512  1.0633
11678TIP3    H256450   6.517   5.521  14.221  0.2488  0.0213  1.1278
11679TIP3   OH256451   4.056   3.885   3.237  0.4890 -0.4020 -0.2065
11679TIP3    H156452   4.122   3.903   3.304  1.1196  0.3855 -1.0184
11679TIP3    H256453   4.100   3.904   3.154 -1.5566  3.0002 -0.7113
11680TIP3   OH256454   5.948   2.631  17.024  0.1466  0.3324  0.6292
11680TIP3    H156455   5.863   2.600  17.055 -0.4087  0.8097 -0.3576
11680TIP3    H256456   5.996   2.552  17.000 -0.9193  0.1544 -1.0309
11681TIP3   OH256457   2.353   5.043   4.680  0.7676 -0.2280  0.4736
11681TIP3    H156458   2.306   5.016   4.759  0.0810  0.8196  0.4400
11681TIP3    H256459   2.431   5.087   4.713  0.9027 -0.5266  0.5541
11682TIP3   OH256460   2.203   6.059   5.220 -0.0936  0.0742 -0.0902
11682TIP3    H156461   2.237   6.119   5.286 -2.8662  0.3915  1.2034
11682TIP3    H256462   2.178   5.981   5.270 -2.0533  0.2361 -0.7178
11683TIP3   OH256463   4.158   6.477  12.519  0.4711  0.2711  0.4500
11683TIP3    H156464   4.214   6.541  12.563  1.2054 -0.3970  0.5196
11683TIP3    H256465   4.112   6.527  12.452 -0.6323  1.3153  1.9192
11684TIP3   OH256466   6.630   5.321  17.060 -0.4673 -0.0914  0.0976
11684TIP3    H156467   6.686   5.332  16.984  0.3716 -1.9164  0.3866
11684TIP3    H256468   6.541   5.338  17.027 -0.0749 -0.4018 -1.1741
11685TIP3   OH256469   0.317   1.063   0.678 -0.1244 -0.0141 -0.0749
11685TIP3    H156470   0.411   1.055   0.699  0.0083  3.6116  1.4504
11685TIP3    H256471   0.285   1.131   0.737 -3.8811 -1.3370 -0.3058
11686TIP3   OH256472   1.464   4.495  15.569 -0.2297  0.4785  0.6179
11686TIP3    H156473   1.407   4.484  15.493 -0.3279 -0.2895  0.7965
11686TIP3    H256474   1.502   4.582  15.558 -0.5457  0.5314 -0.1054
11687TIP3   OH256475   0.232   2.367   2.878 -0.2537  0.1462  0.1768
11687TIP3    H156476   0.313   2.394   2.921 -0.8041 -0.5964  1.7940
11687TIP3    H256477   0.174   2.442   2.887 -0.6871 -0.3277  1.6892
11688TIP3   OH256478   5.543   4.924   2.761 -0.1083  0.3341  0.5295
11688TIP3    H156479   5.484   4.850   2.776 -0.2297  0.5355  1.0796
11688TIP3    H256480   5.498   4.977   2.695  0.2296 -0.3484 -0.2680
11689TIP3   OH256481   3.353   4.729   5.840 -0.2970  0.1236  0.3199
11689TIP3    H156482   3.281   4.780   5.878 -0.0915  0.1940  0.6168
11689TIP3    H256483   3.391   4.787   5.774 -2.2328 -0.8822 -1.8410
11690TIP3   OH256484   4.885   5.283  12.591  0.3950  0.5908 -0.3111
11690TIP3    H156485   4.927   5.230  12.658 -1.8015 -0.7334  0.1264
11690TIP3    H256486   4.901   5.235  12.509  0.8614  0.8173 -0.3562
11691TIP3   OH256487   0.599   5.533   2.788  0.0930 -0.7517 -0.6148
11691TIP3    H156488   0.570   5.624   2.776 -1.1917 -0.9858  0.4534
11691TIP3    H256489   0.666   5.539   2.856  1.9446 -0.3268 -2.3897
11692TIP3   OH256490   3.020   6.589   4.758  0.1097 -0.0933  0.7209
11692TIP3    H156491   3.103   6.553   4.727 -1.2009 -1.4661 -1.4550
11692TIP3    H256492   3.025   6.682   4.739  2.1124  0.3877  3.0594
11693TIP3   OH256493   1.495   1.488   1.224 -0.0858  0.0881 -0.4214
11693TIP3    H156494   1.519   1.434   1.299  1.8017  0.8814 -0.4026
11693TIP3    H256495   1.502   1.429   1.149  1.2378  0.0887 -0.3205
11694TIP3   OH256496   2.314   2.124  11.153 -0.2558  0.2556 -0.6842
11694TIP3    H156497   2.289   2.150  11.064 -0.7275  0.1042 -0.5995
11694TIP3    H256498   2.400   2.083  11.142 -0.1176  0.6238 -1.0079
11695TIP3   OH256499   0.649   0.661  13.438  0.4267  0.6519 -1.0379
11695TIP3    H156500   0.727   0.608  13.459 -0.9769 -1.3322 -0.5059
11695TIP3    H256501   0.637   0.649  13.344  1.5372  2.1600 -1.4169
11696TIP3   OH256502   1.821   4.713   5.686  0.3366 -0.1029  0.3021
11696TIP3    H156503   1.847   4.710   5.778 -0.1499  0.0184  0.4474
11696TIP3    H256504   1.896   4.751   5.641  0.2455  0.6451  0.7742
11697TIP3   OH256505   1.560   4.446  15.877 -0.1779  0.4412 -0.1870
11697TIP3    H156506   1.579   4.379  15.811 -1.5892  0.2882 -0.4912
11697TIP3    H256507   1.475   4.482  15.850  0.0039  1.5309  0.6366
11698TIP3   OH256508   3.486   3.378   4.975 -0.0406 -0.6929  0.4209
11698TIP3    H156509   3.487   3.403   4.882 -0.5142  0.2159  0.6409
11698TIP3    H256510   3.420   3.436   5.014 -1.0698 -2.2085  1.0238
11699TIP3   OH256511   2.295   6.200   0.655  0.3796 -0.3061  0.2597
11699TIP3    H156512   2.367   6.145   0.624 -1.2019 -1.4686 -1.5992
11699TIP3    H256513   2.238   6.139   0.703 -0.5387  0.0225 -0.3675
11700TIP3   OH256514   2.717   5.754  15.071 -0.0843 -0.0103 -0.9298
11700TIP3    H156515   2.772   5.742  15.149 -0.7383  1.5461 -0.1817
11700TIP3    H256516   2.764   5.818  15.019 -0.4515  0.1932 -1.0118
11701TIP3   OH256517   5.609   3.922  13.349  0.0422  0.0172 -1.2059
11701TIP3    H156518   5.676   3.970  13.301  2.2842 -0.9790  0.6985
11701TIP3    H256519   5.653   3.842  13.377 -1.5899 -0.1610  1.1288
11702TIP3   OH256520   2.893   4.126   2.911 -0.6813  0.0459  0.1632
11702TIP3    H156521   2.895   4.126   3.007  0.5461 -0.2241  0.1422
11702TIP3    H256522   2.926   4.040   2.886 -0.6056  0.2691 -0.5197
11703TIP3   OH256523   5.421   0.972  16.046 -0.0339  0.0682 -0.1805
11703TIP3    H156524   5.414   1.024  15.966 -3.6955 -1.4586 -1.0738
11703TIP3    H256525   5.352   1.007  16.103  0.4091 -0.9174  0.9829
11704TIP3   OH256526   1.176   4.785   3.737 -0.3935  0.4634  0.4588
11704TIP3    H156527   1.233   4.716   3.703  0.0892  1.5737 -1.1165
11704TIP3    H256528   1.190   4.783   3.832  3.9045  1.9489  0.0824
11705TIP3   OH256529   3.280   2.836  15.122  0.0872 -0.3767  0.2279
11705TIP3    H156530   3.187   2.826  15.104  0.2679 -0.4434 -0.7171
11705TIP3    H256531   3.306   2.914  15.073  0.5680 -0.4752  0.3217
11706TIP3   OH256532   4.241   5.211   1.259 -0.2325  0.0675  0.1800
11706TIP3    H156533   4.275   5.122   1.245 -1.3849 -0.4328  0.4836
11706TIP3    H256534   4.219   5.213   1.352 -2.4171 -0.1347 -0.2881
11707TIP3   OH256535   0.182   4.002   0.268 -0.4956  0.1607  0.3962
11707TIP3    H156536   0.147   3.976   0.182 -3.4072  0.1372  1.4754
11707TIP3    H256537   0.191   3.920   0.316  0.2718  0.2574  0.4293
11708TIP3   OH256538   0.476   5.722  16.262 -0.1159  0.1597 -0.2058
11708TIP3    H156539   0.527   5.750  16.186  1.0239  0.4342  0.6515
11708TIP3    H256540   0.499   5.783  16.331 -1.4487  0.1539  0.2823
11709TIP3   OH256541   4.605   2.775   0.967  0.5362 -0.5554  0.2382
11709TIP3    H156542   4.697   2.776   0.939  0.2835  1.0120 -0.6721
11709TIP3    H256543   4.609   2.787   1.062  1.2887  0.7993  0.0744
11710TIP3   OH256544   4.712   4.060   1.942  0.6674  0.0112 -0.7495
11710TIP3    H156545   4.684   4.148   1.965  0.3022 -0.2571 -0.1302
11710TIP3    H256546   4.675   4.044   1.855 -0.2356  0.0444 -0.3767
11711TIP3   OH256547   3.637   4.062   1.697 -0.4539 -0.3853  0.5688
11711TIP3    H156548   3.558   4.095   1.740 -0.9120 -0.4615 -0.1910
11711TIP3    H256549   3.702   4.055   1.767 -1.0396 -0.0604  1.1518
11712TIP3   OH256550   6.572   3.612  12.431 -0.4807  0.4489 -0.1763
11712TIP3    H156551   6.646   3.635  12.375  0.4420 -0.0369  0.8151
11712TIP3    H256552   6.498   3.601  12.370  0.6956 -1.0246 -1.4294
11713TIP3   OH256553   1.913   1.094  14.434  0.4063 -0.1790  0.0757
11713TIP3    H156554   1.990   1.039  14.428 -0.6734 -1.8288  0.6788
11713TIP3    H256555   1.946   1.183  14.430  2.1284 -0.8201 -2.2364
11714TIP3   OH256556   3.389   0.914  16.592  0.3018  0.3297  0.5684
11714TIP3    H156557   3.295   0.900  16.578  0.2533  0.8005  0.4139
11714TIP3    H256558   3.430   0.835  16.558 -0.0587 -0.0146  0.9112
11715TIP3   OH256559   2.421   4.965  11.126 -0.2608  0.2733  0.1879
11715TIP3    H156560   2.486   4.978  11.195  2.1742 -1.3756 -1.6124
11715TIP3    H256561   2.436   5.037  11.065 -0.0432 -0.1391 -0.2574
11716TIP3   OH256562   6.516   1.921  15.963 -0.1670  0.0439  0.1722
11716TIP3    H156563   6.505   1.835  15.921 -1.6031 -0.0895  0.7643
11716TIP3    H256564   6.566   1.902  16.042 -2.7844 -0.7722  1.7574
11717TIP3   OH256565   3.101   3.086  12.236 -0.4319 -0.2209 -0.3693
11717TIP3    H156566   3.158   3.160  12.257  0.0435 -0.7863  0.3762
11717TIP3    H256567   3.012   3.123  12.235 -0.2868  0.2049  0.8343
11718TIP3   OH256568   5.253   4.428  11.395 -0.3173 -0.1123 -0.3734
11718TIP3    H156569   5.268   4.518  11.425 -1.7779 -0.6761  2.2973
11718TIP3    H256570   5.327   4.410  11.337 -0.3647  3.0374 -1.6225
11719TIP3   OH256571   2.282   6.626  15.893 -0.2283  0.0972  0.7979
11719TIP3    H156572   2.352   6.679  15.930 -0.4088  0.4810  0.6020
11719TIP3    H256573   2.295   6.539  15.930 -0.1321  0.3605  1.3922
11720TIP3   OH256574   5.524   4.991  11.974 -0.4079 -0.3133 -0.0313
11720TIP3    H156575   5.546   4.941  12.053  0.3408  2.5710  1.7192
11720TIP3    H256576   5.562   4.940  11.903  1.6499 -1.4815  1.7773
11721TIP3   OH256577   6.337   0.058  14.211 -0.0939 -0.2606  0.6195
11721TIP3    H156578   6.342   0.145  14.172 -1.0485 -0.2610  0.4721
11721TIP3    H256579   6.269   0.013  14.160 -0.2689 -0.7714  1.2935
11722TIP3   OH256580   3.038   6.232   3.797 -0.3439  0.1321 -0.0403
11722TIP3    H156581   3.023   6.162   3.859 -0.4407 -0.0920 -0.3158
11722TIP3    H256582   3.107   6.199   3.739  0.3120  0.6463  0.4261
11723TIP3   OH256583   1.989   0.777   3.545  0.3094 -0.0967  0.4933
11723TIP3    H156584   1.997   0.851   3.605 -0.1414  0.7471 -0.4531
11723TIP3    H256585   1.913   0.729   3.577  0.6682 -0.2251  1.1794
11724TIP3   OH256586   2.377   6.246   4.677  0.3866  0.3218 -0.0435
11724TIP3    H156587   2.451   6.189   4.656  0.3695  0.8366 -1.6431
11724TIP3    H256588   2.389   6.268   4.769  1.8983 -0.0775 -0.1210
11725TIP3   OH256589   5.059   3.187   2.398  0.2226 -0.3672  0.4760
11725TIP3    H156590   5.004   3.204   2.475  0.1583 -1.4353  0.6823
11725TIP3    H256591   5.034   3.099   2.369  0.3254 -0.0232 -0.7099
11726TIP3   OH256592   1.651   3.972  16.807 -0.0792  0.0296 -0.2944
11726TIP3    H156593   1.583   3.955  16.742  1.8114 -0.5241 -2.2667
11726TIP3    H256594   1.723   3.913  16.783  0.3375 -1.0376  3.0521
11727TIP3   OH256595   5.362   5.952   5.548  0.0418 -0.2933  0.1678
11727TIP3    H156596   5.318   5.964   5.632  1.5334  0.9821  0.8150
11727TIP3    H256597   5.434   5.891   5.567  0.4473  0.0803 -0.1397
11728TIP3   OH256598   6.533   4.090   4.190 -0.4189 -0.2903  0.0512
11728TIP3    H156599   6.555   4.168   4.241  0.9263 -1.7799  1.9239
11728TIP3    H256600   6.504   4.026   4.256 -0.5816 -1.6697 -1.3007
11729TIP3   OH256601   2.215   1.779   2.576  0.1087 -0.0270 -0.1525
11729TIP3    H156602   2.203   1.693   2.535  1.2419 -0.4380  0.3399
11729TIP3    H256603   2.169   1.771   2.660  0.9704 -0.4821  0.2939
11730TIP3   OH256604   0.118   2.477   1.898  0.4052  0.1905  0.6811
11730TIP3    H156605   0.085   2.409   1.840 -0.0488  1.3364 -0.4338
11730TIP3    H256606   0.061   2.473   1.975  0.6666 -0.9639  0.8294
11731TIP3   OH256607   4.786   2.701   5.348  0.0944  0.2850  0.6698
11731TIP3    H156608   4.738   2.756   5.410  1.2078 -0.4194  2.2551
11731TIP3    H256609   4.765   2.611   5.375  2.1244 -0.0398  1.3392
11732TIP3   OH256610   4.369   3.798  15.487  0.4236 -0.4484 -0.0529
11732TIP3    H156611   4.380   3.727  15.424  0.1176  0.2681 -0.9360
11732TIP3    H256612   4.290   3.844  15.458  0.8531  0.5030  0.2407
11733TIP3   OH256613   6.175   5.512  13.418 -0.0391  0.2129  0.2717
11733TIP3    H156614   6.208   5.598  13.444  0.3528  0.3888 -0.7852
11733TIP3    H256615   6.081   5.517  13.434 -0.1475  1.1340 -0.5440
11734TIP3   OH256616   3.206   6.309  16.568 -0.3429  0.6938  0.2487
11734TIP3    H156617   3.252   6.276  16.492  0.6927  1.3188  0.5898
11734TIP3    H256618   3.165   6.231  16.607 -2.1171  0.5515 -1.7072
11735TIP3   OH256619   5.178   2.045  11.643 -0.1274 -0.3766 -0.8315
11735TIP3    H156620   5.091   2.069  11.610 -0.8384  1.2513  1.9056
11735TIP3    H256621   5.218   2.129  11.667  2.2155 -1.1005 -1.8914
11736TIP3   OH256622   1.645   5.581   3.761  0.4921  0.7115 -0.2100
11736TIP3    H156623   1.604   5.664   3.738  0.3580  0.5327 -0.6425
11736TIP3    H256624   1.600   5.516   3.706  2.3964  0.7143 -1.8949
11737TIP3   OH256625   4.364   2.988  16.556  0.4091 -0.1680  0.5035
11737TIP3    H156626   4.323   2.951  16.478  0.0806  1.3754 -0.1010
11737TIP3    H256627   4.298   3.048  16.592 -0.3940 -2.5163  3.3804
11738TIP3   OH256628   3.414   5.140  11.819  0.4865  0.2579  0.6641
11738TIP3    H156629   3.356   5.064  11.815 -0.4069  0.9025  1.0194
11738TIP3    H256630   3.498   5.108  11.787  0.4804 -1.2059  2.0310
11739TIP3   OH256631   0.684   5.801   0.081  0.2541 -0.1403 -0.3305
11739TIP3    H156632   0.778   5.814   0.093 -0.0251  0.1702  2.1323
11739TIP3    H256633   0.653   5.775   0.168 -2.4373  3.0965 -0.1228
11740TIP3   OH256634   4.228   3.040  13.012  0.5229  0.5176 -0.0697
11740TIP3    H156635   4.250   3.127  13.048  0.4227  0.0543  1.1730
11740TIP3    H256636   4.145   3.017  13.055  0.4574 -0.1187 -0.5262
11741TIP3   OH256637   4.595   3.996   3.796  0.1001 -0.5189  0.0180
11741TIP3    H156638   4.624   3.939   3.867 -1.7186 -2.3206 -0.5989
11741TIP3    H256639   4.608   4.085   3.830  2.7367 -1.2327  1.1314
11742TIP3   OH256640   0.103   0.634  15.057  0.3392  0.0300  0.1226
11742TIP3    H156641   0.180   0.637  15.114  0.7783 -1.3462 -0.3735
11742TIP3    H256642   0.117   0.706  14.995  0.8013  0.3121  0.5425
11743TIP3   OH256643   5.797   3.381   0.988  0.4323 -0.0346 -0.0526
11743TIP3    H156644   5.797   3.432   1.069 -2.2822 -2.1033  1.4400
11743TIP3    H256645   5.709   3.393   0.952  0.1402 -2.4668 -0.3314
11744TIP3   OH256646   5.523   5.517  15.187 -0.6133 -0.0548  0.4354
11744TIP3    H156647   5.496   5.497  15.097 -2.0477  1.3855  0.4990
11744TIP3    H256648   5.597   5.459  15.203 -0.1965 -0.2183 -1.7490
11745TIP3   OH256649   2.192   3.218   2.485 -0.4413  0.1344  0.3886
11745TIP3    H156650   2.142   3.290   2.525 -0.6061  0.0187  0.3911
11745TIP3    H256651   2.126   3.165   2.440 -0.2737  0.1744  0.0981
11746TIP3   OH256652   4.513   4.491  13.114 -0.2955 -0.1069  0.0181
11746TIP3    H156653   4.469   4.486  13.029 -1.5899  0.2040  0.6304
11746TIP3    H256654   4.606   4.485  13.094 -0.5524  0.3442 -1.4554
11747TIP3   OH256655   0.249   2.672   5.187  0.3912  0.0265  0.3239
11747TIP3    H156656   0.162   2.671   5.146  0.8137 -0.5672 -0.5839
11747TIP3    H256657   0.308   2.699   5.117  0.7094  2.7280  1.4886
11748TIP3   OH256658   4.936   1.919  13.825  0.0041 -0.1235 -0.1957
11748TIP3    H156659   4.903   1.830  13.823 -0.5169  0.0659 -1.9560
11748TIP3    H256660   4.878   1.965  13.886  0.6044 -1.0704  1.1359
11749TIP3   OH256661   1.832   1.130  12.912  0.0023  0.9383  0.2815
11749TIP3    H156662   1.781   1.200  12.954 -1.4464 -1.2444  2.4278
11749TIP3    H256663   1.779   1.105  12.836  1.4819  3.3161 -1.7024
11750TIP3   OH256664   0.594   1.881   4.496  0.3455  0.1544 -0.1988
11750TIP3    H156665   0.626   1.963   4.533  3.1190 -0.2337 -1.5278
11750TIP3    H256666   0.532   1.908   4.428 -1.7204  0.9465  1.8497
11751TIP3   OH256667   5.751   0.149   3.995 -0.5843  0.4760 -0.5086
11751TIP3    H156668   5.839   0.185   3.982 -0.8644  1.4149  0.1356
11751TIP3    H256669   5.753   0.112   4.083 -1.3733  2.2173  0.2950
11752TIP3   OH256670   1.611   6.237   5.580 -0.2729 -0.1480 -0.1455
11752TIP3    H156671   1.539   6.287   5.617  1.5462  2.1213  0.5909
11752TIP3    H256672   1.624   6.164   5.641 -2.7196 -1.4364 -1.0226
11753TIP3   OH256673   2.881   2.087   0.022 -0.3832  0.3145  0.0399
11753TIP3    H156674   2.833   2.168   0.039  1.0258  0.8798  1.4759
11753TIP3    H256675   2.969   2.103   0.056 -0.6797 -2.6073  2.5689
11754TIP3   OH256676   4.997   5.930  16.969 -0.1002 -0.0869  0.4002
11754TIP3    H156677   4.916   5.921  16.919 -0.1133 -0.8000  0.5455
11754TIP3    H256678   4.971   5.914  17.060 -0.0768  1.1988  0.6506
11755TIP3   OH256679   0.568   4.422   0.528 -0.8566 -0.0969  0.2797
11755TIP3    H156680   0.546   4.342   0.576 -0.5807 -0.5835 -0.3929
11755TIP3    H256681   0.660   4.410   0.503 -0.9510  0.2131 -0.2340
11756TIP3   OH256682   1.547   4.074   6.441 -0.3687  0.7391 -0.3354
11756TIP3    H156683   1.586   4.057   6.526  0.5605 -0.8322 -1.0292
11756TIP3    H256684   1.602   4.143   6.403  0.1415  0.3883 -0.2498
11757TIP3   OH256685   4.259   3.625  11.350  0.5481  0.1273 -0.1168
11757TIP3    H156686   4.264   3.693  11.283 -0.2707  1.1248  0.7913
11757TIP3    H256687   4.186   3.570  11.322  1.3844 -0.5631 -0.9963
11758TIP3   OH256688   4.475   4.090  14.797 -0.0863 -0.6200  0.2548
11758TIP3    H156689   4.534   4.164  14.814  1.1914 -1.3271 -0.9377
11758TIP3    H256690   4.395   4.113  14.844  0.5077  1.2024  0.4719
11759TIP3   OH256691   1.617   3.364  13.428  1.2805 -0.5182 -0.1664
11759TIP3    H156692   1.642   3.437  13.484 -2.2052  0.2958  0.5702
11759TIP3    H256693   1.612   3.402  13.340 -0.6392  0.2721  0.2326
11760TIP3   OH256694   1.798   5.825  12.973 -0.1494 -0.1208 -0.4468
11760TIP3    H156695   1.715   5.867  12.951 -0.1389  0.6401  0.8465
11760TIP3    H256696   1.862   5.870  12.918 -0.4496 -0.0096 -0.7142
11761TIP3   OH256697   1.872   3.563   0.923 -0.1385 -0.1425  0.7034
11761TIP3    H156698   1.832   3.531   1.003 -0.2021 -0.3843  0.5774
11761TIP3    H256699   1.966   3.548   0.936 -0.0803  0.4987  1.0307
11762TIP3   OH256700   4.163   6.684  13.680  0.1232  0.0565 -0.1622
11762TIP3    H156701   4.115   6.617  13.631 -0.2024 -0.2439  0.5490
11762TIP3    H256702   4.199   6.742  13.613 -0.9230  0.0739 -0.7286
11763TIP3   OH256703   6.756   2.233   1.376 -0.1499  0.0963  0.3194
11763TIP3    H156704   6.751   2.169   1.447 -1.2390  0.2345  0.3916
11763TIP3    H256705   6.839   2.215   1.332 -0.4949 -1.4561  0.2518
11764TIP3   OH256706   0.922   2.986   5.668 -0.5331 -0.5525  0.3386
11764TIP3    H156707   0.832   2.987   5.702  0.0450  1.1796  1.9988
11764TIP3    H256708   0.962   2.910   5.708 -0.6047  0.0377  1.5780
11765TIP3   OH256709   3.440   2.132   3.740  0.0633 -0.2541 -0.4527
11765TIP3    H156710   3.420   2.080   3.818  0.6531 -0.7723 -0.6376
11765TIP3    H256711   3.440   2.068   3.669 -4.1366  0.6581 -1.5834
11766TIP3   OH256712   3.042   5.604  11.337  0.3398  0.4559  0.1106
11766TIP3    H156713   3.072   5.542  11.404 -1.2856 -0.3035  0.1792
11766TIP3    H256714   3.114   5.608  11.274  1.6502  0.7078  1.5605
11767TIP3   OH256715   0.538   3.789  14.441 -0.5016  0.0740  0.7810
11767TIP3    H156716   0.549   3.865  14.384 -0.7717 -0.2884  0.2373
11767TIP3    H256717   0.553   3.823  14.529  0.9164  0.4384  0.4211
11768TIP3   OH256718   3.171   3.197   0.061  0.3214 -0.2007 -0.2979
11768TIP3    H156719   3.254   3.174   0.019  0.2182  0.5496 -0.9269
11768TIP3    H256720   3.194   3.215   0.152  0.4170 -2.7305  0.2599
11769TIP3   OH256721   0.459   5.747  12.665 -0.1954 -0.1291  0.5363
11769TIP3    H156722   0.486   5.655  12.664  2.4848  0.5422 -1.2235
11769TIP3    H256723   0.397   5.754  12.593 -0.2687 -0.5299  0.5547
11770TIP3   OH256724   4.576   3.256  13.927 -0.1974 -0.3206  0.0232
11770TIP3    H156725   4.654   3.305  13.953  0.1020 -2.1674  3.0717
11770TIP3    H256726   4.506   3.321  13.927  0.7359  0.7326  0.7380
11771TIP3   OH256727   6.066   0.771  13.208 -0.1188  0.1666  0.4480
11771TIP3    H156728   6.098   0.856  13.240  0.8356 -0.1576  0.3890
11771TIP3    H256729   6.113   0.758  13.126 -3.2584  1.4725 -1.7490
11772TIP3   OH256730   6.231   6.336  11.460  0.0210 -0.1491  0.1558
11772TIP3    H156731   6.176   6.265  11.428 -2.1778  0.9563  1.3039
11772TIP3    H256732   6.170   6.404  11.488  1.9060  0.6308  2.7460
11773TIP3   OH256733   2.819   1.455   2.686  0.0955 -0.2681 -0.2679
11773TIP3    H156734   2.758   1.513   2.640 -0.1942 -0.5040 -0.1851
11773TIP3    H256735   2.807   1.370   2.643  1.7366  0.0839 -1.5418
11774TIP3   OH256736   2.192   3.421   0.541  0.4241  0.1714  0.7975
11774TIP3    H156737   2.251   3.488   0.506 -0.2545  0.5771  0.4208
11774TIP3    H256738   2.142   3.391   0.465 -0.7184  0.7081  1.3063
11775TIP3   OH256739   3.771   5.660  11.550 -0.7120  0.4263  0.2129
11775TIP3    H156740   3.751   5.719  11.623 -0.1300 -0.2262  0.9097
11775TIP3    H256741   3.697   5.599  11.547 -0.6560  0.3501  0.3682
11776TIP3   OH256742   0.785   3.471  16.026 -0.4616 -0.6321  0.6078
11776TIP3    H156743   0.758   3.392  15.980 -2.4525 -0.2918  1.0667
11776TIP3    H256744   0.725   3.476  16.101 -0.6390  1.4925  0.3861
11777TIP3   OH256745   3.524   5.130   0.531 -0.1284 -0.2551 -0.3951
11777TIP3    H156746   3.563   5.217   0.544 -2.1621  0.6763 -0.2212
11777TIP3    H256747   3.575   5.092   0.460  2.3526  0.0763  1.0910
11778TIP3   OH256748   1.066   3.246  14.430  0.2229  0.6121 -0.7369
11778TIP3    H156749   0.990   3.296  14.402 -0.4501 -0.1557 -0.3392
11778TIP3    H256750   1.140   3.283  14.381 -0.4660  1.1283 -1.3933
11779TIP3   OH256751   4.400   2.035  14.514  0.1937 -0.3487  0.3106
11779TIP3    H156752   4.444   1.976  14.454  1.6341  3.2137 -2.5477
11779TIP3    H256753   4.323   2.066  14.466  1.3601  2.5653  0.0771
11780TIP3   OH256754   4.293   3.472   4.079 -0.3650 -0.1641  0.1555
11780TIP3    H156755   4.200   3.487   4.095 -0.1067  2.5642 -0.2843
11780TIP3    H256756   4.332   3.463   4.165 -0.8851 -0.0567  0.4037
11781TIP3   OH256757   1.222   2.113   2.306 -0.3269 -0.3168 -0.3279
11781TIP3    H156758   1.197   2.028   2.270  0.3750 -0.5604 -0.2702
11781TIP3    H256759   1.140   2.152   2.336 -0.7995 -0.5151 -1.3126
11782TIP3   OH256760   2.288   3.962  12.334 -0.0039  0.0332  0.0008
11782TIP3    H156761   2.324   3.874  12.318  2.3477  1.1597 -1.3908
11782TIP3    H256762   2.307   3.979  12.426  0.7273 -0.4037 -0.0650
11783TIP3   OH256763   0.832   0.814   1.902 -0.3574 -0.7554  0.1277
11783TIP3    H156764   0.879   0.821   1.819 -0.7420  0.2795 -0.0113
11783TIP3    H256765   0.786   0.730   1.896 -1.3486 -0.1585 -1.2332
11784TIP3   OH256766   0.642   5.949  14.924  0.4931 -0.4082  0.2773
11784TIP3    H156767   0.548   5.965  14.931  0.8607  1.3233  2.3019
11784TIP3    H256768   0.650   5.886  14.852 -2.3807 -2.4819  1.5880
11785TIP3   OH256769   5.821   3.091  13.825  0.1460  0.3055  0.4225
11785TIP3    H156770   5.779   3.154  13.884  0.3501  0.9563 -0.1048
11785TIP3    H256771   5.913   3.092  13.852 -0.2274 -1.5569  1.9627
11786TIP3   OH256772   2.504   6.508  11.420  0.4463 -0.7652  0.0426
11786TIP3    H156773   2.565   6.544  11.355 -0.7183 -0.3641 -0.8712
11786TIP3    H256774   2.479   6.583  11.473  0.1914 -0.7843 -0.0510
11787TIP3   OH256775   2.213   2.137   2.933 -0.2548 -0.2516 -0.2954
11787TIP3    H156776   2.134   2.123   2.882 -0.9201  3.7731 -0.6965
11787TIP3    H256777   2.195   2.095   3.018 -3.0543  0.9033 -0.2132
11788TIP3   OH256778   6.674   5.367   0.546 -0.2750  0.1476  0.0304
11788TIP3    H156779   6.692   5.276   0.567  0.8239  0.1113 -0.9720
11788TIP3    H256780   6.622   5.364   0.466 -0.2737  0.4084  0.0177
11789TIP3   OH256781   0.167   1.154   6.364 -0.6063  0.2023  0.4806
11789TIP3    H156782   0.155   1.245   6.336 -0.5578 -0.6334 -2.6284
11789TIP3    H256783   0.098   1.106   6.320  0.0582 -1.4574  1.1525
11790TIP3   OH256784   6.179   0.270  12.352 -0.0761 -0.5785  0.2443
11790TIP3    H156785   6.118   0.337  12.384  1.6114  1.1011  0.1131
11790TIP3    H256786   6.196   0.214  12.428 -0.3918  0.0090  0.7504
11791TIP3   OH256787   5.479   2.255   5.160  0.0033 -0.4385 -0.2429
11791TIP3    H156788   5.551   2.263   5.223 -0.7419  0.2114  0.5525
11791TIP3    H256789   5.442   2.343   5.153 -0.8940 -0.8141 -0.4124
11792TIP3   OH256790   6.424   5.254  13.101 -0.0375  0.2908 -0.5482
11792TIP3    H156791   6.361   5.220  13.038  0.1968 -0.5852 -0.3256
11792TIP3    H256792   6.433   5.184  13.166  0.9627  0.5009 -0.4425
11793TIP3   OH256793   1.938   1.711  12.350  0.4314  0.0277 -0.3323
11793TIP3    H156794   1.998   1.642  12.326  0.2343  0.2724 -1.5627
11793TIP3    H256795   1.853   1.684  12.314  0.0757  0.3058  0.2639
11794TIP3   OH256796   1.738   3.465   5.640 -0.8010  0.3095 -0.0277
11794TIP3    H156797   1.700   3.378   5.646 -0.0272 -0.1554 -1.3815
11794TIP3    H256798   1.713   3.508   5.722  0.0049 -1.6537  1.3395
11795TIP3   OH256799   4.012   6.511  14.665  0.3657  0.2395 -0.4478
11795TIP3    H156800   3.978   6.445  14.605  0.4906  1.0421 -1.4298
11795TIP3    H256801   4.074   6.464  14.721  1.4526 -0.2498 -1.9953
11796TIP3   OH256802   0.931   6.271   5.548 -0.1319  0.4381 -0.4033
11796TIP3    H156803   0.941   6.274   5.453 -1.3969 -2.4884 -0.7323
11796TIP3    H256804   0.845   6.309   5.564 -1.1191 -1.4769 -0.8054
11797TIP3   OH256805   5.987   5.488  16.307  0.0143  0.4222 -0.0471
11797TIP3    H156806   5.933   5.564  16.284 -0.9313 -0.3613 -0.4930
11797TIP3    H256807   5.953   5.418  16.252  2.6144  0.2902 -1.6586
11798TIP3   OH256808   4.479   6.381  11.430 -0.0737  0.3291  0.1565
11798TIP3    H156809   4.399   6.388  11.377 -0.7541 -0.9400  0.9540
11798TIP3    H256810   4.449   6.392  11.520  0.1912 -2.3906  0.6853
11799TIP3   OH256811   3.787   2.444  12.805 -0.2555 -0.2760 -0.0732
11799TIP3    H156812   3.846   2.486  12.742  0.8817 -0.9525  0.5046
11799TIP3    H256813   3.831   2.361  12.826  0.1144  0.5415  2.6792
11800TIP3   OH256814   1.293   3.417   0.350 -0.6828  0.5256  0.0934
11800TIP3    H156815   1.346   3.409   0.429  0.1475 -0.9709 -0.5683
11800TIP3    H256816   1.213   3.462   0.379 -0.2256  0.3793  1.6798
11801TIP3   OH256817   6.215   5.040  13.651 -0.2144 -0.1231  0.7238
11801TIP3    H156818   6.273   4.970  13.623  0.2163 -0.2903  1.9512
11801TIP3    H256819   6.197   5.021  13.743 -3.1748 -0.7232  0.1190
11802TIP3   OH256820   6.723   1.250  13.039  0.0963 -0.0750  0.6956
11802TIP3    H156821   6.740   1.344  13.045  0.0208  0.0219 -0.4003
11802TIP3    H256822   6.703   1.223  13.129  1.3029  0.7162  1.2207
11803TIP3   OH256823   2.273   2.870   4.678 -1.0709 -0.2024 -0.5589
11803TIP3    H156824   2.196   2.817   4.699  0.2050 -1.3835  1.4714
11803TIP3    H256825   2.291   2.919   4.758 -1.5441  2.5796 -2.0271
11804TIP3   OH256826   2.986   1.673   0.857  0.6950  0.4439 -0.4480
11804TIP3    H156827   2.924   1.735   0.818 -0.8076 -1.3926 -1.1442
11804TIP3    H256828   2.976   1.685   0.952 -1.4594 -0.3954 -0.5039
11805TIP3   OH256829   3.842   2.608  11.655 -0.5872 -0.2268 -0.0211
11805TIP3    H156830   3.762   2.646  11.691 -0.7663 -0.4592 -0.1806
11805TIP3    H256831   3.855   2.527  11.704  0.7044  0.8314  1.5130
11806TIP3   OH256832   0.174   1.026  15.714 -0.5310  0.8395 -0.1768
11806TIP3    H156833   0.125   1.106  15.735  0.3742  1.4637 -0.4182
11806TIP3    H256834   0.262   1.056  15.692  0.4403 -0.3772  1.7576
11807TIP3   OH256835   6.290   2.993   3.460 -0.5674  0.0706  0.0055
11807TIP3    H156836   6.376   2.998   3.502  0.3641 -3.0277 -1.2100
11807TIP3    H256837   6.228   2.983   3.532  0.6838 -2.3667  0.8722
11808TIP3   OH256838   2.768   2.948  15.933 -0.8805 -0.2062  0.5418
11808TIP3    H156839   2.758   2.890  15.858  2.3077  0.7764 -0.8269
11808TIP3    H256840   2.713   3.023  15.913 -1.0952 -0.5385 -0.1572
11809TIP3   OH256841   3.029   5.528   2.584  0.0466  0.0193 -0.4254
11809TIP3    H156842   3.055   5.436   2.580  1.2331  0.1052  2.8680
11809TIP3    H256843   3.095   5.574   2.532  0.2926 -0.8018 -0.8636
11810TIP3   OH256844   0.773   6.009   4.147  0.1224  0.2096  0.1142
11810TIP3    H156845   0.714   6.065   4.197 -1.0150  0.4770 -1.4429
11810TIP3    H256846   0.791   6.059   4.067  0.1665 -1.0537 -0.6940
11811TIP3   OH256847   4.170   6.207  13.366  0.0369 -0.7398  0.5329
11811TIP3    H156848   4.130   6.131  13.409 -0.6501 -0.4844  0.3432
11811TIP3    H256849   4.177   6.181  13.274  1.6193 -1.3350  0.7772
11812TIP3   OH256850   2.591   0.277   6.129 -0.0536  0.2980 -0.0021
11812TIP3    H156851   2.637   0.352   6.091 -1.8749  1.4636 -0.0009
11812TIP3    H256852   2.646   0.250   6.203 -0.5090  3.2250  1.5656
11813TIP3   OH256853   1.622   6.047   2.947 -0.3950 -0.3597 -0.6756
11813TIP3    H156854   1.695   6.084   2.997 -1.3621 -1.1209  1.4411
11813TIP3    H256855   1.657   5.966   2.911  0.0728 -0.2636 -0.4431
11814TIP3   OH256856   0.002   3.322  12.493  0.5257  0.3172  0.9880
11814TIP3    H156857   0.057   3.315  12.415 -0.1003 -0.1350  0.5776
11814TIP3    H256858   0.029   3.404  12.534  0.4860  0.8419 -0.0005
11815TIP3   OH256859   4.062   0.563  13.958 -0.3879 -0.4041 -0.4968
11815TIP3    H156860   4.071   0.648  13.915 -0.7801  0.1972  0.5792
11815TIP3    H256861   3.969   0.556  13.980 -0.8100 -2.0723 -2.4293
11816TIP3   OH256862   0.949   1.029   4.354  0.0711 -0.6360  0.2239
11816TIP3    H156863   1.025   1.085   4.343  0.5983 -1.1544  1.1391
11816TIP3    H256864   0.932   1.030   4.448  0.4134 -2.4185  0.3289
11817TIP3   OH256865   4.015   4.807  16.268  0.1170 -0.2238  0.4544
11817TIP3    H156866   4.010   4.719  16.304 -1.0691  0.5189  2.2951
11817TIP3    H256867   3.935   4.817  16.217 -0.2748  0.1094  1.1173
11818TIP3   OH256868   2.487   6.671  13.602 -0.1228  0.1523  0.2587
11818TIP3    H156869   2.435   6.608  13.553 -1.3580  1.6412 -0.4142
11818TIP3    H256870   2.564   6.686  13.548 -0.2852 -0.0658 -0.0367
11819TIP3   OH256871   1.400   5.912  16.093 -0.4045 -0.1663  0.2633
11819TIP3    H156872   1.432   5.825  16.119 -1.5862 -0.5025  0.6494
11819TIP3    H256873   1.376   5.901  16.001 -1.4537 -0.5381  0.5638
11820TIP3   OH256874   4.350   6.302  11.173 -0.3761  0.2531  1.0222
11820TIP3    H156875   4.321   6.239  11.107 -0.4952  0.8496  0.4967
11820TIP3    H256876   4.268   6.336  11.210 -0.3222  0.6981  0.7294
11821TIP3   OH256877   4.514   2.688   4.667 -0.0536 -0.3602  0.9518
11821TIP3    H156878   4.424   2.676   4.699 -0.3552 -1.0301 -0.0864
11821TIP3    H256879   4.540   2.775   4.699 -0.4738 -0.7957  2.6134
11822TIP3   OH256880   4.436   3.623  11.972 -0.4661 -0.2126  0.7241
11822TIP3    H156881   4.365   3.569  12.006  0.2060  1.2172  5.1434
11822TIP3    H256882   4.516   3.582  12.006  0.1715  2.2520  2.5257
11823TIP3   OH256883   2.211   0.649  13.738 -0.9832 -0.3212 -0.1597
11823TIP3    H156884   2.139   0.591  13.764 -1.4569  0.6410  0.7381
11823TIP3    H256885   2.193   0.731  13.783 -0.1362  0.4280 -1.1503
11824TIP3   OH256886   2.346   5.992   4.825  0.1932  0.5209 -0.6392
11824TIP3    H156887   2.396   5.966   4.903 -1.7614  0.3765  0.6513
11824TIP3    H256888   2.281   6.053   4.859 -1.8642 -0.9036 -1.8087
11825TIP3   OH256889   0.984   1.865  13.424 -0.0786 -0.1293 -0.3645
11825TIP3    H156890   1.070   1.855  13.383 -0.1224 -1.1639 -0.2179
11825TIP3    H256891   0.922   1.862  13.351 -0.0453 -0.2032 -0.3893
11826TIP3   OH256892   1.582   4.372  12.156  0.0204  0.6567  0.2302
11826TIP3    H156893   1.530   4.443  12.194 -1.8272  0.0830 -1.0909
11826TIP3    H256894   1.521   4.325  12.100  2.0236  0.0363 -1.5764
11827TIP3   OH256895   0.507   5.784   5.452  0.3221 -0.2255  0.1639
11827TIP3    H156896   0.517   5.838   5.531  1.6701  0.7206 -0.6118
11827TIP3    H256897   0.447   5.834   5.396  1.3545  0.3753 -0.4391
11828TIP3   OH256898   5.380   4.131  13.343  0.3366  0.0780  0.4069
11828TIP3    H156899   5.429   4.052  13.319 -0.2549  0.0186 -0.6760
11828TIP3    H256900   5.423   4.201  13.294  0.9389  0.4710  1.4633
11829TIP3   OH256901   0.674   3.661   3.810  0.3739 -0.9000 -0.4645
11829TIP3    H156902   0.645   3.648   3.900  0.8525  1.1847  0.0367
11829TIP3    H256903   0.600   3.634   3.756  0.0444 -2.0733  0.5396
11830TIP3   OH256904   4.315   0.616   4.179 -0.0815 -0.2078  0.7183
11830TIP3    H156905   4.252   0.575   4.238 -1.1409  0.0002 -0.2315
11830TIP3    H256906   4.263   0.677   4.126  0.7599 -0.6083 -0.6438
11831TIP3   OH256907   2.460   3.958   4.341  0.0551  0.0491 -0.6002
11831TIP3    H156908   2.502   3.872   4.342 -0.4982 -0.2225  0.1591
11831TIP3    H256909   2.441   3.975   4.249  1.0046 -0.2171 -0.8639
11832TIP3   OH256910   0.594   1.945   3.867  0.0376  0.0687  0.6097
11832TIP3    H156911   0.577   2.025   3.917 -1.4930  0.6793 -0.8030
11832TIP3    H256912   0.511   1.926   3.823  0.5921 -1.8886  0.3174
11833TIP3   OH256913   4.059   3.801  16.815  0.4088 -0.2838  0.4848
11833TIP3    H156914   4.016   3.787  16.730  0.0530 -0.8126  0.7470
11833TIP3    H256915   4.111   3.880  16.803  1.4119 -1.0823 -0.6466
11834TIP3   OH256916   4.120   2.943   5.339 -0.5284 -0.3308 -0.5426
11834TIP3    H156917   4.072   2.926   5.420  1.2483 -2.0530  0.2191
11834TIP3    H256918   4.201   2.986   5.367 -1.2989  2.1635 -1.7700
11835TIP3   OH256919   6.029   6.019  15.608 -0.0436 -0.6335 -0.1275
11835TIP3    H156920   5.991   6.028  15.696 -0.9263 -1.1337 -0.4474
11835TIP3    H256921   6.119   5.989  15.624  0.2117  0.4714  0.6367
11836TIP3   OH256922   2.765   4.253  14.581  0.8488  0.1375 -0.2507
11836TIP3    H156923   2.856   4.224  14.572  1.0287  0.5512  0.1596
11836TIP3    H256924   2.715   4.194  14.524  1.2737 -0.5960  0.1152
11837TIP3   OH256925   2.723   6.629  13.283 -0.2541  0.1751  0.1889
11837TIP3    H156926   2.690   6.559  13.339  1.8364 -0.4832  0.7167
11837TIP3    H256927   2.803   6.659  13.328  1.1897 -0.0013 -2.1133
11838TIP3   OH256928   5.095   3.733  13.534  0.2875 -0.3745  0.4496
11838TIP3    H156929   5.168   3.790  13.509  0.8400 -1.9202 -1.6590
11838TIP3    H256930   5.078   3.679  13.457 -3.0523 -0.1661  0.8838
11839TIP3   OH256931   1.146   6.760  14.352  0.9016 -0.3291 -0.5319
11839TIP3    H156932   1.092   6.682  14.362 -0.4242  0.7011  0.7154
11839TIP3    H256933   1.136   6.784  14.260 -0.5346 -0.3424 -0.4024
11840TIP3   OH256934   4.690   4.853  10.920  0.6023 -0.0820 -0.4612
11840TIP3    H156935   4.697   4.945  10.894 -1.5107  0.9801  2.1202
11840TIP3    H256936   4.758   4.841  10.987  0.9839 -0.4547 -0.9120
11841TIP3   OH256937   1.617   5.793   2.734 -0.4620 -0.4896  0.0045
11841TIP3    H156938   1.712   5.802   2.728 -0.3887 -1.3431 -0.2629
11841TIP3    H256939   1.583   5.869   2.686  0.1053 -1.1611 -1.5528
11842TIP3   OH256940   0.319   1.583   0.900 -0.9259 -0.5985 -0.0173
11842TIP3    H156941   0.248   1.623   0.850  0.2168  1.7726  0.1427
11842TIP3    H256942   0.370   1.535   0.835 -0.5811  0.8066 -0.8164
11843TIP3   OH256943   5.860   0.196   5.284 -0.2866  0.3678 -0.0117
11843TIP3    H156944   5.869   0.291   5.289  0.8857  0.2356  0.7939
11843TIP3    H256945   5.863   0.167   5.375 -1.0304 -0.4170 -0.2242
11844TIP3   OH256946   3.338   0.259  16.281  0.4399  0.0999 -0.4520
11844TIP3    H156947   3.248   0.227  16.270 -0.3966  2.9022 -3.3340
11844TIP3    H256948   3.342   0.290  16.371 -1.8438  0.8448 -0.5473
11845TIP3   OH256949   6.008   6.772   3.291  0.2243 -0.5470  0.6320
11845TIP3    H156950   5.922   6.775   3.333 -1.1348  1.4185 -1.9628
11845TIP3    H256951   6.070   6.790   3.361 -1.8610  2.4078  1.9375
11846TIP3   OH256952   6.211   1.112  16.587  0.3424 -0.4986  0.5125
11846TIP3    H156953   6.142   1.046  16.584  2.7878 -3.2557 -0.8315
11846TIP3    H256954   6.182   1.181  16.527 -1.6044 -1.1253  0.6833
11847TIP3   OH256955   0.255   0.145  15.109  0.1169 -0.0228 -0.8001
11847TIP3    H156956   0.319   0.189  15.053  1.1722  0.2575  0.5865
11847TIP3    H256957   0.307   0.106  15.179 -1.3649  1.9538  1.5392
11848TIP3   OH256958   5.095   1.930   3.097 -0.3946  0.1198 -0.1100
11848TIP3    H156959   5.072   1.991   3.168  2.2102  1.9396 -0.6835
11848TIP3    H256960   5.176   1.889   3.127 -0.1990 -0.3923 -1.3112
11849TIP3   OH256961   1.277   4.619   1.217 -0.4884  0.5868  0.2458
11849TIP3    H156962   1.329   4.621   1.298 -0.5345  4.6207  0.3931
11849TIP3    H256963   1.341   4.637   1.148 -1.1470  2.5633  0.0914
11850TIP3   OH256964   3.289   6.190   6.025  0.0908 -0.3938 -0.0505
11850TIP3    H156965   3.339   6.220   6.102  2.1965 -0.5225 -1.2774
11850TIP3    H256966   3.213   6.146   6.061  1.8007 -1.8355  2.0561
11851TIP3   OH256967   2.518   3.404  11.493 -0.1350  0.0179 -0.3459
11851TIP3    H156968   2.454   3.361  11.550 -0.4171  0.2807 -0.4585
11851TIP3    H256969   2.513   3.497  11.518  0.9219 -0.0931  0.3398
11852TIP3   OH256970   3.572   3.136   1.615 -0.6226  0.3317 -0.7019
11852TIP3    H156971   3.549   3.124   1.708 -1.8616  1.7779 -0.7769
11852TIP3    H256972   3.579   3.047   1.581 -1.4032 -0.2270  0.5018
11853TIP3   OH256973   4.751   5.622   6.672  0.8243 -0.3623  0.0860
11853TIP3    H156974   4.681   5.605   6.735 -0.0627  0.5219 -0.6252
11853TIP3    H256975   4.711   5.678   6.606  2.7484  1.9615  0.7371
11854TIP3   OH256976   3.006   1.973  11.278  0.3996  0.3084 -0.3143
11854TIP3    H156977   3.034   2.007  11.193 -1.2722  1.9713 -0.2565
11854TIP3    H256978   3.016   2.047  11.338 -1.2416  0.0907  0.2882
11855TIP3   OH256979   5.813   5.997  15.229  0.2885  0.7455 -0.8357
11855TIP3    H156980   5.758   6.074  15.213 -0.4605  0.1898 -0.9900
11855TIP3    H256981   5.821   5.955  15.144  0.4170  0.4752 -0.6916
11856TIP3   OH256982   4.015   6.685   6.136 -0.1964 -0.7800 -0.5557
11856TIP3    H156983   4.006   6.612   6.196 -2.0485 -0.6775 -0.6398
11856TIP3    H256984   3.972   6.758   6.181 -0.2037 -0.2936 -1.3311
11857TIP3   OH256985   5.972   6.048   1.271  0.1390 -0.3054  0.1182
11857TIP3    H156986   6.044   6.050   1.335  3.9895 -2.3825 -3.6182
11857TIP3    H256987   5.915   5.977   1.302  2.1330 -1.5720  1.1093
11858TIP3   OH256988   2.346   3.116  17.158  0.1952 -0.0875 -0.4614
11858TIP3    H156989   2.410   3.054  17.125  1.1781 -0.1565  1.4449
11858TIP3    H256990   2.279   3.062  17.200  1.4136  0.0454  1.8416
11859TIP3   OH256991   2.291   5.423  15.242  0.6094  0.1380  0.0486
11859TIP3    H156992   2.327   5.511  15.243  0.4784  0.1986 -0.2966
11859TIP3    H256993   2.206   5.431  15.284  1.0872 -0.0503  1.0813
11860TIP3   OH256994   4.507   5.530   1.251  0.2466  0.2266  0.4743
11860TIP3    H156995   4.593   5.518   1.212  1.4565 -0.4647  3.0981
11860TIP3    H256996   4.502   5.624   1.270  0.7711  0.1627  0.9681
11861TIP3   OH256997   0.918   5.390  12.706 -0.3984  0.2282 -0.1793
11861TIP3    H156998   0.957   5.352  12.785  1.3825  1.6298 -0.3239
11861TIP3    H256999   0.941   5.328  12.636  1.2943  0.8303 -0.1927
11862TIP3   OH257000   0.983   3.498   3.888  0.3104 -0.1607  0.2083
11862TIP3    H157001   0.896   3.513   3.925  0.7457 -1.7238  2.0520
11862TIP3    H257002   0.968   3.442   3.812 -0.2722 -0.8736  0.8369
11863TIP3   OH257003   4.793   3.805  14.990 -0.7597 -0.1236  0.4128
11863TIP3    H157004   4.770   3.787  15.081 -0.5400 -1.6744  0.1889
11863TIP3    H257005   4.717   3.775  14.940 -0.9863  0.9539  0.0699
11864TIP3   OH257006   2.575   6.016  15.710 -0.1133  0.2616  0.2431
11864TIP3    H157007   2.632   5.946  15.743 -0.1363 -0.1279 -0.5292
11864TIP3    H257008   2.504   5.970  15.667 -0.9827  0.7530  1.1142
11865TIP3   OH257009   0.546   0.152  16.763 -0.1740  0.5805  0.4145
11865TIP3    H157010   0.612   0.222  16.770 -0.0870  0.4476  0.9582
11865TIP3    H257011   0.462   0.198  16.768 -0.1176  0.6127  1.2265
11866TIP3   OH257012   6.602   3.662   3.481 -0.4832 -0.0980  0.4085
11866TIP3    H157013   6.605   3.711   3.399  0.5274 -1.1302 -0.1918
11866TIP3    H257014   6.581   3.573   3.455  0.5865 -0.5939  1.1750
11867TIP3   OH257015   6.032   3.610  10.352 -0.0620 -0.2394 -0.0381
11867TIP3    H157016   6.118   3.651  10.351  0.0897 -0.5671 -0.6934
11867TIP3    H257017   6.049   3.518  10.371 -0.0548 -0.7548 -2.2671
11868TIP3   OH257018   4.440   3.432  14.119 -0.0573 -0.0361 -0.0278
11868TIP3    H157019   4.458   3.406  14.210 -1.0322 -0.5812  0.0205
11868TIP3    H257020   4.366   3.378  14.093 -0.8979  1.3496 -0.5832
11869TIP3   OH257021   4.918   2.265  11.723 -0.3013 -0.0297 -0.6516
11869TIP3    H157022   4.839   2.309  11.691 -0.4917  0.4344  0.4253
11869TIP3    H257023   4.912   2.271  11.818  0.5677 -0.8246 -0.5348
11870TIP3   OH257024   1.946   6.080   5.409 -0.0628 -0.1909  0.8830
11870TIP3    H157025   1.872   6.071   5.349 -0.5904 -0.4296  1.5537
11870TIP3    H257026   1.951   5.995   5.452  0.8462 -0.3000  0.5802
11871TIP3   OH257027   4.442   0.017  16.676  0.3357  0.5834  0.2319
11871TIP3    H157028   4.430   0.112  16.668  0.0326  0.5845  0.7070
11871TIP3    H257029   4.414  -0.004  16.765 -0.5524 -0.1062 -0.1932
11872TIP3   OH257030   1.862   1.289   6.293 -0.1531  0.1716  0.1504
11872TIP3    H157031   1.929   1.227   6.320  0.0361  0.3637  0.1310
11872TIP3    H257032   1.780   1.250   6.321 -0.1491 -0.6557 -0.9134
11873TIP3   OH257033   6.242   6.555   1.553 -0.1542 -0.8361 -0.2476
11873TIP3    H157034   6.158   6.599   1.568  0.6199  0.8769 -0.6901
11873TIP3    H257035   6.293   6.574   1.632 -0.0045 -1.4736 -0.1835
11874TIP3   OH257036   5.059   5.536  13.980  0.0461 -0.5512 -0.3363
11874TIP3    H157037   5.031   5.479  13.910  1.0672 -1.7322  0.1708
11874TIP3    H257038   4.997   5.609  13.979  0.1129 -0.4682 -2.5155
11875TIP3   OH257039   3.268   4.399   6.689 -0.6013  0.0812  0.2715
11875TIP3    H157040   3.328   4.461   6.730  0.7168  0.0187 -1.4564
11875TIP3    H257041   3.310   4.313   6.703 -0.1530  0.0573 -1.1017
11876TIP3   OH257042   3.863   2.086   0.377  0.1504 -1.0021  0.1243
11876TIP3    H157043   3.786   2.030   0.371 -0.0134 -0.7962  0.2954
11876TIP3    H257044   3.840   2.153   0.441 -0.9843  1.2882 -2.4385
11877TIP3   OH257045   1.848   4.015  14.354  0.2973 -0.0533  0.2451
11877TIP3    H157046   1.852   4.093  14.299 -1.1100  0.4377  0.8052
11877TIP3    H257047   1.871   4.046  14.442  1.0657 -0.5447  0.2265
11878TIP3   OH257048   1.942   1.651  13.024  0.7024 -0.9716  0.4257
11878TIP3    H157049   2.027   1.632  13.064  1.0757 -0.4656 -0.0979
11878TIP3    H257050   1.898   1.709  13.087  2.2829  1.8679 -0.8922
11879TIP3   OH257051   4.465   3.340  16.887  0.2388 -0.2479 -0.4092
11879TIP3    H157052   4.547   3.364  16.845  0.4993  0.3085  0.3863
11879TIP3    H257053   4.398   3.384  16.835  0.6446  1.5235  0.4666
11880TIP3   OH257054   1.218   0.080  11.161 -0.2554 -0.6107  0.2914
11880TIP3    H157055   1.215   0.025  11.083  0.0135 -0.1197 -0.0710
11880TIP3    H257056   1.305   0.119  11.160 -1.1838  1.6443 -0.7465
11881TIP3   OH257057   3.536   1.768  13.015  0.1428 -0.0004 -0.4084
11881TIP3    H157058   3.540   1.772  13.111  1.8949 -0.1704 -0.4381
11881TIP3    H257059   3.515   1.676  12.997  0.4676 -0.1208 -0.1896
11882TIP3   OH257060   4.001   6.455   0.308  0.1951 -0.1680  0.0993
11882TIP3    H157061   4.054   6.512   0.363  1.1642 -0.8719 -0.0839
11882TIP3    H257062   4.024   6.366   0.335 -0.7782 -0.5025 -0.0952
11883TIP3   OH257063   2.709   2.848   2.003  0.1582  0.4675 -0.0925
11883TIP3    H157064   2.714   2.754   2.018  0.5882  0.8145  2.3096
11883TIP3    H257065   2.621   2.863   1.970 -0.0670 -0.7197 -0.0507
11884TIP3   OH257066   0.478   3.334   4.300  0.3147  0.3821  0.0890
11884TIP3    H157067   0.571   3.320   4.284  0.4028  0.3778  0.5709
11884TIP3    H257068   0.472   3.348   4.395 -0.2479 -0.2214  0.1550
11885TIP3   OH257069   6.488   4.004  16.225  0.4667  0.1783  0.6311
11885TIP3    H157070   6.500   4.009  16.130  1.7184  0.2058  0.7769
11885TIP3    H257071   6.571   4.034  16.262  0.6347 -1.4738  1.7179
11886TIP3   OH257072   2.267   6.618   3.967  0.6199  0.0432 -0.3026
11886TIP3    H157073   2.306   6.533   3.986  3.6603  1.1593 -0.8599
11886TIP3    H257074   2.217   6.603   3.887  0.8279 -1.2870 -0.2163
11887TIP3   OH257075   1.284   1.413  15.224 -0.1071  0.4993  0.5473
11887TIP3    H157076   1.229   1.372  15.291  0.9348  0.3914  1.3762
11887TIP3    H257077   1.352   1.458  15.274  2.2752 -1.7769 -0.4196
11888TIP3   OH257078   1.108   0.417   2.740  0.1241 -0.0562 -0.7538
11888TIP3    H157079   1.190   0.410   2.789 -0.9532 -2.6762  0.8645
11888TIP3    H257080   1.042   0.435   2.807 -0.9591 -0.5883 -1.6526
11889TIP3   OH257081   4.448   3.445   2.318  0.1940 -0.0095 -0.3025
11889TIP3    H157082   4.434   3.539   2.328  0.8280  0.0372  0.2686
11889TIP3    H257083   4.461   3.433   2.224 -1.3846  0.2401 -0.5818
11890TIP3   OH257084   1.728   5.062  11.357 -0.0309 -0.5060 -0.1770
11890TIP3    H157085   1.676   5.001  11.305 -1.5394  1.2296 -0.8048
11890TIP3    H257086   1.669   5.091  11.427  1.2057 -0.9957  1.1273
11891TIP3   OH257087   6.223   2.615   1.236  0.5973 -0.5572 -0.1930
11891TIP3    H157088   6.193   2.562   1.310  0.2779  0.2312  0.2611
11891TIP3    H257089   6.279   2.682   1.276 -0.0107  0.2035 -0.5901
11892TIP3   OH257090   1.736   4.015  15.506  0.0196  0.1205  0.1768
11892TIP3    H157091   1.641   4.020  15.511  0.0153 -0.3612  0.7607
11892TIP3    H257092   1.754   3.965  15.427 -0.2458 -0.6676  0.6064
11893TIP3   OH257093   2.538   5.068  12.869  0.9319 -0.2137  0.0093
11893TIP3    H157094   2.604   5.089  12.936  0.7878 -1.2165  0.4837
11893TIP3    H257095   2.517   4.976  12.885 -0.9111  0.2063  0.1451
11894TIP3   OH257096   4.359   3.573  10.934  0.1313 -0.1087  0.1555
11894TIP3    H157097   4.411   3.653  10.940 -0.0271 -0.0782  1.5796
11894TIP3    H257098   4.386   3.532  10.852  0.2655  1.3621 -0.5596
11895TIP3   OH257099   0.265   4.088   1.696 -0.0814  0.2991 -0.1851
11895TIP3    H157100   0.233   4.159   1.641  0.5497 -0.5597 -1.7147
11895TIP3    H257101   0.216   4.011   1.667  0.3287 -0.1964  0.4019
11896TIP3   OH257102   3.371   5.111   2.512 -0.9042 -0.5375 -0.0890
11896TIP3    H157103   3.365   5.022   2.546  1.3080 -1.0315 -0.8143
11896TIP3    H257104   3.459   5.116   2.475 -0.9123  2.0243  0.0923
11897TIP3   OH257105   1.607   1.760   1.402 -0.6454 -0.4296  0.4454
11897TIP3    H157106   1.535   1.698   1.391  0.2850 -1.5041  0.1976
11897TIP3    H257107   1.671   1.734   1.337 -0.0452  0.5460  0.6215
11898TIP3   OH257108   2.345   3.365  15.427  1.2436 -0.3474  0.2151
11898TIP3    H157109   2.337   3.282  15.474 -1.5371 -0.7211 -0.7043
11898TIP3    H257110   2.292   3.427  15.477  2.4739  0.6337  0.3424
11899TIP3   OH257111   4.025   2.014  13.234 -0.1348 -0.6836  0.4971
11899TIP3    H157112   3.993   1.969  13.313  1.2176 -0.1433  1.3974
11899TIP3    H257113   4.117   2.031  13.252 -0.1389  0.7268 -0.6188
11900TIP3   OH257114   6.656   1.007   1.280 -0.0950 -0.0617  0.5615
11900TIP3    H157115   6.561   1.021   1.273 -0.3408 -1.6815  0.1701
11900TIP3    H257116   6.685   0.994   1.190  0.8681  2.3388  0.4772
11901TIP3   OH257117   1.973   2.432   1.232  0.7506 -0.5243  0.3518
11901TIP3    H157118   1.881   2.412   1.251  0.9354 -1.2073  0.5470
11901TIP3    H257119   2.005   2.474   1.312  0.4333  0.3492  0.0365
11902TIP3   OH257120   6.275   2.071  12.797 -0.1661 -0.1816 -0.2174
11902TIP3    H157121   6.259   2.094  12.705  0.8312  1.5747  0.0013
11902TIP3    H257122   6.306   2.153  12.837 -2.6527 -0.2776  2.2364
11903TIP3   OH257123   2.038   6.694   3.072  0.5918 -0.4456 -0.5033
11903TIP3    H157124   1.974   6.638   3.028  0.1967  0.1105 -0.6319
11903TIP3    H257125   1.988   6.743   3.136  0.6936  0.7315 -1.2804
11904TIP3   OH257126   5.199   4.692  12.208  1.4529 -0.3149 -0.6851
11904TIP3    H157127   5.197   4.605  12.169 -2.0745 -0.2412 -0.9720
11904TIP3    H257128   5.138   4.687  12.281  0.5757  2.0827 -1.1631
11905TIP3   OH257129   6.569   2.221   4.470 -0.2256 -0.0224 -0.3178
11905TIP3    H157130   6.557   2.165   4.546  0.4054 -0.5509 -0.5949
11905TIP3    H257131   6.591   2.160   4.399  0.7035  0.5901 -0.5708
11906TIP3   OH257132   2.736   2.954   2.478  0.5272  0.1867  0.3617
11906TIP3    H157133   2.648   2.935   2.510 -0.6745 -0.5768 -3.0302
11906TIP3    H257134   2.723   2.987   2.389  3.6747  0.4235 -0.1311
11907TIP3   OH257135   1.504   6.705  16.183 -0.2295  0.7899  0.5088
11907TIP3    H157136   1.469   6.752  16.259 -2.5657  1.9617 -1.1644
11907TIP3    H257137   1.465   6.749  16.108 -0.0250 -1.8917 -1.2987
11908TIP3   OH257138   2.779   1.965   1.368  0.1739 -0.0507 -0.5239
11908TIP3    H157139   2.726   2.006   1.299  0.0387 -0.1048 -0.4528
11908TIP3    H257140   2.870   1.976   1.338  0.1309  0.1752 -0.5720
11909TIP3   OH257141   1.923   4.524  15.032 -0.0917  0.1431 -0.1943
11909TIP3    H157142   1.983   4.505  14.960 -1.6671  1.5970 -1.9941
11909TIP3    H257143   1.945   4.613  15.059 -0.9027  0.4142 -0.3819
11910TIP3   OH257144   2.170   2.804  12.767  0.0128 -0.2491  0.0567
11910TIP3    H157145   2.186   2.891  12.805 -1.7376 -0.3605  1.1682
11910TIP3    H257146   2.228   2.800  12.691  0.2570  1.8314  0.0728
11911TIP3   OH257147   4.082   1.647   0.184 -0.2840 -0.5617  0.1158
11911TIP3    H157148   4.028   1.724   0.201  0.7253  0.2488 -0.2939
11911TIP3    H257149   4.125   1.629   0.267  0.4012  0.0610 -0.0908
11912TIP3   OH257150   5.913   2.507   3.968 -0.0058 -0.2016  0.2214
11912TIP3    H157151   5.980   2.489   4.034 -1.7759 -0.6124  2.0126
11912TIP3    H257152   5.844   2.443   3.985 -2.3082  2.2039  0.6251
11913TIP3   OH257153   2.044   3.169   0.843 -0.2211 -0.4184 -0.4429
11913TIP3    H157154   1.961   3.215   0.853 -0.2035 -0.6353  0.9806
11913TIP3    H257155   2.110   3.238   0.849 -0.2906 -0.1692 -2.1668
11914TIP3   OH257156   0.742   3.241  15.866 -0.2257 -0.2462 -0.5745
11914TIP3    H157157   0.717   3.156  15.900 -0.5432 -1.1011 -2.7930
11914TIP3    H257158   0.836   3.233  15.848 -0.9051 -1.6269 -4.4672
11915TIP3   OH257159   3.031   0.494  15.110  0.3272 -0.7417 -0.4174
11915TIP3    H157160   3.041   0.421  15.050  0.9844 -0.8323 -0.2120
11915TIP3    H257161   3.012   0.453  15.195 -2.2509 -0.5697 -0.8296
11916TIP3   OH257162   2.273   3.232   1.733  0.7660  0.1906  0.0350
11916TIP3    H157163   2.190   3.185   1.736  0.5275  0.5650 -0.5276
11916TIP3    H257164   2.291   3.255   1.824  0.4655 -0.2565  0.2103
11917TIP3   OH257165   6.745   1.000  13.736  0.6419  0.2052  0.2292
11917TIP3    H157166   6.823   1.028  13.688 -0.3016  2.3183 -0.1919
11917TIP3    H257167   6.683   0.975  13.668  0.4713 -0.1267  0.5043
11918TIP3   OH257168   0.041   4.016   3.727 -0.3132  0.1658 -0.2311
11918TIP3    H157169  -0.001   4.081   3.783 -0.0707  1.0243 -1.0187
11918TIP3    H257170  -0.000   3.933   3.751 -0.3367  0.5399  1.0782
11919TIP3   OH257171   6.369   0.458  12.178  1.0107 -0.2433 -0.1757
11919TIP3    H157172   6.398   0.368  12.163 -2.4253 -1.5000 -0.0531
11919TIP3    H257173   6.357   0.464  12.273 -0.8226 -0.4362 -0.3567
11920TIP3   OH257174   4.830   2.917   1.100 -0.6471  0.5510  0.4332
11920TIP3    H157175   4.857   2.836   1.144  0.3378  1.2782  1.2200
11920TIP3    H257176   4.834   2.984   1.168 -1.3268  1.2914 -0.2391
11921TIP3   OH257177   2.548   4.196   5.385 -0.0884 -0.1686 -1.0193
11921TIP3    H157178   2.523   4.218   5.474  1.1588 -0.1591 -0.6486
11921TIP3    H257179   2.550   4.100   5.383  2.5852 -0.2005 -0.1858
11922TIP3   OH257180   3.324   0.861   5.154 -0.1220  0.3041  0.3046
11922TIP3    H157181   3.315   0.927   5.085 -0.1086 -0.2868 -0.2765
11922TIP3    H257182   3.417   0.839   5.153  0.2339  1.6063  1.7695
11923TIP3   OH257183   5.837   5.346   2.557  0.3251 -0.7027  0.2004
11923TIP3    H157184   5.810   5.321   2.469  0.6207 -1.0001  0.1889
11923TIP3    H257185   5.851   5.440   2.552 -3.2429  0.0066  0.8850
11924TIP3   OH257186   0.732   0.829   4.143  0.1140 -0.1057 -0.0443
11924TIP3    H157187   0.809   0.872   4.181  0.4329 -0.6989 -0.0191
11924TIP3    H257188   0.738   0.846   4.049 -0.1806  0.5663  0.0478
11925TIP3   OH257189   4.797   6.753  12.687 -0.0993 -0.3970  0.0045
11925TIP3    H157190   4.732   6.690  12.657  1.2695 -1.4027 -0.9486
11925TIP3    H257191   4.882   6.713  12.666  0.8249  1.3872  0.1327
11926TIP3   OH257192   0.005   3.549   4.066  0.5335 -0.0283 -0.8996
11926TIP3    H157193   0.025   3.516   4.154  0.0627  0.2259 -0.6916
11926TIP3    H257194  -0.024   3.471   4.018 -2.9710  0.3517  0.2917
11927TIP3   OH257195   2.589   5.511  16.289 -0.3429 -0.2147  0.2379
11927TIP3    H157196   2.643   5.530  16.213 -2.3594  0.4211 -1.1215
11927TIP3    H257197   2.561   5.421  16.278  0.7139 -0.6811  1.1586
11928TIP3   OH257198   4.212   0.811   4.424  0.9115 -0.4872 -0.1902
11928TIP3    H157199   4.259   0.816   4.341  0.7858 -1.1388 -0.3055
11928TIP3    H257200   4.129   0.857   4.407  0.5746 -1.2490 -0.6515
11929TIP3   OH257201   2.105   4.557  12.775 -0.1236 -0.1769  0.5954
11929TIP3    H157202   2.108   4.510  12.692  1.1357  2.1736 -0.8013
11929TIP3    H257203   2.197   4.578  12.793 -0.5769  1.1823  1.4570
11930TIP3   OH257204   0.014   5.551  16.146 -0.2948  0.0325  0.1303
11930TIP3    H157205   0.081   5.548  16.214  1.2171  2.3480 -1.1212
11930TIP3    H257206  -0.068   5.531  16.191  0.9524 -0.7936  2.1335
11931TIP3   OH257207   5.586   0.210   2.829 -0.2513 -0.0964 -0.1998
11931TIP3    H157208   5.616   0.123   2.857  1.2189  1.1963  2.5961
11931TIP3    H257209   5.654   0.241   2.769 -0.1815 -0.3927 -0.2775
11932TIP3   OH257210   1.937   1.606   4.690 -0.1011 -0.2990  0.6626
11932TIP3    H157211   1.961   1.660   4.615 -0.1900 -0.3439  0.6019
11932TIP3    H257212   1.895   1.529   4.652 -1.4025  0.3179  0.8160
11933TIP3   OH257213   0.990   3.969   1.779 -0.3113 -0.0540 -0.2293
11933TIP3    H157214   0.983   4.060   1.751  0.0196 -0.5598 -2.1129
11933TIP3    H257215   1.075   3.964   1.824 -0.4537  0.6191  0.1218
11934TIP3   OH257216   4.941   6.655   4.095 -0.7436 -0.1521 -0.0482
11934TIP3    H157217   4.986   6.607   4.026 -0.8952  1.0092 -0.9900
11934TIP3    H257218   4.848   6.639   4.079 -0.7745  0.0150 -0.0416
11935TIP3   OH257219   2.668   3.917  12.335  0.0851  0.1025 -0.2361
11935TIP3    H157220   2.690   3.860  12.262  0.0475 -0.9271  0.5348
11935TIP3    H257221   2.579   3.892  12.360  0.0545  0.5143  0.0906
11936TIP3   OH257222   5.839   1.611   1.590  0.9870 -0.6364 -0.3021
11936TIP3    H157223   5.885   1.675   1.536 -0.7459  1.3635  0.4623
11936TIP3    H257224   5.848   1.529   1.543  2.0457  0.4458 -2.0907
11937TIP3   OH257225   5.627   5.422   5.660  0.3479 -0.0228 -0.3548
11937TIP3    H157226   5.677   5.358   5.711  0.6656 -1.4235 -2.3311
11937TIP3    H257227   5.577   5.369   5.598 -1.6659  1.5114 -0.1273
11938TIP3   OH257228   1.647   0.273   0.509 -0.4183 -0.0310  0.0358
11938TIP3    H157229   1.691   0.352   0.479  0.3029 -0.5714 -0.3575
11938TIP3    H257230   1.715   0.205   0.509 -0.6309 -0.3157  1.8466
11939TIP3   OH257231   2.871   0.140   1.239 -0.0880 -0.4310  0.1013
11939TIP3    H157232   2.800   0.075   1.243 -1.0869  0.5773 -0.4752
11939TIP3    H257233   2.828   0.219   1.206  0.5865  1.2091  2.8811
11940TIP3   OH257234   4.308   4.311  16.685 -0.3045 -0.1286  0.0063
11940TIP3    H157235   4.223   4.276  16.659  0.1140 -1.9505  0.9312
11940TIP3    H257236   4.371   4.248  16.651  0.5456  0.0443  1.2168
11941TIP3   OH257237   0.079   5.409   1.327 -0.2338  0.1964 -0.2438
11941TIP3    H157238  -0.013   5.423   1.302  0.1058  1.3189 -0.9014
11941TIP3    H257239   0.119   5.495   1.323 -0.0222  0.4806  3.8591
11942TIP3   OH257240   3.504   0.874  12.723 -0.0232  0.9842  0.7636
11942TIP3    H157241   3.592   0.912  12.718 -0.5257  2.0734 -0.0029
11942TIP3    H257242   3.454   0.917  12.654 -0.5537 -1.3064 -0.3708
11943TIP3   OH257243   3.647   1.519  13.637 -0.0545 -0.5114 -0.5061
11943TIP3    H157244   3.682   1.508  13.726 -2.6465 -0.6360  0.6059
11943TIP3    H257245   3.712   1.572  13.592  0.2878  1.6184  2.2042
11944TIP3   OH257246   6.733   6.412  16.467 -0.5187  0.6469 -0.4347
11944TIP3    H157247   6.668   6.374  16.526  1.3795  0.8740  1.9523
11944TIP3    H257248   6.700   6.500  16.448 -1.8621  0.0638 -0.9396
11945TIP3   OH257249   4.661   0.277   2.579 -0.4219 -0.4999 -0.4095
11945TIP3    H157250   4.703   0.195   2.606  1.3412  0.3069 -0.5821
11945TIP3    H257251   4.575   0.275   2.622 -0.2328 -2.2153 -0.0390
11946TIP3   OH257252   0.071   5.198  11.508  0.1796  0.2211  0.4718
11946TIP3    H157253   0.130   5.136  11.551 -0.1048 -1.0506 -0.8956
11946TIP3    H257254  -0.015   5.180  11.547 -0.1572 -1.2164 -0.8468
11947TIP3   OH257255   5.939   5.928   4.551  0.6054 -0.5755 -0.0088
11947TIP3    H157256   5.913   5.922   4.460  1.5323  1.7000 -0.4920
11947TIP3    H257257   5.861   5.961   4.596  0.2644 -1.3512 -0.0031
11948TIP3   OH257258   6.397   0.463  17.039  0.0856 -0.9950 -0.0020
11948TIP3    H157259   6.343   0.518  17.097  1.7376 -1.0938  1.7213
11948TIP3    H257260   6.353   0.378  17.039  0.4889 -1.2333  1.8233
11949TIP3   OH257261   2.573   6.389  13.091 -0.1281 -0.0969  0.6157
11949TIP3    H157262   2.659   6.403  13.051 -0.1911  0.7370  0.7478
11949TIP3    H257263   2.526   6.334  13.028  0.0122  0.6241 -0.1459
11950TIP3   OH257264   4.312   1.878   1.853  0.1779  0.4536 -0.2403
11950TIP3    H157265   4.258   1.955   1.870  0.4336  0.7252 -0.6427
11950TIP3    H257266   4.381   1.883   1.919 -2.3047 -1.9514  2.9028
11951TIP3   OH257267   0.710   4.979  16.206 -0.0437  0.5688 -0.4027
11951TIP3    H157268   0.736   4.921  16.277 -1.9011 -1.6306 -1.3843
11951TIP3    H257269   0.733   4.932  16.126 -0.2826  1.8624 -1.2740
11952TIP3   OH257270   4.676   4.826   2.819 -0.0371 -0.4672  0.9152
11952TIP3    H157271   4.598   4.792   2.775  0.7007 -1.7925  0.5754
11952TIP3    H257272   4.667   4.921   2.813  0.0766 -0.5414 -2.2788
11953TIP3   OH257273   6.330   1.920  13.467  0.4502 -0.3549 -0.3402
11953TIP3    H157274   6.388   1.957  13.533  0.2243 -1.5154  0.5552
11953TIP3    H257275   6.303   1.994  13.414  1.0167  0.5339  0.5767
11954TIP3   OH257276   0.038   2.557  16.108  0.0706  0.2711  0.3648
11954TIP3    H157277   0.106   2.490  16.120 -0.7688 -0.6530  0.0556
11954TIP3    H257278  -0.035   2.527  16.162 -1.6011 -0.8906 -2.3394
11955TIP3   OH257279   4.083   3.252  12.175  0.1201  0.7531  0.2722
11955TIP3    H157280   4.119   3.183  12.120  1.2557  1.0837  0.5677
11955TIP3    H257281   4.001   3.216  12.208  0.2986 -0.1342 -0.2207
11956TIP3   OH257282   1.371   6.759   6.015 -0.7753 -0.6796  0.6149
11956TIP3    H157283   1.344   6.750   6.107 -0.0580  0.5393  0.9649
11956TIP3    H257284   1.355   6.851   5.995  0.1319 -0.6822 -0.1474
11957TIP3   OH257285   2.059   6.578   0.720 -0.1847  0.4264 -0.0445
11957TIP3    H157286   2.122   6.525   0.670 -0.2911 -0.7814  1.0375
11957TIP3    H257287   1.975   6.563   0.677 -0.2477 -0.4767  0.3626
11958TIP3   OH257288   3.732   3.360   0.535  0.5019 -0.1576  0.1238
11958TIP3    H157289   3.710   3.413   0.458  2.4146 -1.3323 -1.3340
11958TIP3    H257290   3.824   3.335   0.521  0.3501 -1.9319  1.8854
11959TIP3   OH257291   2.716   4.883   3.513  0.4845  0.2960  0.0171
11959TIP3    H157292   2.778   4.941   3.469  0.8549 -1.0417 -1.3045
11959TIP3    H257293   2.714   4.804   3.458 -2.4260  0.2972 -0.0207
11960TIP3   OH257294   5.159   5.708  11.012  0.7457  0.2360  0.0873
11960TIP3    H157295   5.182   5.712  10.919 -0.7410  0.3705 -0.2982
11960TIP3    H257296   5.234   5.666  11.054  2.4894  2.2691 -0.8075
11961TIP3   OH257297   2.654   4.486   5.553  0.8704  0.2072  0.1283
11961TIP3    H157298   2.724   4.535   5.510  1.1913 -0.8855 -0.6449
11961TIP3    H257299   2.602   4.450   5.482 -0.4121  0.8737  0.6975
11962TIP3   OH257300   1.156   6.233   2.669 -0.3425  0.1582 -0.5438
11962TIP3    H157301   1.175   6.223   2.763 -0.2062  0.3213 -0.5543
11962TIP3    H257302   1.240   6.219   2.626 -0.5625 -0.7110 -0.6961
11963TIP3   OH257303   3.127   0.682  12.799 -0.2633  0.0203 -0.1009
11963TIP3    H157304   3.178   0.669  12.879  1.6238  0.9014 -1.0851
11963TIP3    H257305   3.188   0.659  12.728 -1.9923 -1.1040 -1.3053
11964TIP3   OH257306   6.615   5.087  12.521  0.5288  0.1882 -0.0535
11964TIP3    H157307   6.685   5.144  12.553 -0.9086  1.8581  0.2876
11964TIP3    H257308   6.543   5.146  12.503 -1.4777 -1.6423  1.4665
11965TIP3   OH257309   0.332   2.897   2.214  0.3841  0.1370 -0.5380
11965TIP3    H157310   0.424   2.921   2.220  0.0964  0.9831  0.9548
11965TIP3    H257311   0.291   2.941   2.288 -1.0821 -0.8781 -0.7071
11966TIP3   OH257312   4.675   3.182   2.109 -0.1473 -0.1394  0.5615
11966TIP3    H157313   4.712   3.163   2.196 -0.1399  0.2241  0.6409
11966TIP3    H257314   4.720   3.121   2.050 -0.4747 -0.6968  0.8790
11967TIP3   OH257315   0.904   5.990  16.822  0.4675  0.0517 -0.2350
11967TIP3    H157316   0.899   6.045  16.901  2.5105 -0.7796  0.5495
11967TIP3    H257317   0.840   5.921  16.837  0.1224  0.4671  0.2280
11968TIP3   OH257318   2.218   4.491  13.922 -0.2169  0.2780  0.2100
11968TIP3    H157319   2.292   4.543  13.891 -1.9686  2.2591 -0.8993
11968TIP3    H257320   2.191   4.440  13.846  0.0212 -0.4935  0.6316
11969TIP3   OH257321   4.004   0.853  11.029  0.6792  0.2745 -0.4240
11969TIP3    H157322   4.048   0.839  11.113  1.5051  0.1230 -0.8707
11969TIP3    H257323   3.911   0.840  11.049  0.9949 -1.5200  0.1265
11970TIP3   OH257324   0.552   5.476  11.853  0.0012  0.0625  0.4252
11970TIP3    H157325   0.581   5.392  11.887 -0.4449 -0.4298 -0.3930
11970TIP3    H257326   0.542   5.462  11.759  0.9644  1.3239  0.1018
11971TIP3   OH257327   4.472   4.006   0.662  0.4899 -0.1442  0.0009
11971TIP3    H157328   4.390   3.959   0.646  0.5239 -1.2062  2.4192
11971TIP3    H257329   4.507   4.023   0.575 -2.0398 -0.0870 -1.1091
11972TIP3   OH257330   3.007   6.041   5.452  0.3374 -0.6872 -0.9404
11972TIP3    H157331   3.088   6.081   5.484  0.9433 -2.7244  0.2551
11972TIP3    H257332   3.032   5.951   5.431 -1.4388 -1.1111 -1.3577
11973TIP3   OH257333   1.655   6.445  13.031 -0.2310 -0.2486 -0.8609
11973TIP3    H157334   1.688   6.360  13.062  0.2722  0.2230 -0.0807
11973TIP3    H257335   1.703   6.460  12.949  1.5561  0.4271  0.2607
11974TIP3   OH257336   1.745   4.320  13.037  0.3069  0.3280 -0.3218
11974TIP3    H157337   1.795   4.399  13.014  0.5104  1.1515  2.6121
11974TIP3    H257338   1.800   4.275  13.101 -0.8524 -1.0386 -0.2382
11975TIP3   OH257339   2.318   3.556  11.862 -0.0076  0.4562 -0.3559
11975TIP3    H157340   2.253   3.545  11.932 -0.6543 -1.4214 -1.1903
11975TIP3    H257341   2.392   3.502  11.890 -0.1227 -0.0053 -0.9399
11976TIP3   OH257342   2.295   6.117  15.600 -0.6073 -0.3031 -0.0676
11976TIP3    H157343   2.253   6.085  15.520  2.3024 -2.7220 -0.8049
11976TIP3    H257344   2.270   6.054  15.667  1.9598 -2.0653 -0.6219
11977TIP3   OH257345   0.357   6.086  13.066  0.2107  0.4025 -0.6351
11977TIP3    H157346   0.378   5.994  13.052 -1.0291  0.2442 -1.6379
11977TIP3    H257347   0.288   6.086  13.132  0.4376  0.6320 -0.3972
11978TIP3   OH257348   0.396   0.674  11.646 -0.0885  0.3996  0.8544
11978TIP3    H157349   0.448   0.752  11.664 -2.1904  2.5962 -1.6435
11978TIP3    H257350   0.460   0.605  11.629  1.8427  1.3043  3.8816
11979TIP3   OH257351   0.895   3.914   0.135  0.2584 -0.1771 -0.2203
11979TIP3    H157352   0.950   3.897   0.059  0.2485  2.8812 -1.0498
11979TIP3    H257353   0.806   3.915   0.099  0.0777 -0.5186  0.2133
11980TIP3   OH257354   2.821   1.717   5.802 -0.1800 -0.1441 -0.4409
11980TIP3    H157355   2.812   1.658   5.876 -0.1753 -0.0788 -0.3883
11980TIP3    H257356   2.914   1.739   5.799 -0.6636  2.9533  1.9519
11981TIP3   OH257357   3.575   5.333  11.076 -0.0134 -0.3506  0.1644
11981TIP3    H157358   3.489   5.311  11.039 -0.1287 -1.9045  1.2298
11981TIP3    H257359   3.613   5.396  11.015 -1.2154 -0.9312 -1.2314
11982TIP3   OH257360   5.726   2.602   4.754 -0.1220  0.3580  0.1230
11982TIP3    H157361   5.803   2.568   4.708  0.3321 -0.5973  1.5144
11982TIP3    H257362   5.665   2.528   4.755 -1.0466  1.0776 -0.8775
11983TIP3   OH257363   1.566   3.365   3.051 -0.0781 -0.5631 -0.5244
11983TIP3    H157364   1.602   3.363   2.963 -0.2363 -0.9335 -0.5858
11983TIP3    H257365   1.507   3.440   3.052 -0.6278 -0.9776 -0.9630
11984TIP3   OH257366   1.408   6.587  10.982  0.7135  0.7664 -0.3691
11984TIP3    H157367   1.329   6.642  10.986 -0.2628 -0.6474  0.9309
11984TIP3    H257368   1.389   6.522  10.915  0.0660 -0.5625  1.0607
11985TIP3   OH257369   1.174   5.808  13.450  0.4705  0.1140 -0.4486
11985TIP3    H157370   1.265   5.798  13.475  0.5578  0.8507 -0.4696
11985TIP3    H257371   1.155   5.901  13.463 -1.3401 -0.5706  3.1556
11986TIP3   OH257372   5.976   0.394  12.700 -0.4416  0.0650  0.5307
11986TIP3    H157373   6.051   0.339  12.719 -0.4509  0.2317  1.0649
11986TIP3    H257374   5.995   0.432  12.614  0.0454  0.0408  0.6249
11987TIP3   OH257375   5.724   2.413   5.747  0.1104  0.6901 -0.1376
11987TIP3    H157376   5.718   2.453   5.660 -0.7668  0.5496 -0.1512
11987TIP3    H257377   5.663   2.463   5.800  0.0214  0.2387  0.1881
11988TIP3   OH257378   3.125   6.008  13.963  0.3210 -0.0077  0.4304
11988TIP3    H157379   3.061   6.078  13.974 -1.1794 -1.2827  0.1688
11988TIP3    H257380   3.092   5.957  13.889  1.8430 -0.5168  0.0644
11989TIP3   OH257381   6.003   0.215   1.039  0.4638  0.0894 -0.2066
11989TIP3    H157382   5.940   0.164   0.990  1.8763 -0.8805 -1.1000
11989TIP3    H257383   5.981   0.306   1.018 -1.6606 -0.1246  0.8728
11990TIP3   OH257384   0.566   3.611  16.990  0.4952 -0.0394 -0.8184
11990TIP3    H157385   0.478   3.634  16.958 -0.3612  1.2088  2.0832
11990TIP3    H257386   0.586   3.529  16.945 -1.9353 -0.1124 -1.9821
11991TIP3   OH257387   4.799   5.750   1.036  0.1222 -0.0105 -0.0656
11991TIP3    H157388   4.839   5.667   1.062 -1.2976 -1.2327 -1.5433
11991TIP3    H257389   4.840   5.771   0.952 -1.7558 -0.9518 -1.2851
11992TIP3   OH257390   0.566   4.118  13.603  0.2308  0.0722  0.7117
11992TIP3    H157391   0.503   4.147  13.669 -1.1866 -3.7082  1.3156
11992TIP3    H257392   0.518   4.053  13.551  2.8694 -1.0035 -0.5740
11993TIP3   OH257393   1.587   2.654   2.838 -0.6588  0.4541 -0.1982
11993TIP3    H157394   1.651   2.720   2.812 -0.8115  0.9215  0.5692
11993TIP3    H257395   1.639   2.574   2.851 -0.0097  1.0996  1.5159
11994TIP3   OH257396   5.011   2.937   3.761  0.3731 -0.0350 -0.1437
11994TIP3    H157397   4.978   2.935   3.851  1.2846 -1.0477  0.1878
11994TIP3    H257398   5.094   2.983   3.766 -0.5280  1.7650 -0.8412
11995TIP3   OH257399   5.610   3.010   4.904 -0.4604 -0.6667 -0.0213
11995TIP3    H157400   5.619   2.972   4.991  0.1871 -2.9931 -1.0459
11995TIP3    H257401   5.699   3.013   4.869 -0.7335  0.0486 -0.6963
11996TIP3   OH257402   5.163   6.179  15.374  0.1815 -0.3550 -0.2261
11996TIP3    H157403   5.122   6.162  15.289  2.2949  0.8269 -1.5904
11996TIP3    H257404   5.203   6.095  15.398 -1.3791 -1.0096  0.2280
11997TIP3   OH257405   4.920   3.613   3.158  0.4061 -0.6913  0.2172
11997TIP3    H157406   4.928   3.676   3.086  1.9795 -1.2467 -0.1153
11997TIP3    H257407   4.847   3.647   3.211  0.9280  1.1673 -0.1901
11998TIP3   OH257408   0.340   1.782   0.622 -0.3850 -0.3525  0.6832
11998TIP3    H157409   0.372   1.831   0.546 -1.8978  0.5196  0.5728
11998TIP3    H257410   0.354   1.690   0.599  0.2052 -0.0664 -0.1586
11999TIP3   OH257411   0.040   5.323  15.432  0.5281 -0.0692 -0.4523
11999TIP3    H157412   0.028   5.265  15.357  0.2264 -1.9128  0.9660
11999TIP3    H257413   0.109   5.383  15.404  0.7308 -0.9789 -2.0468
12000TIP3   OH257414   4.309   5.797  12.239 -0.1985 -0.3295  0.1264
12000TIP3    H157415   4.268   5.719  12.202  0.3652 -1.2149  1.3044
12000TIP3    H257416   4.240   5.863  12.237 -0.4254 -0.5612 -1.7135
12001TIP3   OH257417   2.724   3.542   6.660 -0.4132 -0.0939  0.3488
12001TIP3    H157418   2.802   3.587   6.627 -0.7269 -0.6109 -1.1727
12001TIP3    H257419   2.652   3.579   6.608 -0.8217 -1.5043 -0.1208
12002TIP3   OH257420   2.465   5.494   6.066  0.1306 -0.0337  0.0935
12002TIP3    H157421   2.410   5.451   6.131 -0.9515 -0.9021 -1.3420
12002TIP3    H257422   2.554   5.484   6.100 -0.3533 -0.9464  1.1599
12003TIP3   OH257423   3.959   2.468   1.576 -0.0733 -0.7432 -0.1367
12003TIP3    H157424   4.045   2.428   1.582 -0.6904 -1.9923  1.0174
12003TIP3    H257425   3.952   2.497   1.485  1.9247  0.3155 -0.0130
12004TIP3   OH257426   4.826   6.296  16.173 -0.1586 -0.3004  0.7903
12004TIP3    H157427   4.842   6.368  16.112 -2.4709 -0.7502 -0.4841
12004TIP3    H257428   4.829   6.218  16.119  1.7889 -1.1593  2.0634
12005TIP3   OH257429   3.391   4.820  15.703  0.2536  0.1699  0.5022
12005TIP3    H157430   3.401   4.771  15.621  0.1444 -0.2292  0.7258
12005TIP3    H257431   3.428   4.907  15.683  0.3380  0.0392  0.0680
12006TIP3   OH257432   6.152   3.140   2.742  0.3202 -0.3859  0.4365
12006TIP3    H157433   6.097   3.104   2.811 -0.3048  0.0053  0.1458
12006TIP3    H257434   6.234   3.161   2.787 -1.2613  3.3535  2.0063
12007TIP3   OH257435   3.045   6.757  16.801  0.2597  0.2584 -0.3246
12007TIP3    H157436   3.125   6.803  16.827 -0.1516  0.5462  0.4591
12007TIP3    H257437   3.034   6.779  16.709  1.3935 -0.2427 -0.5996
12008TIP3   OH257438   3.647   1.383   0.640 -0.4624  0.3130  0.3803
12008TIP3    H157439   3.633   1.478   0.642  0.8598  0.6592 -2.1255
12008TIP3    H257440   3.736   1.373   0.605 -0.0339 -1.8628  1.9009
12009TIP3   OH257441   1.301   4.989  16.005 -0.3194 -0.0590  0.2282
12009TIP3    H157442   1.244   4.942  15.943 -1.9817  0.2343  1.4575
12009TIP3    H257443   1.265   5.077  16.009  1.4014  0.7057 -0.3461
12010TIP3   OH257444   3.559   4.146   4.247 -0.7293 -0.0177 -0.1734
12010TIP3    H157445   3.605   4.135   4.164  3.0071  2.6723  1.2371
12010TIP3    H257446   3.537   4.240   4.249  2.0616  0.7349  2.9450
12011TIP3   OH257447   1.533   3.537  15.071  0.3858  0.1171 -0.0137
12011TIP3    H157448   1.520   3.629  15.049  1.2487  0.1705 -0.3505
12011TIP3    H257449   1.625   3.531  15.099  0.9184 -0.9262 -1.7473
12012TIP3   OH257450   2.202   6.677  11.388 -0.0954  0.7422 -0.0667
12012TIP3    H157451   2.255   6.754  11.410 -0.5108  1.0046  0.0220
12012TIP3    H257452   2.171   6.693  11.299 -2.1247  1.8018  0.7801
12013TIP3   OH257453   2.492   4.062  13.642  0.3045  0.2487  0.6174
12013TIP3    H157454   2.550   4.073  13.567 -1.1455  0.0014 -0.5985
12013TIP3    H257455   2.460   4.150  13.660 -0.5611  0.1044 -0.1123
12014TIP3   OH257456   0.920   4.921   3.711  0.2149 -0.0791  0.6050
12014TIP3    H157457   1.006   4.879   3.722 -0.0011 -0.4841  0.7877
12014TIP3    H257458   0.861   4.848   3.688 -0.3264 -0.0079  1.7081
12015TIP3   OH257459   1.640   4.836  12.030 -0.6314  0.0464 -0.0581
12015TIP3    H157460   1.706   4.783  12.075 -0.6916  0.2280  0.2441
12015TIP3    H257461   1.686   4.873  11.955 -0.9245 -1.5227 -1.0773
12016TIP3   OH257462   0.121   4.230  16.775  0.3874  0.2290 -0.2845
12016TIP3    H157463   0.163   4.256  16.693  0.3137  0.9690 -0.0931
12016TIP3    H257464   0.154   4.292  16.840 -1.7597  1.5282 -0.3220
12017TIP3   OH257465   4.941   0.938   5.646  0.3602 -0.2155 -0.5320
12017TIP3    H157466   5.009   0.892   5.597 -0.5096 -1.2383 -0.8221
12017TIP3    H257467   4.860   0.923   5.596 -0.3154 -0.1583  0.4987
12018TIP3   OH257468   5.634   2.518   5.529  0.1303  0.7340 -0.0520
12018TIP3    H157469   5.573   2.590   5.550  0.1628  0.6258  0.4233
12018TIP3    H257470   5.698   2.558   5.470 -1.2754  0.4685 -1.8464
12019TIP3   OH257471   1.344   4.446  16.944 -0.7926 -0.1784 -0.0179
12019TIP3    H157472   1.391   4.510  16.998  0.3875 -2.1183  1.3811
12019TIP3    H257473   1.329   4.372  17.002 -0.4337 -1.9329 -2.0534
12020TIP3   OH257474   2.508   5.728   0.185  0.4422  0.5571  0.4918
12020TIP3    H157475   2.513   5.680   0.102  2.1251 -1.3322  1.5945
12020TIP3    H257476   2.490   5.819   0.159  3.5356  0.5848 -2.1872
12021TIP3   OH257477   6.688   1.081  12.268 -0.0625 -0.5226  0.1310
12021TIP3    H157478   6.744   1.120  12.335  1.7021 -2.0285 -0.3669
12021TIP3    H257479   6.740   1.086  12.188 -1.6122  0.0950 -0.8787
12022TIP3   OH257480   2.963   3.916   1.351  0.1280 -1.1289 -0.2682
12022TIP3    H157481   3.049   3.876   1.366 -0.1697 -1.7048 -0.0801
12022TIP3    H257482   2.975   3.968   1.271  1.3769  0.9083  1.1234
12023TIP3   OH257483   5.153   5.614  14.582  0.0756 -0.4022  0.2492
12023TIP3    H157484   5.063   5.584  14.570  0.4065 -1.0507 -0.7633
12023TIP3    H257485   5.201   5.534  14.606  0.9256 -0.7346 -2.2273
12024TIP3   OH257486   4.761   6.561   2.777  0.2623 -0.0078  0.2073
12024TIP3    H157487   4.669   6.571   2.752  0.1662 -1.1746  0.0302
12024TIP3    H257488   4.802   6.521   2.700  0.6152 -0.8201  0.8107
12025TIP3   OH257489   3.114   1.089  12.620 -0.0806  0.6600 -0.0213
12025TIP3    H157490   3.132   1.047  12.705  1.6932  1.3780  0.0014
12025TIP3    H257491   3.113   1.183  12.640 -3.7863  0.7997 -0.1054
12026TIP3   OH257492   5.425   2.629   5.773 -0.1653 -0.2466 -0.4651
12026TIP3    H157493   5.410   2.682   5.851  0.3815  0.3973 -0.7896
12026TIP3    H257494   5.457   2.691   5.707 -0.5823 -0.7874 -1.1922
12027TIP3   OH257495   2.669   4.332   3.593  0.1184  0.1699 -0.5408
12027TIP3    H157496   2.710   4.249   3.619 -0.1884 -0.2552 -1.4037
12027TIP3    H257497   2.629   4.364   3.674 -0.0470 -0.6869 -0.2664
12028TIP3   OH257498   1.409   2.760  12.217 -0.2474 -0.6589 -0.1235
12028TIP3    H157499   1.372   2.841  12.181  0.7507  0.0176  0.3221
12028TIP3    H257500   1.368   2.690  12.166 -1.0643  0.1246 -0.5784
12029TIP3   OH257501   0.729   5.689  15.601 -0.0922  0.6799  0.4041
12029TIP3    H157502   0.708   5.772  15.557 -4.3480 -0.8983 -1.0192
12029TIP3    H257503   0.652   5.669  15.654  0.6957 -2.4477  0.5722
12030TIP3   OH257504   4.676   5.028  15.015  0.1228 -0.3037 -0.5347
12030TIP3    H157505   4.605   5.092  15.006 -0.4497 -0.6727  1.0032
12030TIP3    H257506   4.753   5.080  15.037 -0.6624 -0.1806  2.2428
12031TIP3   OH257507   4.068   4.797   1.702  0.1496  0.2477 -0.4039
12031TIP3    H157508   4.082   4.843   1.619 -1.3152  2.0763  0.2939
12031TIP3    H257509   4.116   4.848   1.766 -0.3686  0.0245  0.1748
12032TIP3   OH257510   4.011   3.487  16.518  0.1332  0.2665 -0.1644
12032TIP3    H157511   3.956   3.417  16.552  1.4435 -0.0618  1.3891
12032TIP3    H257512   3.960   3.567  16.532 -1.2650 -0.3066 -1.7287
12033TIP3   OH257513   3.328   0.914  11.691 -0.0705 -0.4356 -0.7055
12033TIP3    H157514   3.370   0.839  11.648  1.8070 -0.3687  0.8820
12033TIP3    H257515   3.255   0.876  11.740 -1.3796 -0.6890 -2.7503
12034TIP3   OH257516   0.957   6.112  16.505  0.1373 -0.8342 -0.3150
12034TIP3    H157517   1.035   6.144  16.551  1.1180 -1.3017 -1.5974
12034TIP3    H257518   0.888   6.113  16.572  0.1582  3.4583 -0.0888
12035TIP3   OH257519   6.379   4.461  10.917 -0.0783  0.3042 -0.3513
12035TIP3    H157520   6.284   4.464  10.917 -0.4476 -4.2853 -1.6678
12035TIP3    H257521   6.403   4.440  10.827  2.0129 -0.6324  0.3502
12036TIP3   OH257522   6.773   3.687  14.920  0.6425  0.1179 -0.1961
12036TIP3    H157523   6.793   3.686  15.013 -0.5489  0.2922  0.0838
12036TIP3    H257524   6.835   3.749  14.882  3.2151 -2.2191 -0.0708
12037TIP3   OH257525   3.365   0.490  15.298 -0.1393  1.0644  0.0681
12037TIP3    H157526   3.402   0.418  15.247  0.0852  0.4030  1.1360
12037TIP3    H257527   3.272   0.468  15.306 -0.7459  2.4776 -2.1971
12038TIP3   OH257528   4.584   3.871  15.617  0.0226  0.0380  0.2209
12038TIP3    H157529   4.514   3.849  15.556 -1.0126  1.9978  0.6491
12038TIP3    H257530   4.604   3.963  15.600  2.5531 -0.4475  0.1036
12039TIP3   OH257531   5.329   0.474   1.922  0.2383  0.3282 -0.2612
12039TIP3    H157532   5.253   0.457   1.977 -0.8748 -0.3097 -1.9013
12039TIP3    H257533   5.403   0.477   1.982 -0.5884 -2.5114  1.0488
12040TIP3   OH257534   5.724   3.007  13.047 -0.3065 -0.2891 -0.1404
12040TIP3    H157535   5.648   3.053  13.012  0.7751  2.0495  0.4427
12040TIP3    H257536   5.790   3.013  12.979 -0.3876 -1.7482 -0.3843
12041TIP3   OH257537   1.478   4.892  14.268  0.5591  0.2442 -0.4885
12041TIP3    H157538   1.443   4.812  14.307  1.3868  0.2853  0.4003
12041TIP3    H257539   1.450   4.889  14.177  0.2313 -0.8475 -0.3684
12042TIP3   OH257540   2.202   1.705   2.164 -0.1297 -0.1621  0.2026
12042TIP3    H157541   2.120   1.658   2.181  0.2935 -0.7444  0.6519
12042TIP3    H257542   2.200   1.779   2.225 -0.6258  0.2175 -0.2544
12043TIP3   OH257543   5.758   3.442  15.049 -0.9528 -0.4657  0.3523
12043TIP3    H157544   5.781   3.424  14.958 -0.5982  1.2786  0.0743
12043TIP3    H257545   5.663   3.445  15.050 -0.9349  0.7548 -0.2343
12044TIP3   OH257546   2.936   0.367  12.931  0.0415 -0.0876 -0.0263
12044TIP3    H157547   2.976   0.320  12.858  0.6352  0.9409 -0.3835
12044TIP3    H257548   2.885   0.437  12.891 -0.0530  0.1681  0.5213
12045TIP3   OH257549   5.413   0.627  13.635 -0.0094 -0.4811 -0.1985
12045TIP3    H157550   5.332   0.610  13.588  0.6307 -0.7113 -1.2632
12045TIP3    H257551   5.482   0.620  13.568  0.8996 -0.4222  0.6967
12046TIP3   OH257552   2.503   2.588   3.075 -0.3137  0.7636 -0.1287
12046TIP3    H157553   2.436   2.523   3.053 -0.0594  1.0910 -1.9703
12046TIP3    H257554   2.456   2.652   3.129 -1.6386  1.2452 -1.7817
12047TIP3   OH257555   2.386   2.169   6.140  0.7250  0.1032 -0.2084
12047TIP3    H157556   2.355   2.098   6.197 -0.3501  0.1918 -0.6616
12047TIP3    H257557   2.480   2.153   6.130  0.7615 -0.4340  0.8459
12048TIP3   OH257558   2.521   3.252  14.592  0.2027  0.1000 -0.6805
12048TIP3    H157559   2.492   3.326  14.538 -1.0302 -1.3134 -2.0758
12048TIP3    H257560   2.456   3.247  14.662 -0.0598  0.0040 -0.9259
12049TIP3   OH257561   2.839   1.803  14.567  0.2493  0.5541 -0.0448
12049TIP3    H157562   2.923   1.832  14.531  0.9052 -0.8295  0.2905
12049TIP3    H257563   2.839   1.708  14.554 -0.7389  0.3791  1.0368
12050TIP3   OH257564   1.731   1.186  16.949  0.0749 -0.0177  0.8099
12050TIP3    H157565   1.787   1.223  17.017 -1.3211  1.7800  1.0554
12050TIP3    H257566   1.749   1.092  16.951  0.8284  0.1286  2.9356
12051TIP3   OH257567   5.645   6.155   2.775 -0.1923  0.3292 -0.1644
12051TIP3    H157568   5.675   6.225   2.833 -2.7670  0.3966  1.2145
12051TIP3    H257569   5.554   6.139   2.800  0.0184 -2.9805 -0.9526
12052TIP3   OH257570   3.611   0.770  12.427  0.7316 -0.0629  0.3031
12052TIP3    H157571   3.666   0.786  12.351  1.4741 -0.5952  0.7154
12052TIP3    H257572   3.616   0.851  12.478  2.3148 -0.5795  1.0446
12053TIP3   OH257573   0.068   2.896  14.446  0.5632  0.4661 -0.4336
12053TIP3    H157574   0.087   2.805  14.422  0.8501  0.5913 -0.6901
12053TIP3    H257575   0.126   2.947  14.391 -0.0909  0.8365 -0.7959
12054TIP3   OH257576   4.887   1.851  13.455 -1.3077  0.3790  0.4096
12054TIP3    H157577   4.849   1.845  13.542 -0.9778  0.9870  0.6030
12054TIP3    H257578   4.928   1.937  13.453 -0.3114 -0.0847  0.0682
12055TIP3   OH257579   0.895   6.332  16.728  0.3169 -0.2436  0.4588
12055TIP3    H157580   0.839   6.409  16.722  0.3418 -0.2218  0.5037
12055TIP3    H257581   0.960   6.355  16.794  1.4842  0.4292 -0.8856
12056TIP3   OH257582   4.262   5.533   5.999 -0.0625  0.0280 -0.4114
12056TIP3    H157583   4.197   5.486   5.948 -0.6155 -0.1629  0.4426
12056TIP3    H257584   4.244   5.509   6.090  1.1508  0.0367 -0.1405
12057TIP3   OH257585   2.257   1.826   2.884  0.2171 -0.4638  0.2202
12057TIP3    H157586   2.254   1.902   2.941  0.4951 -1.0381  1.0304
12057TIP3    H257587   2.167   1.795   2.880  0.2405 -0.5850  0.5871
12058TIP3   OH257588   2.041   4.272   1.981 -0.1503 -0.1610 -0.2675
12058TIP3    H157589   2.017   4.358   1.945 -0.1123 -0.3648 -0.7955
12058TIP3    H257590   2.047   4.215   1.904 -0.8214 -0.8002  0.1461
12059TIP3   OH257591   2.397   4.598  12.561  0.0596 -0.4174 -0.2989
12059TIP3    H157592   2.444   4.679  12.581 -1.8445  1.0795 -1.6127
12059TIP3    H257593   2.428   4.536  12.627  0.5313  1.7689  1.6570
12060TIP3   OH257594   2.338   2.471   4.424  0.2961  0.3405  0.7847
12060TIP3    H157595   2.383   2.551   4.399 -0.5997  0.6658  0.1730
12060TIP3    H257596   2.405   2.403   4.417  1.1630  1.0664  1.6609
12061TIP3   OH257597   5.767   4.959  12.705  0.2614  0.2648  0.0007
12061TIP3    H157598   5.761   4.864  12.711  1.5532  0.0628 -1.1266
12061TIP3    H257599   5.684   4.986  12.665 -0.1250 -0.3760  0.3532
12062TIP3   OH257600   4.509   0.715   3.844  0.1857  0.2620  0.3436
12062TIP3    H157601   4.541   0.625   3.831 -1.5297 -0.2009 -1.0643
12062TIP3    H257602   4.426   0.704   3.890 -1.0656  0.9312 -1.6327
12063TIP3   OH257603   1.617   2.274   1.503  0.6841 -0.2375 -0.4229
12063TIP3    H157604   1.633   2.283   1.597 -0.6686  0.4469 -0.2358
12063TIP3    H257605   1.586   2.185   1.493 -0.5179  0.1100  0.0124
12064TIP3   OH257606   2.147   4.080   1.211  0.5472 -0.0270  0.2498
12064TIP3    H157607   2.089   4.007   1.190  0.5333  0.2042 -0.5199
12064TIP3    H257608   2.232   4.038   1.227  0.6698 -0.1778 -0.7184
12065TIP3   OH257609   5.704   4.442   1.049  0.3647 -0.1121 -0.5712
12065TIP3    H157610   5.628   4.413   1.099 -0.4824 -0.4165 -1.9885
12065TIP3    H257611   5.677   4.526   1.010  0.4226 -0.6132 -1.7456
12066TIP3   OH257612   4.449   5.715   3.156  0.3307  0.4592 -0.6219
12066TIP3    H157613   4.420   5.754   3.073  0.2415 -2.3269 -2.0151
12066TIP3    H257614   4.372   5.717   3.212 -0.4413 -0.1697 -1.6377
12067TIP3   OH257615   4.169   1.621  14.385 -0.2848  0.4303 -0.1484
12067TIP3    H157616   4.174   1.591  14.294 -0.6285  1.1984 -0.4345
12067TIP3    H257617   4.090   1.579  14.420 -0.0427 -0.0224 -0.1441
12068TIP3   OH257618   2.753   2.589   3.010 -0.6456 -0.3521 -0.4232
12068TIP3    H157619   2.806   2.583   3.089 -1.0766 -1.4613 -0.2073
12068TIP3    H257620   2.665   2.609   3.041 -0.4333  1.3614 -0.7741
12069TIP3   OH257621   5.466   4.148  16.279  0.0921 -0.4630 -0.7704
12069TIP3    H157622   5.522   4.203  16.335 -0.2507 -0.0527 -0.8241
12069TIP3    H257623   5.385   4.198  16.271  1.2147  1.1468 -4.2950
12070TIP3   OH257624   1.328   0.082   5.669  0.3784  0.5473  0.3461
12070TIP3    H157625   1.393   0.151   5.680 -0.3525  0.8460  4.7022
12070TIP3    H257626   1.244   0.128   5.662  0.0832  0.1746  1.2179
12071TIP3   OH257627   2.021   5.663   5.705  0.1412 -0.4725 -0.7191
12071TIP3    H157628   2.100   5.613   5.682  0.1765 -0.0161 -1.6112
12071TIP3    H257629   2.044   5.708   5.787 -0.2309 -2.6707  0.6835
12072TIP3   OH257630   4.080   1.359   2.714  0.0541 -0.1502  0.5984
12072TIP3    H157631   4.156   1.352   2.772  0.3362 -2.8232  0.0013
12072TIP3    H257632   4.086   1.448   2.678  2.7196 -0.1690  0.7954
12073TIP3   OH257633   6.733   3.521   2.998 -0.8798 -0.3732 -0.1397
12073TIP3    H157634   6.779   3.523   3.082 -0.5022  2.0731 -0.3181
12073TIP3    H257635   6.640   3.521   3.021 -0.8157  1.9165  0.3896
12074TIP3   OH257636   1.392   0.189   0.448  0.6146 -0.3829 -0.0199
12074TIP3    H157637   1.477   0.210   0.485  0.8235 -0.9254 -0.1851
12074TIP3    H257638   1.374   0.260   0.386  1.1339 -0.4821 -0.2872
12075TIP3   OH257639   3.437   1.308   4.139  0.8622  0.3347 -0.1763
12075TIP3    H157640   3.351   1.340   4.165  1.2827  1.2480  0.1282
12075TIP3    H257641   3.442   1.327   4.045  1.2595  1.5643  0.0748
12076TIP3   OH257642   0.543   6.237   3.670 -0.0568 -0.2399  0.4193
12076TIP3    H157643   0.562   6.164   3.611 -1.1381 -0.7387  0.6413
12076TIP3    H257644   0.612   6.234   3.736  0.1137 -0.8407  0.2172
12077TIP3   OH257645   0.395   0.315   4.146  0.6983  0.6931  0.2401
12077TIP3    H157646   0.352   0.399   4.157  0.1095  0.8989 -2.6766
12077TIP3    H257647   0.422   0.314   4.054  0.2469 -2.4648  0.0177
12078TIP3   OH257648   1.128   0.875   5.888 -0.4085  0.5300 -0.2913
12078TIP3    H157649   1.109   0.901   5.978  0.4668 -0.3018  0.1577
12078TIP3    H257650   1.222   0.856   5.889 -0.8419 -1.9660 -0.7230
12079TIP3   OH257651   3.295   0.455   2.590  0.0094 -0.1704 -0.1683
12079TIP3    H157652   3.207   0.419   2.599  0.1035 -0.1965  0.7171
12079TIP3    H257653   3.291   0.539   2.637  0.1345  0.4011 -1.1436
12080TIP3   OH257654   2.518   4.242  15.400 -0.0225  0.1724 -0.0689
12080TIP3    H157655   2.541   4.164  15.349 -0.7303  0.9975 -1.7103
12080TIP3    H257656   2.437   4.218  15.445  0.4557 -0.4710  0.4611
12081TIP3   OH257657   4.131   1.778   4.430  0.0545  0.7745 -0.3300
12081TIP3    H157658   4.063   1.718   4.462  0.7879 -2.0865 -3.5776
12081TIP3    H257659   4.089   1.824   4.358  1.1104 -0.1012 -1.5430
12082TIP3   OH257660   3.484   1.792   3.348  0.0184  0.0186  0.1516
12082TIP3    H157661   3.486   1.732   3.423 -2.2707  0.0419  0.2940
12082TIP3    H257662   3.443   1.742   3.278  0.4116  0.6114 -0.5170
12083TIP3   OH257663   5.658   0.278   3.686  0.4666 -0.0083  0.0327
12083TIP3    H157664   5.715   0.306   3.615  1.1651 -0.5764  0.3596
12083TIP3    H257665   5.711   0.216   3.736  0.3531  1.1169  1.6237
12084TIP3   OH257666   2.739   4.815  16.781 -0.3966  0.6313  0.1986
12084TIP3    H157667   2.671   4.809  16.714 -1.1257  1.4950  0.8388
12084TIP3    H257668   2.818   4.782  16.738 -1.6822 -2.8389  0.1920
12085TIP3   OH257669   1.089   6.044   0.387  0.2478  0.5503  0.4636
12085TIP3    H157670   1.125   6.099   0.456 -0.9045 -0.7653  2.2016
12085TIP3    H257671   1.112   5.954   0.413 -3.3320 -0.2901  1.2112
12086TIP3   OH257672   6.380   4.956  10.525 -0.1918 -0.4661  1.0545
12086TIP3    H157673   6.428   5.006  10.591  1.8110  1.3639 -1.5772
12086TIP3    H257674   6.448   4.907  10.479 -0.9893  0.7788 -1.6467
12087TIP3   OH257675   0.465   4.526   6.094 -0.1117  0.2444 -0.1362
12087TIP3    H157676   0.504   4.520   6.181  1.1447 -1.8751 -0.7547
12087TIP3    H257677   0.374   4.501   6.106  0.4345 -1.7086  0.4013
12088TIP3   OH257678   2.769   5.521   5.830 -0.0806  0.3906 -0.0830
12088TIP3    H157679   2.858   5.505   5.797  0.6753  2.3458  0.8966
12088TIP3    H257680   2.780   5.534   5.924 -1.4726  0.2949  0.1113
12089TIP3   OH257681   5.874   6.710  14.111  0.1991 -0.4258  0.2144
12089TIP3    H157682   5.814   6.671  14.175  0.0250 -2.3449 -1.0646
12089TIP3    H257683   5.878   6.647  14.040 -0.9736  2.3690 -2.5563
12090TIP3   OH257684   6.756   0.097   4.606 -0.0261  0.1178 -0.0263
12090TIP3    H157685   6.677   0.045   4.590 -0.3889  0.4837  0.5251
12090TIP3    H257686   6.763   0.154   4.530  0.4848 -0.8572 -0.7316
12091TIP3   OH257687   5.169   1.651   3.548  0.2688  0.0240  0.0583
12091TIP3    H157688   5.124   1.588   3.605 -0.8377 -0.2578 -1.0911
12091TIP3    H257689   5.104   1.676   3.483  1.1712  1.1838 -0.4430
12092TIP3   OH257690   4.833   4.735  16.863  0.2437  0.4106  0.2662
12092TIP3    H157691   4.913   4.784  16.847  2.2454 -2.6446  0.1430
12092TIP3    H257692   4.784   4.742  16.781  0.5008  2.0032  0.2094
12093TIP3   OH257693   2.959   6.442  17.258 -0.2012  0.2255  0.2933
12093TIP3    H157694   2.936   6.530  17.227 -0.7591  0.7583  2.0917
12093TIP3    H257695   2.989   6.396  17.179 -0.3871  1.8537 -0.7842
12094TIP3   OH257696   4.781   0.503   0.060 -0.3602  0.6190 -0.0042
12094TIP3    H157697   4.713   0.483   0.125 -1.1166 -1.5026 -1.3430
12094TIP3    H257698   4.733   0.524  -0.020  0.4504 -1.6407 -1.1776
12095TIP3   OH257699   2.203   6.714   1.458 -0.2215 -0.4020  0.3180
12095TIP3    H157700   2.172   6.700   1.547 -0.1313  0.5673  0.5213
12095TIP3    H257701   2.296   6.736   1.469 -0.5850  1.3794  0.1656
12096TIP3   OH257702   2.351   2.977   4.154 -0.0328  0.4415 -0.2509
12096TIP3    H157703   2.354   2.962   4.248 -1.9976  1.1315 -0.0200
12096TIP3    H257704   2.332   2.891   4.116 -0.4433  0.3772  0.0984
12097TIP3   OH257705   6.447   2.728  15.936  0.1816 -0.7108  0.2153
12097TIP3    H157706   6.500   2.779  15.998 -1.0141  0.0723  0.6374
12097TIP3    H257707   6.435   2.786  15.861  0.6205 -1.2153 -0.2620
12098TIP3   OH257708   0.807   3.928  14.869  0.2991 -0.0099 -0.1097
12098TIP3    H157709   0.727   3.920  14.920 -0.3870  0.5943 -1.0512
12098TIP3    H257710   0.802   3.856  14.805 -0.1045  0.7599 -0.9611
12099TIP3   OH257711   4.456   2.919  14.061 -0.5464 -0.4268 -1.0923
12099TIP3    H157712   4.398   2.919  13.984 -1.2590 -1.6626 -0.5859
12099TIP3    H257713   4.430   2.996  14.111 -1.0003 -0.3696 -1.4123
12100TIP3   OH257714   6.550   4.820   0.534 -0.2759 -0.0583 -0.0352
12100TIP3    H157715   6.481   4.791   0.474  0.2790  1.4611 -1.4961
12100TIP3    H257716   6.525   4.784   0.619 -2.8441  0.3784 -0.5179
12101TIP3   OH257717   4.477   1.464  14.693 -0.1584 -0.7890  0.2573
12101TIP3    H157718   4.442   1.546  14.657  3.1942  0.7488  0.2056
12101TIP3    H257719   4.471   1.475  14.788  2.3796  0.6586  0.3380
12102TIP3   OH257720   0.599   1.135  14.115  0.1613 -0.1828  0.0707
12102TIP3    H157721   0.585   1.175  14.029  1.6172 -0.4506 -0.3235
12102TIP3    H257722   0.513   1.105  14.142 -0.1353 -1.3596 -1.9581
12103TIP3   OH257723   3.485   2.346  14.355 -0.2571 -0.0071  0.1436
12103TIP3    H157724   3.522   2.258  14.355  0.7775  0.4066 -0.2301
12103TIP3    H257725   3.557   2.402  14.384 -0.2647  0.9462 -1.5331
12104TIP3   OH257726   3.512   5.502   5.740  0.4458  0.4348  0.7543
12104TIP3    H157727   3.525   5.444   5.814  2.8619 -0.4994 -0.2913
12104TIP3    H257728   3.492   5.444   5.666 -1.6720  1.3211  0.5405
12105TIP3   OH257729   1.294   0.551  14.716 -0.1374  0.4388 -0.5554
12105TIP3    H157730   1.310   0.624  14.776 -1.4146  0.3498 -0.0731
12105TIP3    H257731   1.236   0.587  14.649 -1.2730 -0.2591  0.0195
12106TIP3   OH257732   2.758   5.704   3.473  0.0280 -0.3441  0.3777
12106TIP3    H157733   2.791   5.619   3.503  0.3131 -0.3774 -0.0272
12106TIP3    H257734   2.780   5.764   3.544 -1.6505 -0.9020  1.4251
12107TIP3   OH257735   4.249   3.646  13.319  0.6871  0.4963  0.5392
12107TIP3    H157736   4.261   3.654  13.224  0.1458 -1.4686  0.2458
12107TIP3    H257737   4.240   3.736  13.350 -3.4165  1.1736 -1.8552
12108TIP3   OH257738   6.154   5.478   5.047  0.7204 -0.2409  0.6205
12108TIP3    H157739   6.084   5.434   4.999  1.2463 -0.1558 -0.2490
12108TIP3    H257740   6.119   5.491   5.135 -0.2301 -0.4849  0.2839
12109TIP3   OH257741   2.411   2.343   2.107 -0.2508  0.5697  0.1036
12109TIP3    H157742   2.409   2.284   2.182  0.5850  0.2704 -0.0926
12109TIP3    H257743   2.353   2.302   2.042  0.9441 -0.4870 -0.3370
12110TIP3   OH257744   1.154   0.905  12.465 -0.0692  0.0540 -0.1293
12110TIP3    H157745   1.059   0.896  12.469 -0.1082 -0.4675 -1.7125
12110TIP3    H257746   1.187   0.830  12.515 -0.4864 -0.4605 -0.6170
12111TIP3   OH257747   0.978   4.797  12.080  0.4082  0.0120  0.2257
12111TIP3    H157748   1.010   4.830  11.996  1.3761 -1.6957 -0.1170
12111TIP3    H257749   0.904   4.854  12.101  0.8539  1.1936 -1.2117
12112TIP3   OH257750   1.365   1.273  13.016  0.1528  0.5414  0.0816
12112TIP3    H157751   1.290   1.332  13.020 -0.4447 -0.2691  2.6369
12112TIP3    H257752   1.423   1.304  13.085  0.6116 -0.8063  0.3241
12113TIP3   OH257753   5.079   6.127  13.646 -0.6572 -0.2368  0.7729
12113TIP3    H157754   5.034   6.133  13.562 -1.9498 -0.0219  1.4546
12113TIP3    H257755   5.035   6.192  13.701  1.4330  1.0182  1.0666
12114TIP3   OH257756   1.308   0.868   3.265 -0.0697  0.0837  0.5745
12114TIP3    H157757   1.278   0.911   3.184 -0.0296  0.3342  0.6923
12114TIP3    H257758   1.230   0.825   3.299 -0.5943  1.6701  1.4822
12115TIP3   OH257759   1.089   3.293  13.059  0.1988 -0.4740  0.5552
12115TIP3    H157760   1.181   3.270  13.046  0.3234  0.2120  0.1760
12115TIP3    H257761   1.045   3.262  12.980  0.6868  2.2246 -0.9083
12116TIP3   OH257762   0.960   0.190   1.300  0.7967 -0.4205 -0.0038
12116TIP3    H157763   0.869   0.196   1.326  0.9918  1.1185  0.4401
12116TIP3    H257764   0.958   0.158   1.210 -0.3066  1.3603 -0.6555
12117TIP3   OH257765   5.198   1.397   2.560  0.7059 -0.5776  0.1291
12117TIP3    H157766   5.123   1.427   2.510 -0.2828 -1.7176  0.8764
12117TIP3    H257767   5.199   1.454   2.638 -0.9202 -2.1160  1.3430
12118TIP3   OH257768   2.714   3.694   1.082  0.3625 -0.3947 -0.0233
12118TIP3    H157769   2.768   3.640   1.140  3.1276  3.1068  1.0034
12118TIP3    H257770   2.761   3.696   0.999  1.6224  2.0641  0.6423
12119TIP3   OH257771   3.535   6.483   0.767  0.5067 -0.3274  0.2362
12119TIP3    H157772   3.474   6.537   0.817 -0.9501 -0.8427 -0.9135
12119TIP3    H257773   3.609   6.470   0.826 -0.3955  0.4806  1.6129
12120TIP3   OH257774   6.495   2.187  11.435  0.2141 -0.3734 -0.1412
12120TIP3    H157775   6.455   2.211  11.351  0.9972 -2.0996 -1.0665
12120TIP3    H257776   6.573   2.242  11.440  1.8307 -2.2878 -2.0913
12121TIP3   OH257777   0.381   5.044  12.986 -0.3501 -0.3822 -0.4807
12121TIP3    H157778   0.380   5.059  13.080 -0.8606  1.6170 -0.7711
12121TIP3    H257779   0.429   4.961  12.976  0.9179  0.0521  1.4387
12122TIP3   OH257780   3.507   4.750  16.929  0.2523 -0.3930 -0.4972
12122TIP3    H157781   3.551   4.750  16.844  0.6623  1.3015 -0.3244
12122TIP3    H257782   3.419   4.781  16.910  0.7320  1.2494 -0.1593
12123TIP3   OH257783   5.648   0.311  11.420 -0.4309 -0.7266 -0.3053
12123TIP3    H157784   5.704   0.241  11.385 -0.7954 -1.0776 -0.1945
12123TIP3    H257785   5.573   0.313  11.360 -0.9822 -1.2230  0.3570
12124TIP3   OH257786   6.685   4.916  15.598 -0.0790  0.0435 -0.1310
12124TIP3    H157787   6.639   4.858  15.659  0.6030 -0.2051  0.1504
12124TIP3    H257788   6.778   4.895  15.609  0.0021 -1.3091 -2.5648
12125TIP3   OH257789   5.457   4.324   4.436  0.1217  0.1458  0.6098
12125TIP3    H157790   5.448   4.232   4.414 -0.5207  0.2806  0.2815
12125TIP3    H257791   5.415   4.371   4.364 -0.8286  0.6474  1.4517
12126TIP3   OH257792   5.173   6.711  15.643 -0.3489  0.3901  0.6996
12126TIP3    H157793   5.143   6.646  15.707 -0.2952 -0.1747  0.1645
12126TIP3    H257794   5.234   6.766  15.692 -0.7700  0.3388  1.2880
12127TIP3   OH257795   1.093   3.788  11.104  0.2576  0.1649 -0.0184
12127TIP3    H157796   1.074   3.844  11.029  1.5794 -0.6601 -1.0205
12127TIP3    H257797   1.121   3.705  11.066 -0.0921 -0.6491  1.4116
12128TIP3   OH257798   1.122   4.563  14.136  0.2811 -0.2176 -0.1533
12128TIP3    H157799   1.167   4.479  14.132  0.7164  0.0414 -2.4623
12128TIP3    H257800   1.192   4.628  14.132 -0.0971  0.2506  0.6327
12129TIP3   OH257801   6.699   3.406   1.952 -0.1255  0.7380  0.1710
12129TIP3    H157802   6.726   3.463   2.024  0.1828 -0.4718  1.0530
12129TIP3    H257803   6.606   3.427   1.939 -0.6548 -0.1668  2.0846
12130TIP3   OH257804   3.923   5.552  14.962  0.5657  0.3223 -0.5307
12130TIP3    H157805   3.940   5.530  15.054  0.5271  1.4997 -0.2220
12130TIP3    H257806   3.909   5.647  14.963  0.6122  0.3516 -1.7668
12131TIP3   OH257807   2.348   2.480   3.899  0.1189 -0.5529  0.4400
12131TIP3    H157808   2.428   2.464   3.947  1.1270  0.8322 -0.6683
12131TIP3    H257809   2.377   2.519   3.816 -1.7356  1.2724  0.5598
12132TIP3   OH257810   6.428   3.838  17.190  0.3463  0.2434 -0.0752
12132TIP3    H157811   6.344   3.884  17.188  1.3683  2.2053 -1.5118
12132TIP3    H257812   6.474   3.874  17.266  0.8146  1.0133 -0.7082
12133TIP3   OH257813   4.982   6.106   3.075 -0.0648  0.5296  0.6324
12133TIP3    H157814   4.915   6.107   3.144 -0.6708  0.0054  0.0636
12133TIP3    H257815   4.988   6.197   3.046  0.5388  0.8435  1.6961
12134TIP3   OH257816   6.660   0.939   1.001 -0.0122  0.0715 -0.6343
12134TIP3    H157817   6.687   0.948   0.910  0.8837 -0.9671 -0.4955
12134TIP3    H257818   6.675   0.847   1.021 -1.6259 -0.0626  0.1330
12135TIP3   OH257819   1.540   6.077  10.768 -0.2996  0.2704 -0.2236
12135TIP3    H157820   1.595   6.148  10.800  1.8814 -0.9758 -1.0085
12135TIP3    H257821   1.597   6.027  10.710 -2.1385 -1.4170 -0.6771
12136TIP3   OH257822   0.322   2.646   4.047  0.2797  0.3360 -0.4071
12136TIP3    H157823   0.323   2.668   3.954 -0.6420  0.3053 -0.4403
12136TIP3    H257824   0.241   2.596   4.058 -0.3325  1.4990  0.6597
12137TIP3   OH257825   4.984   5.298   3.533  0.3872 -0.0980 -0.3130
12137TIP3    H157826   4.927   5.374   3.527  0.9911  0.4197  0.3282
12137TIP3    H257827   5.071   5.334   3.551  0.6535 -0.9412  0.1561
12138TIP3   OH257828   3.546   3.099   1.152 -0.0539 -0.3509  0.2797
12138TIP3    H157829   3.552   3.100   1.248  1.8197 -0.5105  0.2171
12138TIP3    H257830   3.496   3.021   1.131 -1.0691  0.0420  1.1262
12139TIP3   OH257831   5.812   2.489   4.341  0.1897  0.2525  0.0738
12139TIP3    H157832   5.825   2.525   4.429  1.1920  0.0355  0.0268
12139TIP3    H257833   5.859   2.406   4.341 -0.2840 -0.0239 -0.4950
12140TIP3   OH257834   4.764   4.449   6.028 -0.2773 -0.0329  0.5400
12140TIP3    H157835   4.689   4.395   6.004  0.0316  0.4653 -1.8383
12140TIP3    H257836   4.828   4.388   6.064  0.3692 -1.5376 -2.7873
12141TIP3   OH257837   4.833   0.034  13.318  0.4053  0.2628 -0.1475
12141TIP3    H157838   4.867   0.024  13.229  2.2947 -1.6222  0.6913
12141TIP3    H257839   4.799   0.123  13.321  2.0227  1.0357 -2.2076
12142TIP3   OH257840   5.828   2.695  12.960 -0.0187  0.3605  0.1550
12142TIP3    H157841   5.788   2.649  12.886  0.7890 -3.1241  1.6537
12142TIP3    H257842   5.754   2.725  13.013 -0.7617 -2.3590  0.8100
12143TIP3   OH257843   5.797   0.304   2.148  0.0285 -0.0803  0.0803
12143TIP3    H157844   5.707   0.288   2.119  0.3612 -1.2976 -0.3511
12143TIP3    H257845   5.851   0.282   2.072  0.6966  0.6426  0.3295
12144TIP3   OH257846   4.683   4.027  13.284 -0.2832 -0.6327  0.6028
12144TIP3    H157847   4.746   3.995  13.348  1.3458  0.4971 -0.3503
12144TIP3    H257848   4.698   3.972  13.206 -0.3532 -0.2531  0.3181
12145TIP3   OH257849   2.026   2.816   4.766 -0.2705  0.4230 -0.1552
12145TIP3    H157850   1.986   2.812   4.853  0.0590 -0.5647 -0.0352
12145TIP3    H257851   1.952   2.816   4.705 -0.5880 -3.7544 -0.0393
12146TIP3   OH257852   6.033   3.892   2.228 -0.7968 -0.4367  0.1809
12146TIP3    H157853   6.038   3.954   2.155  1.5245 -1.3512 -0.5158
12146TIP3    H257854   5.967   3.930   2.286  0.8664  2.9955  0.0895
12147TIP3   OH257855   6.587   1.276   1.810  0.2092 -0.0960 -0.0336
12147TIP3    H157856   6.563   1.245   1.722 -0.2551 -1.1793  0.4552
12147TIP3    H257857   6.548   1.212   1.869  0.4156  0.6876  0.9777
12148TIP3   OH257858   1.213   5.775   6.158 -0.3418 -0.0896  0.8390
12148TIP3    H157859   1.158   5.827   6.101  0.7083 -0.1115 -0.2284
12148TIP3    H257860   1.260   5.839   6.212  0.6981  0.0920 -0.2397
12149TIP3   OH257861   3.018   4.457  13.057  0.2238 -0.2478 -0.3169
12149TIP3    H157862   2.985   4.469  12.968 -0.1361 -1.2348 -0.3412
12149TIP3    H257863   3.035   4.545  13.089 -1.7151  0.2832 -0.6008
12150TIP3   OH257864   3.996   6.143  14.835  0.0029  0.5214 -0.6078
12150TIP3    H157865   3.991   6.052  14.866  0.4756  1.3742  2.2416
12150TIP3    H257866   3.915   6.183  14.867 -0.2602  1.1257 -1.9522
12151TIP3   OH257867   0.196   4.457   6.130 -0.6781 -0.2109 -0.1637
12151TIP3    H157868   0.219   4.370   6.162  0.2972  0.2453  0.4264
12151TIP3    H257869   0.101   4.456   6.123 -0.8775 -0.6123  1.9713
12152TIP3   OH257870   5.966   6.327   3.046  0.7858  0.0438  0.0774
12152TIP3    H157871   5.979   6.341   2.953  3.5597  0.8641  0.4935
12152TIP3    H257872   5.970   6.415   3.084  2.3628 -0.4492  1.1721
12153TIP3   OH257873   6.201   1.813   4.240  0.1182 -0.1796 -0.1741
12153TIP3    H157874   6.294   1.797   4.256  0.4035 -0.4758 -1.9189
12153TIP3    H257875   6.198   1.902   4.205  0.0152 -0.8545 -1.9719
12154TIP3   OH257876   2.776   2.056  12.324 -0.2245 -0.0805  0.3020
12154TIP3    H157877   2.801   1.985  12.383  0.3205 -1.4468 -1.4884
12154TIP3    H257878   2.731   2.013  12.251  0.5778  1.3039 -1.0970
12155TIP3   OH257879   2.592   2.711   2.625  0.1497 -0.5946 -0.4556
12155TIP3    H157880   2.523   2.649   2.603  0.6689 -0.9588 -1.1201
12155TIP3    H257881   2.584   2.725   2.719  0.0660 -1.7262 -0.2816
12156TIP3   OH257882   1.587   2.644  17.048 -0.6149 -0.4467 -0.1623
12156TIP3    H157883   1.517   2.671  17.108  0.8538  0.5561  1.1768
12156TIP3    H257884   1.623   2.726  17.014 -0.4841 -0.9687 -1.3453
12157TIP3   OH257885   1.266   2.714  11.215 -0.4354 -0.3290 -0.4741
12157TIP3    H157886   1.245   2.639  11.159  0.2793  0.4421 -1.8326
12157TIP3    H257887   1.209   2.704  11.291 -0.0158 -2.5193 -0.3679
12158TIP3   OH257888   4.099   2.322  11.262  0.2388 -0.0141 -0.0327
12158TIP3    H157889   4.179   2.375  11.263  0.8788 -0.8621 -1.9011
12158TIP3    H257890   4.059   2.337  11.348  1.6115  1.6148  0.3690
12159TIP3   OH257891   5.932   6.563  12.691 -0.4172  0.0954 -0.1424
12159TIP3    H157892   5.965   6.637  12.741 -0.6192  0.6019 -0.7395
12159TIP3    H257893   5.960   6.580  12.601 -0.5062 -0.5315 -0.2971
12160TIP3   OH257894   1.192   6.292   2.304 -0.2117 -0.4829  0.0479
12160TIP3    H157895   1.201   6.325   2.214  0.0904 -2.2807 -0.6174
12160TIP3    H257896   1.098   6.287   2.318 -0.3460  2.7287  1.0154
12161TIP3   OH257897   5.083   6.015   4.003 -0.0356 -0.1776  0.5147
12161TIP3    H157898   5.121   6.010   4.090  1.3632  0.4156 -0.0399
12161TIP3    H257899   5.004   5.961   4.008 -0.4143  0.4965  2.3533
12162TIP3   OH257900   6.126   2.230  11.802  0.2872 -0.0612  0.2585
12162TIP3    H157901   6.184   2.187  11.864  1.6393  0.3660 -0.6507
12162TIP3    H257902   6.072   2.159  11.766  3.6276 -1.5402 -2.5045
12163TIP3   OH257903   5.340   0.743   2.733  1.1938  0.0326  0.2204
12163TIP3    H157904   5.318   0.820   2.680 -0.5607  0.7020  1.8147
12163TIP3    H257905   5.272   0.679   2.713  3.3926 -1.7348 -2.1236
12164TIP3   OH257906   2.483   6.449  13.363 -0.3586 -0.1397 -0.2334
12164TIP3    H157907   2.396   6.410  13.364 -0.3353 -0.3118 -1.8953
12164TIP3    H257908   2.515   6.434  13.274  1.2500  0.1935  0.2562
12165TIP3   OH257909   1.626   5.005  12.811  0.9635  0.1738  0.5825
12165TIP3    H157910   1.710   4.959  12.803  0.8123  0.0607 -0.5743
12165TIP3    H257911   1.635   5.059  12.890  2.5859  1.1084 -0.1941
12166TIP3   OH257912   5.626   2.878   3.665  0.3122  0.3348 -0.0883
12166TIP3    H157913   5.706   2.924   3.688  0.1196  0.3430  0.5778
12166TIP3    H257914   5.653   2.786   3.658  0.4261  0.3692 -0.0996
12167TIP3   OH257915   4.545   4.237  13.716 -0.0529 -0.2805  0.2024
12167TIP3    H157916   4.594   4.317  13.699  0.1432 -0.4308  0.0688
12167TIP3    H257917   4.475   4.265  13.776 -0.6385  0.2078 -0.6881
12168TIP3   OH257918   1.575   3.829  12.132  0.6028  0.0611 -0.1104
12168TIP3    H157919   1.646   3.836  12.068  1.3200 -0.5203  0.5923
12168TIP3    H257920   1.588   3.905  12.190 -0.1945  0.7270 -0.7793
12169TIP3   OH257921   6.748   3.296  15.291  0.0842 -0.0984  0.1450
12169TIP3    H157922   6.825   3.352  15.292 -0.0897  0.1847 -0.9853
12169TIP3    H257923   6.676   3.353  15.317  0.3228 -0.5227  1.8745
12170TIP3   OH257924   6.314   2.346   3.979 -0.3971 -0.1250 -0.0270
12170TIP3    H157925   6.237   2.289   3.990 -1.2662  0.8070 -1.0686
12170TIP3    H257926   6.279   2.425   3.937  1.0807  0.4638 -0.1799
12171TIP3   OH257927   1.731   0.500  17.271  0.1452 -0.0863 -0.1436
12171TIP3    H157928   1.806   0.453  17.235  0.1377  0.4824 -0.9196
12171TIP3    H257929   1.764   0.589  17.288 -0.5068  0.3406 -1.0636
12172TIP3   OH257930   6.522   3.285   4.791  0.3675  0.1077  0.2274
12172TIP3    H157931   6.464   3.276   4.866  0.9592  2.5507  1.0854
12172TIP3    H257932   6.608   3.258   4.823  0.6416  1.2529  0.5159
12173TIP3   OH257933   4.002   4.258   0.015 -0.2188 -0.0979  0.7103
12173TIP3    H157934   4.090   4.252  -0.022 -0.7313  1.3685 -0.8770
12173TIP3    H257935   3.945   4.269  -0.061 -1.5749  0.7512  1.8040
12174TIP3   OH257936   4.426   3.353   4.303  0.3806 -0.5241 -0.2681
12174TIP3    H157937   4.394   3.269   4.268  1.4656 -2.3419  2.6717
12174TIP3    H257938   4.366   3.373   4.374 -0.1158  1.5150 -1.2026
12175TIP3   OH257939   5.434   5.939  16.268  0.6447 -0.0080 -0.3622
12175TIP3    H157940   5.343   5.934  16.239  0.2525  3.1385 -0.0146
12175TIP3    H257941   5.428   5.967  16.360  1.9599 -0.2877 -0.1726
12176TIP3   OH257942   3.716   6.630   4.459 -0.0119 -0.2299 -0.6123
12176TIP3    H157943   3.723   6.697   4.527  0.4608 -0.1086 -0.7761
12176TIP3    H257944   3.694   6.550   4.505 -0.0774 -0.0657 -0.3581
12177TIP3   OH257945   5.826   3.691   0.446 -0.2002  0.3155 -0.3639
12177TIP3    H157946   5.758   3.642   0.491 -0.0691  2.5566  2.5212
12177TIP3    H257947   5.904   3.681   0.501  1.0819  0.0935 -2.1202
12178TIP3   OH257948   5.183   0.401   3.960  0.2153  0.2540  0.4469
12178TIP3    H157949   5.187   0.437   3.872  1.1303  3.4170  1.6425
12178TIP3    H257950   5.112   0.449   4.003  0.8183 -0.0572  1.8676
12179TIP3   OH257951   6.265   2.241  13.526  0.6590  0.4318  0.1148
12179TIP3    H157952   6.178   2.204  13.537  0.4171  1.2255  1.0638
12179TIP3    H257953   6.297   2.254  13.616  0.8684  2.1525 -0.1798
12180TIP3   OH257954   0.714   6.231   3.097  0.4191 -0.0915  0.3788
12180TIP3    H157955   0.798   6.186   3.087 -0.0293 -0.8058 -0.2499
12180TIP3    H257956   0.704   6.281   3.016  1.7860  2.7062  1.8008
12181TIP3   OH257957   0.435   2.489  14.631  0.6754 -0.7195  0.4707
12181TIP3    H157958   0.413   2.398  14.612 -1.2854 -0.2824  0.4177
12181TIP3    H257959   0.438   2.494  14.726 -0.0602 -0.6775  0.4977
12182TIP3   OH257960   4.970   4.223  11.406 -0.1083  0.6583 -0.1102
12182TIP3    H157961   4.899   4.258  11.459 -0.7374  0.9636 -1.1279
12182TIP3    H257962   4.930   4.204  11.321  0.6927 -0.5395 -0.2560
12183TIP3   OH257963   3.237   0.263   2.316 -0.2753  0.3163  0.2923
12183TIP3    H157964   3.301   0.287   2.249  1.2728 -1.8992  0.8838
12183TIP3    H257965   3.290   0.236   2.391 -1.8666  4.4055  3.2917
12184TIP3   OH257966   0.600   2.996   2.237  0.0925  0.0018  0.0608
12184TIP3    H157967   0.633   3.080   2.206  1.5204 -1.1595 -1.7172
12184TIP3    H257968   0.667   2.964   2.297 -0.0703 -0.2476  0.1151
12185TIP3   OH257969   4.205   2.636   4.158  0.6344  0.1898  0.4201
12185TIP3    H157970   4.197   2.543   4.137  0.5500  0.1194  0.7551
12185TIP3    H257971   4.298   2.648   4.178  0.5904  0.1114  0.6758
12186TIP3   OH257972   1.447   4.009  16.611 -0.7455 -0.6234  0.1020
12186TIP3    H157973   1.516   4.073  16.590 -0.4789 -0.9736 -0.0889
12186TIP3    H257974   1.372   4.063  16.635 -0.9878 -0.1913 -1.5031
12187TIP3   OH257975   0.017   1.536  16.076  0.0063  0.1094 -0.4522
12187TIP3    H157976   0.057   1.451  16.096 -0.9188  0.0198  1.2034
12187TIP3    H257977   0.091   1.598  16.078  0.3509 -0.2987  0.8762
12188TIP3   OH257978   6.305   3.480  14.129  0.2858  0.0932  0.0458
12188TIP3    H157979   6.297   3.388  14.104  0.5329  0.5744 -2.0033
12188TIP3    H257980   6.342   3.478  14.217  1.6212 -1.7509 -0.4947
12189TIP3   OH257981   6.403   2.298  11.192  0.4564  0.2520 -0.0235
12189TIP3    H157982   6.460   2.274  11.119  0.4660  1.3194 -0.3876
12189TIP3    H257983   6.314   2.284  11.158  0.4418  1.4001 -0.5004
12190TIP3   OH257984   1.562   5.186  12.994 -0.1589 -0.6914  0.2589
12190TIP3    H157985   1.559   5.280  13.008  2.3366  0.0515 -2.8018
12190TIP3    H257986   1.479   5.165  12.952 -0.9370  0.0262  1.4023
12191TIP3   OH257987   3.835   5.406   4.778 -0.0911  0.0632 -0.3156
12191TIP3    H157988   3.772   5.368   4.718 -0.6877 -0.4753  0.6244
12191TIP3    H257989   3.797   5.392   4.865  0.8462  0.6273  0.2023
12192TIP3   OH257990   3.641   0.429  14.430  0.2456  0.0428 -0.3758
12192TIP3    H157991   3.625   0.337  14.452  0.8145  0.2291  0.9407
12192TIP3    H257992   3.572   0.477  14.475 -0.0079  0.2709 -1.0031
12193TIP3   OH257993   2.153   3.697   5.142  0.2412  0.4550 -1.0629
12193TIP3    H157994   2.188   3.724   5.057  2.1628  1.7407  0.0484
12193TIP3    H257995   2.137   3.779   5.188 -1.6991 -0.1984 -0.5054
12194TIP3   OH257996   5.129   0.179   5.606 -0.4594 -0.2387  0.2720
12194TIP3    H157997   5.088   0.122   5.541 -2.2870  1.1534  0.1341
12194TIP3    H257998   5.132   0.125   5.685 -0.4238 -1.1438 -0.3226
12195TIP3   OH257999   3.366   6.277   1.060  0.5375  0.6067 -0.5362
12195TIP3    H158000   3.405   6.243   1.141 -1.2111  0.0735  0.1088
12195TIP3    H258001   3.318   6.355   1.087 -0.1906  0.3387 -1.0324
12196TIP3   OH258002   3.350   4.110  15.544 -0.0922 -0.3173  0.2407
12196TIP3    H158003   3.312   4.110  15.456  0.9554  1.0853 -0.2495
12196TIP3    H258004   3.294   4.051  15.595 -1.0697 -0.6812 -1.2093
12197TIP3   OH258005   3.700   3.530   3.006 -0.1710 -0.4133 -0.6937
12197TIP3    H158006   3.691   3.436   3.022  0.3064 -0.5178 -1.0224
12197TIP3    H258007   3.611   3.558   2.982 -0.0282 -1.0900 -2.1563
12198TIP3   OH258008   4.237   0.534  17.020  0.5771  0.1935  0.4498
12198TIP3    H158009   4.267   0.467  17.082  0.6186  1.2708  1.6207
12198TIP3    H258010   4.157   0.568  17.058 -1.0055 -1.0642 -1.5271
12199TIP3   OH258011   4.316   4.128  11.859  0.4295  0.1238  0.2096
12199TIP3    H158012   4.236   4.172  11.831  0.9650  0.5626 -0.6752
12199TIP3    H258013   4.292   4.085  11.942 -1.2596 -1.3332 -0.9497
12200TIP3   OH258014   2.883   4.321  12.239  0.3309 -0.5351  0.3828
12200TIP3    H158015   2.798   4.365  12.241 -0.6218 -2.1997 -1.1319
12200TIP3    H258016   2.938   4.378  12.186 -1.0055 -1.2696 -1.8982
12201TIP3   OH258017   2.454   1.369   3.843 -0.3246  0.3288  0.2140
12201TIP3    H158018   2.396   1.439   3.814 -0.4093  0.2848  0.2779
12201TIP3    H258019   2.402   1.289   3.836  0.0509  0.1550 -0.6888
12202TIP3   OH258020   6.422   1.697  10.830  0.2805 -0.4247  0.1666
12202TIP3    H158021   6.421   1.665  10.920  0.3168 -1.3753 -0.1678
12202TIP3    H258022   6.486   1.642  10.785  0.9316  0.6211 -0.2416
12203TIP3   OH258023   5.911   0.093   1.279  0.3186  0.4793 -0.6623
12203TIP3    H158024   5.893   0.162   1.343 -0.6022 -0.2821 -0.0698
12203TIP3    H258025   5.957   0.137   1.208 -0.5348  1.7608 -0.4461
12204TIP3   OH258026   5.319   2.030   2.255 -0.9625  0.4534 -0.0367
12204TIP3    H158027   5.246   2.059   2.200  0.0096  0.4409 -1.3843
12204TIP3    H258028   5.390   2.013   2.193  0.1699  0.4060  1.2356
12205TIP3   OH258029   2.684   2.309   3.772  0.1113  0.0082  0.0122
12205TIP3    H158030   2.682   2.316   3.867 -1.4156  0.3609 -0.0180
12205TIP3    H258031   2.610   2.252   3.751 -0.1624  0.7121 -1.0137
12206TIP3   OH258032   5.198   0.271  12.310  0.1147  0.4872 -0.1632
12206TIP3    H158033   5.155   0.348  12.345 -0.2571  0.5614 -0.7682
12206TIP3    H258034   5.229   0.298  12.223  3.5497  1.2237  1.1093
12207TIP3   OH258035   1.017   4.994   5.627  0.5860  0.0771  0.6160
12207TIP3    H158036   0.974   4.966   5.707  1.7732 -2.4281  0.4795
12207TIP3    H258037   1.026   4.914   5.575  0.6630  1.4597 -1.6355
12208TIP3   OH258038   1.596   1.475   1.929  0.6537 -0.4288 -0.7080
12208TIP3    H158039   1.627   1.455   1.841 -0.2167  0.5973 -1.2765
12208TIP3    H258040   1.514   1.522   1.915  0.6481  0.0077  0.6382
12209TIP3   OH258041   2.622   3.275  13.391 -0.1359  0.2933  0.2662
12209TIP3    H158042   2.627   3.362  13.432 -2.0126  0.1336  0.9296
12209TIP3    H258043   2.615   3.214  13.465 -0.3806 -0.2784 -0.2213
12210TIP3   OH258044   5.080   2.949   0.503 -0.3860  0.7583  0.2750
12210TIP3    H158045   5.061   3.019   0.565 -0.8248  1.5060 -0.6787
12210TIP3    H258046   5.122   2.992   0.429  1.2149 -0.2859  0.5248
12211TIP3   OH258047   2.440   3.650  10.655  0.4674  0.0264 -0.1301
12211TIP3    H158048   2.502   3.581  10.631  0.5729  0.3164 -0.7112
12211TIP3    H258049   2.354   3.614  10.632  0.6880  1.0679 -2.9885
12212TIP3   OH258050   0.697   0.239   4.016 -0.1394 -0.6628  0.0577
12212TIP3    H158051   0.768   0.194   3.969  0.0087  0.6449 -1.0358
12212TIP3    H258052   0.638   0.269   3.947  0.1305  1.4017  0.6712
12213TIP3   OH258053   5.196   0.896  15.626  0.5789  0.1944 -0.2409
12213TIP3    H158054   5.173   0.917  15.535 -1.9366  0.1694  0.3126
12213TIP3    H258055   5.112   0.896  15.672  1.9058  1.7075  2.4172
12214TIP3   OH258056   2.879   3.558   4.398  0.3754  0.4260 -0.4525
12214TIP3    H158057   2.876   3.517   4.311  1.2209 -0.0609 -0.2659
12214TIP3    H258058   2.885   3.485   4.459 -0.6542  0.7514  0.0535
12215TIP3   OH258059   4.045   0.053  15.743 -0.0948 -0.3566 -0.4683
12215TIP3    H158060   4.093   0.115  15.688 -0.2254 -0.0432 -0.2334
12215TIP3    H258061   4.112  -0.008  15.775 -0.2664 -1.5978 -2.3437
12216TIP3   OH258062   4.068   2.561  11.948 -0.1366  0.1551 -0.1901
12216TIP3    H158063   4.112   2.542  11.865  0.9217  0.6618  0.2289
12216TIP3    H258064   4.067   2.656  11.953  0.4345  0.1319  0.6794
12217TIP3   OH258065   3.424   5.394  12.930  0.1531 -0.5059  0.0572
12217TIP3    H158066   3.390   5.481  12.951  3.0643  0.4561  1.4453
12217TIP3    H258067   3.519   5.402  12.945  0.5120 -3.9684  0.3285
12218TIP3   OH258068   4.439   3.700  13.089  0.0064  0.1046  0.1970
12218TIP3    H158069   4.454   3.616  13.045  1.5507 -0.1592  1.1487
12218TIP3    H258070   4.424   3.762  13.018 -1.4867 -1.0042 -0.5202
12219TIP3   OH258071   0.695   3.229   2.093  0.4315  0.1123  0.3250
12219TIP3    H158072   0.754   3.290   2.050 -0.7316  0.7202 -0.4559
12219TIP3    H258073   0.678   3.161   2.027 -0.3034  0.3349  0.2733
12220TIP3   OH258074   4.232   4.945  13.257  0.3110 -0.4287  0.1198
12220TIP3    H158075   4.137   4.932  13.244 -0.7595  3.2999  2.6836
12220TIP3    H258076   4.259   4.870  13.310 -1.5723 -0.8296  0.6008
12221TIP3   OH258077   1.936   4.099   5.276 -0.6135  0.6284  0.0567
12221TIP3    H158078   2.007   4.103   5.341 -2.7166  0.6489  2.5035
12221TIP3    H258079   1.905   4.008   5.282  0.2215  0.1226 -2.2518
12222TIP3   OH258080   2.447   0.080  14.309 -0.6210 -0.1843  0.4517
12222TIP3    H158081   2.475   0.008  14.253  0.1186  0.9141 -0.6351
12222TIP3    H258082   2.354   0.062  14.326 -0.9296 -0.4173 -1.3307
12223TIP3   OH258083   1.412   3.759  11.666 -0.7484 -0.4621 -0.4160
12223TIP3    H158084   1.348   3.770  11.595 -0.2805  0.0282 -0.7664
12223TIP3    H258085   1.395   3.832  11.725  0.4862  0.5696 -1.2940
12224TIP3   OH258086   0.996   5.262   3.219  0.2691 -0.2661  0.0597
12224TIP3    H158087   1.059   5.277   3.290 -0.9110  0.0369  1.0664
12224TIP3    H258088   0.921   5.221   3.261 -0.6454  0.3401 -0.9340
12225TIP3   OH258089   0.933   2.354   5.705 -0.1603  0.2873  0.2658
12225TIP3    H158090   0.933   2.280   5.644  0.9916  0.1882  0.3540
12225TIP3    H258091   0.979   2.320   5.782 -0.0438  0.9533  0.4928
12226TIP3   OH258092   0.587   4.471   4.004  0.3193 -0.7778 -1.0155
12226TIP3    H158093   0.532   4.549   4.005 -0.5113 -1.3554 -0.8105
12226TIP3    H258094   0.557   4.421   3.928  0.7619 -0.9519 -1.0787
12227TIP3   OH258095   4.777   4.859   3.872 -0.1677  0.2117  0.4827
12227TIP3    H158096   4.778   4.767   3.847 -0.2175 -0.5259  2.9361
12227TIP3    H258097   4.842   4.900   3.815 -0.0672 -1.3377 -0.5769
12228TIP3   OH258098   6.247   1.111   0.035  0.2306  0.8956  0.3012
12228TIP3    H158099   6.274   1.199   0.061  1.0090  0.6072  0.5215
12228TIP3    H258100   6.177   1.125  -0.029 -1.2490  1.6371  1.9902
12229TIP3   OH258101   3.581   0.387  11.121  0.1385 -0.3050  0.0001
12229TIP3    H158102   3.631   0.467  11.110  1.8835 -1.3463 -0.0076
12229TIP3    H258103   3.491   0.417  11.139  0.2963  1.5867 -1.9769
12230TIP3   OH258104   2.173   4.419  12.536 -0.0065  0.6206  0.5878
12230TIP3    H158105   2.118   4.483  12.491 -0.4877 -0.2395 -0.0694
12230TIP3    H258106   2.258   4.426  12.493 -0.2395  0.3696  0.0776
12231TIP3   OH258107   3.227   5.255   5.849  0.3193 -0.0733 -0.1501
12231TIP3    H158108   3.222   5.284   5.939 -0.2921  0.8256 -0.4629
12231TIP3    H258109   3.320   5.260   5.827  0.5814 -1.0360  0.6471
12232TIP3   OH258110   1.442   6.333  14.838 -0.3994 -0.2298  0.4594
12232TIP3    H158111   1.355   6.300  14.817 -1.1725  0.7583  1.9470
12232TIP3    H258112   1.493   6.318  14.758 -1.1732 -3.2040  0.4230
12233TIP3   OH258113   1.348   0.631   2.527  0.1474  0.1826 -0.8559
12233TIP3    H158114   1.338   0.536   2.525  0.4696  0.1087  0.3299
12233TIP3    H258115   1.430   0.648   2.480  2.2054 -0.5037  2.1974
12234TIP3   OH258116   6.217   4.891  11.665 -0.2832  0.2653 -0.0053
12234TIP3    H158117   6.180   4.958  11.608 -2.3456  0.0092  0.9501
12234TIP3    H258118   6.258   4.939  11.737  0.3973  0.5223 -0.5471
12235TIP3   OH258119   1.756   5.354  11.881  0.3941 -0.7237 -0.0157
12235TIP3    H158120   1.825   5.420  11.875  0.5202 -0.8628 -0.1281
12235TIP3    H258121   1.691   5.391  11.940  0.2408 -0.2995 -0.4416
12236TIP3   OH258122   5.495   1.620   3.853 -0.3045  0.3592  0.5688
12236TIP3    H158123   5.559   1.596   3.787  1.0988  2.6452  0.9911
12236TIP3    H258124   5.507   1.556   3.923 -1.8881 -2.1701 -1.2882
12237TIP3   OH258125   2.653   1.292   4.102  0.0906 -0.0406 -0.0949
12237TIP3    H158126   2.697   1.313   4.020 -0.0872  0.3704 -0.0872
12237TIP3    H258127   2.718   1.243   4.152  0.2985 -0.0412 -0.3644
12238TIP3   OH258128   1.665   5.251   4.596 -0.7620  0.9357 -0.2640
12238TIP3    H158129   1.713   5.269   4.516  2.4907 -1.4917  0.9303
12238TIP3    H258130   1.586   5.205   4.567  0.4155 -0.0262 -2.1254
12239TIP3   OH258131   6.470   1.591  12.776 -0.1889 -0.1091 -0.1520
12239TIP3    H158132   6.440   1.679  12.800  2.1280  1.0705 -1.2278
12239TIP3    H258133   6.474   1.592  12.680  2.6900 -0.2702 -0.1288
12240TIP3   OH258134   1.976   1.783   2.761  0.4591 -0.0176 -0.1286
12240TIP3    H158135   1.965   1.693   2.790  0.6945  0.0732  0.2684
12240TIP3    H258136   1.898   1.829   2.794 -0.3321 -0.3347 -1.4869
12241TIP3   OH258137   2.449   1.264  16.285 -0.0258  0.0441 -0.0125
12241TIP3    H158138   2.370   1.209  16.283  0.3480 -0.4801 -0.9015
12241TIP3    H258139   2.451   1.300  16.374 -0.5890 -0.9261  0.4097
12242TIP3   OH258140   1.733   2.433   5.285 -0.5705 -0.3812  0.1145
12242TIP3    H158141   1.728   2.391   5.371  0.9606  1.2439  1.0701
12242TIP3    H258142   1.764   2.522   5.303 -0.6846  0.1763 -2.0852
12243TIP3   OH258143   0.940   2.222  15.910  0.2757 -0.4007  0.8542
12243TIP3    H158144   0.951   2.200  16.002  0.0456  1.4666  1.3765
12243TIP3    H258145   0.995   2.299  15.897 -1.2986  0.6396 -0.0140
12244TIP3   OH258146   5.855   4.376   2.025 -0.4040 -0.3419 -0.2328
12244TIP3    H158147   5.875   4.460   2.065  1.2191 -1.7792  2.2337
12244TIP3    H258148   5.900   4.378   1.940 -0.5594  1.3108 -0.2987
12245TIP3   OH258149   4.673   2.956  16.981 -0.0963 -0.4568 -0.2353
12245TIP3    H158150   4.618   2.987  16.909  0.2475 -2.1315 -1.2670
12245TIP3    H258151   4.717   2.878  16.947 -0.4056 -1.6969  1.9914
12246TIP3   OH258152   2.810   5.622  12.877 -0.5675 -0.2414 -0.0832
12246TIP3    H158153   2.844   5.632  12.966  1.3062 -0.8118 -0.6851
12246TIP3    H258154   2.802   5.527  12.864 -0.3013 -0.1898 -0.6907
12247TIP3   OH258155   5.670   6.326   5.010  0.1214  0.2137 -0.7230
12247TIP3    H158156   5.603   6.264   5.039 -0.1685  0.9137  0.1607
12247TIP3    H258157   5.739   6.319   5.077 -1.1284  2.7973  1.0158
12248TIP3   OH258158   2.731   5.843  16.791 -0.1346  0.0491 -0.3462
12248TIP3    H158159   2.655   5.789  16.817  0.3544  0.2215  1.6237
12248TIP3    H258160   2.790   5.837  16.866  0.3120  2.6536 -0.4216
12249TIP3   OH258161   1.046   2.296  14.754  0.0205  0.1282 -0.5233
12249TIP3    H158162   0.991   2.323  14.827 -0.9881  1.1661 -1.6329
12249TIP3    H258163   1.131   2.274  14.794 -0.3752  1.1094  0.8881
12250TIP3   OH258164   0.520   4.424   5.643 -0.1910 -0.0472 -0.6623
12250TIP3    H158165   0.452   4.483   5.611 -0.0092 -0.9125 -2.8071
12250TIP3    H258166   0.544   4.460   5.728 -2.4808  0.9506 -0.3589
12251TIP3   OH258167   5.602   5.353  16.482  0.3174 -0.0456  0.3691
12251TIP3    H158168   5.517   5.311  16.494  0.0150  0.1818 -0.8525
12251TIP3    H258169   5.659   5.284  16.448  0.6405 -0.2019  1.2006
12252TIP3   OH258170   5.781   5.126  15.226  0.1599 -0.1192 -0.0902
12252TIP3    H158171   5.760   5.058  15.162  0.9572 -0.5898  0.1351
12252TIP3    H258172   5.845   5.085  15.285 -0.5729  0.2853  1.0295
12253TIP3   OH258173   3.871   4.754   1.937 -0.1948  0.0947 -0.3086
12253TIP3    H158174   3.911   4.790   2.017 -0.8990 -1.7647  0.9463
12253TIP3    H258175   3.945   4.717   1.888 -0.0728 -1.7312  1.1376
12254TIP3   OH258176   2.504   5.904  12.423 -0.3318  0.0612 -0.1365
12254TIP3    H158177   2.579   5.936  12.473  0.3062 -0.5755 -0.6579
12254TIP3    H258178   2.440   5.975  12.427  0.3519  0.6709  0.2044
12255TIP3   OH258179   6.358   0.864  11.482 -0.0149  0.3932  0.1169
12255TIP3    H158180   6.306   0.818  11.547 -0.5720 -1.1952 -1.3829
12255TIP3    H258181   6.315   0.845  11.399  1.6821  0.9134 -0.9281
12256TIP3   OH258182   6.590   2.429   0.725  0.0349 -0.2270 -0.2760
12256TIP3    H158183   6.682   2.457   0.723 -0.3257  1.0072 -0.0439
12256TIP3    H258184   6.585   2.373   0.802  0.6459 -0.5137 -0.4323
12257TIP3   OH258185   0.719   5.246  15.929 -0.0730  0.1372 -0.2223
12257TIP3    H158186   0.776   5.317  15.959  0.5731  0.8604 -2.8382
12257TIP3    H258187   0.720   5.254  15.833  1.0683 -4.1218 -0.8036
12258TIP3   OH258188   1.194   4.002  14.792  0.3108 -0.0181  0.3451
12258TIP3    H158189   1.225   3.991  14.702  1.4438  1.3133  0.5484
12258TIP3    H258190   1.142   3.923  14.808  1.6175 -1.1845 -0.8403
12259TIP3   OH258191   3.996   6.136  13.712 -0.4558  0.0306 -0.1338
12259TIP3    H158192   4.001   6.049  13.672  0.0342  0.1084 -0.2468
12259TIP3    H258193   4.082   6.148  13.753 -0.0152  1.0091 -1.2678
12260TIP3   OH258194   2.322   5.544   2.802  0.1038 -0.4225 -0.2569
12260TIP3    H158195   2.235   5.541   2.764 -0.1053  0.0442  0.1706
12260TIP3    H258196   2.380   5.515   2.732 -0.2686  0.4318 -0.9391
12261TIP3   OH258197   1.327   2.376   3.258  0.1078  0.2969 -0.6057
12261TIP3    H158198   1.258   2.349   3.197  0.2355  0.8390 -0.9930
12261TIP3    H258199   1.295   2.350   3.344 -0.5568  0.5002 -0.7913
12262TIP3   OH258200   2.805   1.732   1.907  0.2525  0.0853 -0.3596
12262TIP3    H158201   2.835   1.762   1.822 -0.4797 -1.0173 -1.0311
12262TIP3    H258202   2.831   1.640   1.911 -0.5370 -0.1264  0.2048
12263TIP3   OH258203   6.152   0.070   1.824  0.1383 -0.5289  0.8345
12263TIP3    H158204   6.185  -0.014   1.854  2.4056 -0.1357 -0.3466
12263TIP3    H258205   6.220   0.104   1.765 -1.7129  1.0815 -0.5572
12264TIP3   OH258206   5.749   1.713  16.587 -0.0926  0.3938 -0.3492
12264TIP3    H158207   5.705   1.638  16.547  3.0361 -2.3322  0.8076
12264TIP3    H258208   5.751   1.693  16.681 -0.6841  2.8722  0.2706
12265TIP3   OH258209   5.684   6.752   5.373 -0.1841 -0.2786 -0.1677
12265TIP3    H158210   5.589   6.739   5.379 -0.5195 -0.0678 -3.1750
12265TIP3    H258211   5.696   6.846   5.385 -0.1822 -0.4628  1.4100
12266TIP3   OH258212   1.922   0.438  11.570 -0.0744 -0.1112  0.0810
12266TIP3    H158213   1.944   0.525  11.535 -1.6984  0.5365  0.5841
12266TIP3    H258214   1.830   0.445  11.597 -0.3612 -2.1214 -0.2333
12267TIP3   OH258215   2.330   4.965   4.191  0.2484  0.6039 -0.1618
12267TIP3    H158216   2.393   4.914   4.140 -0.4157 -0.6229  0.1753
12267TIP3    H258217   2.382   5.032   4.234  1.2002  0.1052 -0.5044
12268TIP3   OH258218   5.070   5.098   2.122 -0.3182 -0.7107  0.6248
12268TIP3    H158219   5.089   5.190   2.103  1.1076 -1.2503 -0.8293
12268TIP3    H258220   4.988   5.100   2.170 -0.2472  1.3302  0.7686
12269TIP3   OH258221   0.236   3.288   1.021  0.1105 -0.1983  0.1990
12269TIP3    H158222   0.175   3.300   0.948  1.1226 -0.7055 -0.7556
12269TIP3    H258223   0.181   3.296   1.099 -1.3430 -1.4769 -0.6340
12270TIP3   OH258224   0.404   0.869   4.971  0.2601 -0.2466 -0.1224
12270TIP3    H158225   0.487   0.843   5.011  0.1654  0.0803  0.3010
12270TIP3    H258226   0.381   0.951   5.016  0.9246  0.9904 -1.9199
12271TIP3   OH258227   5.177   1.049  15.415  0.1806  0.1935 -0.1431
12271TIP3    H158228   5.263   1.034  15.375  0.5122  1.0640  0.2129
12271TIP3    H258229   5.180   1.141  15.443 -0.3691 -0.1475  1.0774
12272TIP3   OH258230   3.638   3.935   3.072  0.2756 -0.2330  0.1354
12272TIP3    H158231   3.664   4.012   3.122 -0.8669 -0.1936  0.7057
12272TIP3    H258232   3.719   3.886   3.059  1.0459  1.1174 -0.3623
12273TIP3   OH258233   5.784   1.096  15.631 -0.0591 -0.0684 -0.3465
12273TIP3    H158234   5.872   1.073  15.663  0.6019 -1.1756 -2.6564
12273TIP3    H258235   5.733   1.115  15.709  2.1807  0.3849  1.0912
12274TIP3   OH258236   3.651   6.060  12.986  0.7840  0.5271 -0.0819
12274TIP3    H158237   3.652   6.147  12.946 -2.0130  1.0462  0.7542
12274TIP3    H258238   3.675   6.075  13.078 -0.3617  0.5636  0.2275
12275TIP3   OH258239   4.058   5.993   3.739 -0.3409  0.3467 -0.0966
12275TIP3    H158240   4.003   6.052   3.790  1.8781  1.0106  1.7234
12275TIP3    H258241   4.119   6.051   3.692 -0.7829 -0.3708 -1.6138
12276TIP3   OH258242   1.266   2.919  15.503 -0.2000 -0.1875  0.1764
12276TIP3    H158243   1.310   2.841  15.534  1.0045  0.5602  0.4006
12276TIP3    H258244   1.308   2.991  15.550 -1.4417  0.5832  0.1555
12277TIP3   OH258245   1.860   6.244  15.390 -0.6429  0.2134 -0.0378
12277TIP3    H158246   1.891   6.185  15.459  0.6958 -0.5457 -1.2079
12277TIP3    H258247   1.824   6.319  15.436  1.2636  0.2670  1.4896
12278TIP3   OH258248   6.681   0.146  12.833 -0.5013  0.3395  0.3518
12278TIP3    H158249   6.712   0.236  12.842 -1.3030  0.5361  1.2024
12278TIP3    H258250   6.727   0.113  12.755  0.4877  1.1810  0.5569
12279TIP3   OH258251   4.048   4.932  14.179 -0.0758 -0.0343 -0.2079
12279TIP3    H158252   4.135   4.919  14.217 -0.4337  0.1045  0.6853
12279TIP3    H258253   4.065   4.950  14.087  0.7373 -1.6325 -0.4048
12280TIP3   OH258254   0.242   1.344  12.264 -0.0275 -0.4566 -0.1694
12280TIP3    H158255   0.267   1.273  12.205  0.4548 -0.8276  0.4762
12280TIP3    H258256   0.200   1.409  12.207  0.7516 -0.6467 -0.9769
12281TIP3   OH258257   1.356   2.082  14.519  0.4386  0.3840 -0.5882
12281TIP3    H158258   1.326   1.993  14.501  2.6713 -1.0427  2.0634
12281TIP3    H258259   1.430   2.095  14.459  1.5188 -0.4526  0.5319
12282TIP3   OH258260   0.061   5.006  14.589 -0.1979 -0.1404  0.0385
12282TIP3    H158261   0.007   4.968  14.659  0.1847  0.4557  0.6610
12282TIP3    H258262   0.111   4.932  14.555 -1.8539 -0.8573 -1.0043
12283TIP3   OH258263   0.360   3.563  11.290  0.0082 -0.3410  0.0019
12283TIP3    H158264   0.317   3.484  11.326 -0.0102 -0.8557 -1.1186
12283TIP3    H258265   0.450   3.536  11.275  0.1211  0.0042  0.0624
12284TIP3   OH258266   5.753   4.678   4.717  0.1648  0.7088 -0.3127
12284TIP3    H158267   5.833   4.675   4.665 -0.8994 -0.1481 -1.9764
12284TIP3    H258268   5.694   4.618   4.673 -0.7030 -0.3505  2.0899
12285TIP3   OH258269   3.788   2.227  15.168 -0.7812  0.7549 -0.4436
12285TIP3    H158270   3.750   2.218  15.256 -0.2836  0.0097 -0.2885
12285TIP3    H258271   3.783   2.139  15.131  3.7072 -0.3295  0.8478
12286TIP3   OH258272   3.586   2.589   0.059 -0.1292 -0.4701  0.2034
12286TIP3    H158273   3.560   2.579   0.151  0.4657 -2.0216  0.2244
12286TIP3    H258274   3.520   2.539   0.010 -1.6309  1.9333 -0.4654
12287TIP3   OH258275   3.192   4.676   3.049  0.4915  0.4794 -0.6853
12287TIP3    H158276   3.266   4.724   3.013  0.3596 -0.4753 -2.3786
12287TIP3    H258277   3.232   4.606   3.101  0.6873  2.7839  2.5904
12288TIP3   OH258278   6.619   6.664  16.360 -0.3642 -0.0984  0.2988
12288TIP3    H158279   6.582   6.661  16.272 -1.7249 -0.2397  0.8602
12288TIP3    H258280   6.623   6.758  16.381 -0.1045 -0.0680  0.1200
12289TIP3   OH258281   5.968   3.686  16.746  0.0865  0.1367 -0.2791
12289TIP3    H158282   5.987   3.693  16.653  1.8438  0.7211  0.0773
12289TIP3    H258283   5.990   3.595  16.768 -1.1720 -0.2628 -0.5710
12290TIP3   OH258284   0.181   0.428   2.957 -0.1398 -0.6724 -0.4958
12290TIP3    H158285   0.234   0.501   2.926  0.5815 -1.0123 -0.0945
12290TIP3    H258286   0.169   0.372   2.880  1.2362 -1.2705 -0.3109
12291TIP3   OH258287   4.649   1.586   0.889  0.4511  0.3403 -0.2101
12291TIP3    H158288   4.602   1.548   0.964 -0.9327 -0.0001 -1.2129
12291TIP3    H258289   4.608   1.672   0.876  0.0142  0.0085 -1.1377
12292TIP3   OH258290   5.075   5.670   3.585  0.4483 -0.1147 -0.3734
12292TIP3    H158291   5.012   5.734   3.617 -1.8142 -1.7144 -1.4126
12292TIP3    H258292   5.063   5.594   3.641  0.5677 -0.8824 -1.3608
12293TIP3   OH258293   4.755   0.206   4.325  0.2000 -0.3069 -0.2430
12293TIP3    H158294   4.705   0.278   4.365 -0.3156 -0.2504 -0.9735
12293TIP3    H258295   4.722   0.201   4.235  0.8360 -0.9045 -0.4501
12294TIP3   OH258296   4.043   3.003   5.029  0.1379 -0.0290  0.4248
12294TIP3    H158297   4.058   3.044   5.114  1.2983  1.6957 -0.5557
12294TIP3    H258298   3.971   3.054   4.990  0.5140  0.0734 -0.1559
12295TIP3   OH258299   0.798   3.004   0.104  0.0376 -0.6826  0.2471
12295TIP3    H158300   0.768   3.092   0.128 -0.5811 -0.5343 -0.9772
12295TIP3    H258301   0.723   2.965   0.059  1.5718 -0.3104 -2.9139
12296TIP3   OH258302   0.171   0.771   1.174 -0.1897 -0.1117  0.0266
12296TIP3    H158303   0.079   0.754   1.155 -0.0009 -0.3476 -0.7103
12296TIP3    H258304   0.173   0.791   1.267 -0.9224 -0.5428  0.1411
12297TIP3   OH258305   3.829   0.410   6.420  0.3542 -0.1111  0.3563
12297TIP3    H158306   3.778   0.396   6.500 -1.2008  0.1859 -0.5328
12297TIP3    H258307   3.896   0.342   6.422 -0.0266 -0.4787  1.6281
12298TIP3   OH258308   4.973   3.295   1.857 -0.0796 -0.2396  0.1818
12298TIP3    H158309   5.018   3.214   1.835  1.9146  1.3987 -2.2648
12298TIP3    H258310   4.961   3.291   1.952  3.5689 -1.6531  0.7280
12299TIP3   OH258311   3.848   1.638  16.812  0.1699  0.2787  0.1021
12299TIP3    H158312   3.908   1.581  16.763 -0.2340  0.3756 -0.5235
12299TIP3    H258313   3.872   1.727  16.784 -0.3612  0.3087 -0.2660
12300TIP3   OH258314   2.866   1.697   6.664 -0.3639  0.4396  0.8587
12300TIP3    H158315   2.931   1.628   6.655 -0.8026  0.2419 -1.2874
12300TIP3    H258316   2.799   1.676   6.598  0.3265  3.7866 -1.1448
12301TIP3   OH258317   0.695   2.931   2.841 -0.4202  0.2604 -0.7971
12301TIP3    H158318   0.701   2.838   2.864  1.2958 -0.1420 -2.5367
12301TIP3    H258319   0.657   2.931   2.753  1.6435  0.9699 -1.7713
12302TIP3   OH258320   1.550   3.605   2.146  0.3608  0.1563  0.3816
12302TIP3    H158321   1.595   3.649   2.218 -0.0532  1.3337 -0.0404
12302TIP3    H258322   1.457   3.618   2.164  0.2000 -1.2737  0.6596
12303TIP3   OH258323   6.443   4.190  14.424 -0.3592  0.1767  0.2935
12303TIP3    H158324   6.450   4.134  14.501 -2.6207  1.1912  1.3382
12303TIP3    H258325   6.478   4.137  14.352  0.3817 -1.3738  1.7301
12304TIP3   OH258326   3.980   6.667   4.835  0.0739  0.1631  0.5387
12304TIP3    H158327   4.021   6.748   4.804  0.4259 -0.5722 -1.0180
12304TIP3    H258328   3.967   6.681   4.929 -0.2145  2.1580  0.2414
12305TIP3   OH258329   1.733   3.547   1.519  0.5989 -0.3233  0.7112
12305TIP3    H158330   1.735   3.602   1.441 -0.6245 -0.6559  0.4229
12305TIP3    H258331   1.738   3.609   1.592  0.3204  0.0910  0.3816
12306TIP3   OH258332   3.810   0.745  16.195 -0.4760  0.1703 -0.0971
12306TIP3    H158333   3.841   0.762  16.284 -0.8923  0.7063 -0.0514
12306TIP3    H258334   3.719   0.717  16.206 -0.5200  0.2089 -0.3570
12307TIP3   OH258335   2.851   0.605  12.771  0.0270  0.4463 -0.8421
12307TIP3    H158336   2.936   0.639  12.799 -0.7575  2.2725 -0.4760
12307TIP3    H258337   2.801   0.684  12.749 -3.0364 -0.0508  3.1548
12308TIP3   OH258338   6.002   1.713   5.055  0.0427  0.4792 -0.0615
12308TIP3    H158339   6.043   1.657   4.989  1.1028  1.9647 -0.7158
12308TIP3    H258340   5.959   1.781   5.005 -2.2275 -0.3190  0.6731
12309TIP3   OH258341   4.916   1.681  10.324 -0.0915 -0.3476  0.1212
12309TIP3    H158342   4.872   1.704  10.242 -1.5402  1.6798  1.3935
12309TIP3    H258343   4.860   1.614  10.363  1.1439 -2.1139 -0.9071
12310TIP3   OH258344   5.763   3.398   1.790 -0.2576  0.1820 -0.2406
12310TIP3    H158345   5.668   3.385   1.794 -0.4710  1.6458 -0.0733
12310TIP3    H258346   5.774   3.478   1.738  0.7614  1.2126  1.4600
12311TIP3   OH258347   2.279   3.140   3.363  0.6022 -0.0853 -0.2111
12311TIP3    H158348   2.327   3.166   3.442 -0.5766 -0.0626  0.5304
12311TIP3    H258349   2.196   3.187   3.369  1.1758  1.3639 -2.4309
12312TIP3   OH258350   0.730   6.582  16.398 -0.4055 -0.2932 -0.4257
12312TIP3    H158351   0.795   6.609  16.333 -0.2793 -0.2710 -0.2915
12312TIP3    H258352   0.707   6.493  16.373  1.0198 -0.9775  0.5823
12313TIP3   OH258353   1.067   0.018  11.683  0.6118 -0.5102  0.2590
12313TIP3    H158354   0.990  -0.032  11.658 -0.4173  0.2257  1.7855
12313TIP3    H258355   1.117  -0.040  11.740 -0.1963 -0.0949  1.4191
12314TIP3   OH258356   2.435   3.436   3.130  0.0564 -0.1952 -0.4417
12314TIP3    H158357   2.488   3.481   3.064 -1.6039  0.1517 -1.6150
12314TIP3    H258358   2.455   3.343   3.118 -0.3144 -0.1492 -1.5491
12315TIP3   OH258359   3.580   3.131  11.487  0.2732 -0.1034  0.0029
12315TIP3    H158360   3.528   3.210  11.500 -1.1359 -1.0844  0.5582
12315TIP3    H258361   3.655   3.140  11.546  0.8896  1.4365 -0.9720
12316TIP3   OH258362   1.933   4.473   6.517 -0.6446 -0.0838 -0.4324
12316TIP3    H158363   2.005   4.477   6.580 -1.7537  2.8246  0.8185
12316TIP3    H258364   1.895   4.386   6.531  0.6619 -0.4483  1.1747
12317TIP3   OH258365   4.978   6.213   1.328  0.7261  0.0686  0.6370
12317TIP3    H158366   4.987   6.288   1.269  0.9638 -0.1120  0.4438
12317TIP3    H258367   4.969   6.138   1.271  0.3831 -0.0393  0.8335
12318TIP3   OH258368   5.505   5.162   2.537 -0.3318 -0.4706 -0.1211
12318TIP3    H158369   5.417   5.141   2.506 -0.5201  0.0643  0.0434
12318TIP3    H258370   5.491   5.227   2.606  0.3009  1.4237 -1.6891
12319TIP3   OH258371   6.431   1.835  12.889  0.2842 -0.1772 -0.0666
12319TIP3    H158372   6.472   1.854  12.974 -0.1770  0.4725  0.0237
12319TIP3    H258373   6.392   1.918  12.863  0.6935 -0.2897 -1.0800
12320TIP3   OH258374   0.780   1.611   2.739  0.2960  0.2370  0.4065
12320TIP3    H158375   0.866   1.651   2.731  0.9165 -0.9288  0.9494
12320TIP3    H258376   0.797   1.527   2.782 -0.9874 -0.4837 -0.4544
12321TIP3   OH258377   3.540   1.047   1.676 -0.0761 -0.7802  0.2201
12321TIP3    H158378   3.483   1.085   1.743 -0.0125 -1.1945  0.5150
12321TIP3    H258379   3.517   0.954   1.675 -1.5555 -0.4704 -1.8009
12322TIP3   OH258380   1.966   3.303  16.123 -0.2313 -0.3873 -0.2845
12322TIP3    H158381   1.895   3.261  16.075  0.7430 -0.5416 -1.6251
12322TIP3    H258382   2.004   3.365  16.061 -0.9850  1.7921  1.3200
12323TIP3   OH258383   2.346   2.628   5.604 -0.0911  0.5703 -0.5783
12323TIP3    H158384   2.360   2.540   5.568 -1.3993 -0.1817  0.6243
12323TIP3    H258385   2.434   2.661   5.621  0.4359 -0.4683 -1.1539
12324TIP3   OH258386   0.655   0.174   2.036  0.0896  0.2315  0.2553
12324TIP3    H158387   0.629   0.098   2.087  2.3941 -0.0845  1.0991
12324TIP3    H258388   0.706   0.137   1.963 -0.9408  0.8415 -0.8095
12325TIP3   OH258389   5.154   4.302   3.928 -0.2502  0.1799 -0.2443
12325TIP3    H158390   5.241   4.305   3.889 -0.3796 -1.3686 -0.7576
12325TIP3    H258391   5.112   4.383   3.900  0.0809 -0.3217 -2.4250
12326TIP3   OH258392   3.376   0.392  16.043  0.0643  0.1474 -0.1234
12326TIP3    H158393   3.369   0.369  16.136  1.6070 -1.6349 -0.3742
12326TIP3    H258394   3.465   0.427  16.035 -0.7422  2.1782 -0.6062
12327TIP3   OH258395   3.301   1.731  14.632  0.4391  0.7946 -0.2658
12327TIP3    H158396   3.360   1.734  14.707  1.4956 -0.5967 -1.0002
12327TIP3    H258397   3.345   1.782  14.565 -0.1337  1.3790 -0.2046
12328TIP3   OH258398   5.099   3.003  13.701  0.0410 -0.2696  0.1428
12328TIP3    H158399   5.044   2.959  13.636 -1.0247  0.8643  0.2351
12328TIP3    H258400   5.037   3.042  13.763  0.8744  1.6857 -0.1638
12329TIP3   OH258401   2.972   3.815  15.229 -0.6689 -0.0488  0.8751
12329TIP3    H158402   2.984   3.720  15.225  1.7642  0.2319 -0.2893
12329TIP3    H258403   2.897   3.832  15.171 -0.1218 -1.1412 -0.2124
12330TIP3   OH258404   1.934   4.501  12.970  0.3071  0.5310 -0.5282
12330TIP3    H158405   1.991   4.504  13.046 -0.7685 -1.7655  0.4516
12330TIP3    H258406   1.992   4.513  12.895  1.6408  1.0193  0.5595
12331TIP3   OH258407   0.092   2.013   3.172 -0.1300  0.2102  0.2186
12331TIP3    H158408   0.100   1.936   3.228 -2.8136 -1.2987 -1.2838
12331TIP3    H258409   0.037   2.074   3.223 -0.9016 -0.3301  0.0433
12332TIP3   OH258410   6.013   3.476  15.586 -0.1196  0.4131  0.1626
12332TIP3    H158411   5.933   3.527  15.574 -0.6679 -0.4468  0.0649
12332TIP3    H258412   6.041   3.497  15.675 -1.4749 -0.6464  0.8824
12333TIP3   OH258413   2.654   1.235   2.817  0.6148 -0.0559 -0.2948
12333TIP3    H158414   2.670   1.153   2.865 -0.4095 -0.0350  0.1149
12333TIP3    H258415   2.657   1.303   2.884  2.3977  0.3864 -0.7730
12334TIP3   OH258416   3.059   5.667  17.240 -0.2919  0.0998  0.2138
12334TIP3    H158417   3.113   5.730  17.286 -1.6280  1.1128  0.4722
12334TIP3    H258418   3.076   5.684  17.147  0.4600 -0.1796  0.2959
12335TIP3   OH258419   0.347   6.087  11.699  0.0805  0.5351  0.3075
12335TIP3    H158420   0.292   6.138  11.759 -1.7476 -0.9319 -0.0406
12335TIP3    H258421   0.294   6.076  11.621  1.4144  0.1655 -0.5833
12336TIP3   OH258422   2.344   1.523  13.950  0.0168  0.2349  0.6675
12336TIP3    H158423   2.364   1.467  13.876  2.0363  2.0114 -0.2231
12336TIP3    H258424   2.377   1.475  14.026  2.7215  0.6101 -0.1883
12337TIP3   OH258425   2.157   1.469   1.761  0.1579 -0.5277 -0.0225
12337TIP3    H158426   2.126   1.558   1.777  0.0794 -0.5508 -0.0418
12337TIP3    H258427   2.144   1.423   1.844 -0.0769 -0.5985 -0.0969
12338TIP3   OH258428   3.749   5.780  12.709 -0.4574 -0.2622 -0.2719
12338TIP3    H158429   3.811   5.852  12.694 -0.4970 -0.3126 -0.6938
12338TIP3    H258430   3.782   5.709  12.654 -0.2659 -0.6592  0.3431
12339TIP3   OH258431   1.313   6.190  11.005 -0.0212 -0.5004  0.1706
12339TIP3    H158432   1.327   6.240  10.924  0.7163  0.1417  0.6772
12339TIP3    H258433   1.390   6.210  11.058 -0.5478 -0.8371  1.0724
12340TIP3   OH258434   2.374   3.779   5.961  0.3793  0.0485 -0.3931
12340TIP3    H158435   2.461   3.794   5.924  0.6793  1.7022  0.8169
12340TIP3    H258436   2.316   3.772   5.886  1.1060  2.2178 -1.2321
12341TIP3   OH258437   1.496   6.514  15.704 -0.4248 -0.0024  0.1166
12341TIP3    H158438   1.468   6.457  15.775  2.2195 -3.6956 -1.5201
12341TIP3    H258439   1.439   6.491  15.630 -0.1834  0.4803 -0.2296
12342TIP3   OH258440   1.031   1.435   1.493  0.2025 -0.1575 -0.1732
12342TIP3    H158441   1.021   1.362   1.554  0.6329 -1.4896 -1.6402
12342TIP3    H258442   1.085   1.498   1.540  3.0419 -2.4052 -0.1357
12343TIP3   OH258443   5.471   1.501   4.417  0.1114 -0.6077 -0.0628
12343TIP3    H158444   5.544   1.553   4.449 -0.8796 -0.5957  2.3613
12343TIP3    H258445   5.393   1.543   4.454 -1.4335  0.5728 -4.1284
12344TIP3   OH258446   2.254   4.113   0.636  0.3751 -0.2544 -0.0004
12344TIP3    H158447   2.241   4.170   0.711 -0.0099 -0.5706  0.1731
12344TIP3    H258448   2.236   4.025   0.669  1.7629 -0.5827 -0.0534
12345TIP3   OH258449   5.054   3.704   0.182  0.2122 -0.2750 -0.3457
12345TIP3    H158450   5.045   3.694   0.277  1.5561 -1.0817 -0.2777
12345TIP3    H258451   5.110   3.780   0.171 -1.3617  0.8904 -0.5679
12346TIP3   OH258452   1.628   2.399   0.876 -0.0489  0.7640  0.0041
12346TIP3    H158453   1.562   2.331   0.860 -0.3166  1.2140 -0.8329
12346TIP3    H258454   1.622   2.457   0.800  1.6521  0.5454 -0.3311
12347TIP3   OH258455   6.117   3.274  12.021  0.1710  0.0465 -0.2163
12347TIP3    H158456   6.201   3.277  12.067 -0.8359  3.2045  1.6921
12347TIP3    H258457   6.113   3.356  11.971 -1.5351 -0.3217 -0.7737
12348TIP3   OH258458   3.001   4.270  12.491  0.2547 -0.3757  0.0788
12348TIP3    H158459   2.967   4.181  12.484  2.0093 -1.1105  0.3801
12348TIP3    H258460   2.971   4.313  12.411 -2.2456 -0.5940  0.7906
12349TIP3   OH258461   1.726   1.350   4.885  0.8367  0.2550  0.1009
12349TIP3    H158462   1.763   1.297   4.956  2.7978  1.5318  0.1123
12349TIP3    H258463   1.802   1.380   4.836 -0.2808  2.0735 -0.6083
12350TIP3   OH258464   0.186   5.939   1.709 -0.0956 -0.1734 -0.0311
12350TIP3    H158465   0.186   5.968   1.617 -1.6298  1.8461  0.5220
12350TIP3    H258466   0.277   5.920   1.728  0.5921  1.4544 -1.4116
12351TIP3   OH258467   4.221   6.142  15.636  0.3529  0.2332  0.3409
12351TIP3    H158468   4.230   6.228  15.675 -1.1523 -0.8593  3.4331
12351TIP3    H258469   4.311   6.112  15.623  0.8963  1.6556  0.6498
12352TIP3   OH258470   6.378   3.992   3.201 -0.1134  0.4139 -0.2337
12352TIP3    H158471   6.471   4.016   3.205 -0.3970  1.9210 -1.4775
12352TIP3    H258472   6.332   4.076   3.199 -1.5084 -0.3067  0.1604
12353TIP3   OH258473   0.043   0.845  14.876 -0.5880  0.3153 -0.2390
12353TIP3    H158474  -0.019   0.807  14.814 -0.4892 -0.4600  0.1183
12353TIP3    H258475   0.068   0.929  14.838 -0.7907  0.0034 -1.0636
12354TIP3   OH258476   5.789   1.977  16.269 -1.2128 -0.0646 -0.2637
12354TIP3    H158477   5.874   2.011  16.240 -1.3714 -0.0567 -0.7312
12354TIP3    H258478   5.791   1.986  16.364 -0.3269 -0.8802 -0.1837
12355TIP3   OH258479   4.739   6.317  11.760  0.2511 -0.4611 -0.6291
12355TIP3    H158480   4.669   6.264  11.721  0.4799 -1.0148 -0.2960
12355TIP3    H258481   4.816   6.295  11.708  0.5275 -1.0944  0.0392
12356TIP3   OH258482   3.556   3.153   0.443 -0.1629  0.5804 -0.0238
12356TIP3    H158483   3.580   3.141   0.352  0.1051  2.1383 -0.1926
12356TIP3    H258484   3.621   3.215   0.477 -0.3095  0.0934  1.2097
12357TIP3   OH258485   1.709   4.238   5.363 -0.2138  0.0786  0.0479
12357TIP3    H158486   1.680   4.277   5.281  0.1277  1.8270  0.7037
12357TIP3    H258487   1.787   4.188   5.340 -0.9529 -0.6548 -0.9157
12358TIP3   OH258488   4.564   2.468   6.370  0.5458  0.3108 -0.1623
12358TIP3    H158489   4.500   2.504   6.308  0.2227  0.6980  0.3829
12358TIP3    H258490   4.520   2.393   6.409  0.2353  0.8471  0.5450
12359TIP3   OH258491   5.576   5.125   1.390  0.0073 -0.1835  0.1251
12359TIP3    H158492   5.492   5.104   1.430 -1.9973  2.5278 -2.2358
12359TIP3    H258493   5.567   5.102   1.298  2.1925 -0.5873 -0.0546
12360TIP3   OH258494   4.398   1.448  17.234  0.7426  0.3304  0.4829
12360TIP3    H158495   4.462   1.380  17.214 -0.1413 -0.2129 -0.6104
12360TIP3    H258496   4.340   1.409  17.300  0.2739  0.0326 -0.0983
12361TIP3   OH258497   0.067   2.200   5.420 -0.2276 -0.3362 -0.6105
12361TIP3    H158498   0.076   2.164   5.508 -1.2078 -0.6117 -0.6190
12361TIP3    H258499   0.146   2.170   5.374  1.4094  1.5688  0.7458
12362TIP3   OH258500   0.717   3.708  13.531 -0.2598  0.2161 -0.6641
12362TIP3    H158501   0.712   3.773  13.461 -2.5983  3.0643  1.8663
12362TIP3    H258502   0.648   3.645  13.509 -0.1084  0.3407 -1.5481
12363TIP3   OH258503   3.210   0.160  13.668  0.1997  0.2968  0.0165
12363TIP3    H158504   3.263   0.179  13.746 -1.1154 -1.2608  1.3872
12363TIP3    H258505   3.132   0.215  13.678  0.3424  0.5973 -0.5533
12364TIP3   OH258506   1.918   0.019   4.931  0.0325 -0.0519 -0.0746
12364TIP3    H158507   1.843   0.027   4.990  1.1924  0.7024  1.3607
12364TIP3    H258508   1.974  -0.047   4.972  2.2755  2.5649  1.3787
12365TIP3   OH258509   5.091   3.590  12.140  0.2713 -0.6042  0.4590
12365TIP3    H158510   5.071   3.510  12.091 -0.0953  0.7895 -1.8073
12365TIP3    H258511   5.180   3.612  12.113  0.0331  0.2348  0.3491
12366TIP3   OH258512   4.770   2.153   0.265 -0.6351  0.3175 -0.0077
12366TIP3    H158513   4.824   2.228   0.238 -0.8093  0.1959 -0.7210
12366TIP3    H258514   4.811   2.078   0.222 -0.8845  0.1072  0.1233
12367TIP3   OH258515   4.125   4.008   2.744 -0.0410 -0.1789 -0.1705
12367TIP3    H158516   4.049   3.950   2.735  1.7910 -2.6595 -0.8114
12367TIP3    H258517   4.087   4.096   2.747 -2.9033 -1.2469 -0.8957
12368TIP3   OH258518   2.386   5.249   1.511  0.5030  0.1428  0.0152
12368TIP3    H158519   2.407   5.274   1.421  1.2989 -2.5131 -0.6275
12368TIP3    H258520   2.306   5.297   1.531 -1.5184 -1.4399 -3.2935
12369TIP3   OH258521   6.155   2.368   4.653  0.5174 -0.7101 -0.6469
12369TIP3    H158522   6.074   2.333   4.691  1.3973 -1.1834  0.8810
12369TIP3    H258523   6.223   2.307   4.682  1.4537 -0.2920 -1.8590
12370TIP3   OH258524   1.341   4.845  16.252 -0.1168 -0.0585 -0.5493
12370TIP3    H158525   1.317   4.903  16.180 -1.0472 -0.1697 -0.3360
12370TIP3    H258526   1.436   4.832  16.242 -0.1140  0.5143 -1.3115
12371TIP3   OH258527   1.357   1.547  11.384 -0.2894 -0.3087  0.1912
12371TIP3    H158528   1.319   1.623  11.339 -0.9879 -0.9392 -0.3111
12371TIP3    H258529   1.412   1.585  11.452 -0.2548  0.6547 -0.3496
12372TIP3   OH258530   5.672   6.724  12.009 -0.1538 -0.8248 -0.0081
12372TIP3    H158531   5.674   6.739  11.915  0.2122 -0.8372 -0.0058
12372TIP3    H258532   5.649   6.631  12.018  0.3640 -0.9697 -0.1067
12373TIP3   OH258533   5.878   4.332   4.803 -0.0671 -0.9105 -0.4993
12373TIP3    H158534   5.890   4.339   4.709  0.2957  0.6213 -0.3777
12373TIP3    H258535   5.788   4.362   4.819  0.1979 -0.2054 -0.2852
12374TIP3   OH258536   0.521   3.415   5.443 -0.3948  0.4682 -0.3999
12374TIP3    H158537   0.495   3.382   5.356 -0.1325 -1.7664  0.2985
12374TIP3    H258538   0.556   3.338   5.488  0.8417  1.8865  1.1969
12375TIP3   OH258539   6.630   0.571  16.937 -0.0073 -0.2272  0.1455
12375TIP3    H158540   6.643   0.661  16.969  0.0820 -0.7375  1.6024
12375TIP3    H258541   6.548   0.543  16.978 -0.1293 -0.7493 -0.4554
12376TIP3   OH258542   3.352   6.625  16.291  0.2623  0.7195  0.3877
12376TIP3    H158543   3.416   6.660  16.228 -0.5257  2.3850  0.4488
12376TIP3    H258544   3.307   6.556  16.243  1.2153  0.4072 -0.0914
12377TIP3   OH258545   2.309   2.966   0.546 -0.1576 -0.1341  0.1880
12377TIP3    H158546   2.299   2.948   0.639  0.7705 -1.9785 -0.0214
12377TIP3    H258547   2.404   2.972   0.533 -0.2856  0.3523 -0.5942
12378TIP3   OH258548   1.081   0.897   4.916  0.3414 -0.4008 -0.1459
12378TIP3    H158549   1.066   0.965   4.982  0.5608 -0.7269  0.2435
12378TIP3    H258550   1.006   0.839   4.924  0.0801 -0.1324 -0.5790
12379TIP3   OH258551   1.338   2.101  16.231 -0.4012  0.2686 -0.6104
12379TIP3    H158552   1.424   2.081  16.269  0.3349 -0.4185 -2.5143
12379TIP3    H258553   1.292   2.148  16.301  1.5480  0.7610  0.4388
12380TIP3   OH258554   2.243   0.823  14.273  0.2076 -0.8305  0.2333
12380TIP3    H158555   2.229   0.743  14.324 -0.2991  0.0356  1.5053
12380TIP3    H258556   2.327   0.809  14.229  0.4387 -1.7951  0.9515
12381TIP3   OH258557   4.739   1.300   0.049 -0.2351 -0.1613  0.4354
12381TIP3    H158558   4.677   1.250  -0.005 -1.4231 -0.0222  1.6014
12381TIP3    H258559   4.812   1.240   0.062 -1.1331 -1.2031  0.8665
12382TIP3   OH258560   0.757   0.357   2.412 -0.2423 -0.4528 -0.5209
12382TIP3    H158561   0.808   0.417   2.466 -0.0144 -1.3783  0.3236
12382TIP3    H258562   0.821   0.315   2.355 -0.2960 -0.4398 -0.5921
12383TIP3   OH258563   3.869   0.303  15.922  0.2123  0.0882  0.1903
12383TIP3    H158564   3.837   0.311  15.832 -0.1449  1.7552  0.4210
12383TIP3    H258565   3.956   0.343  15.920  0.7591 -1.0786  0.3256
12384TIP3   OH258566   1.071   6.354  13.826 -0.0961  0.0822 -0.0073
12384TIP3    H158567   1.048   6.263  13.807 -0.6002 -0.3058  2.2193
12384TIP3    H258568   1.167   6.355  13.826  0.1005  0.6299 -4.4572
12385TIP3   OH258569   6.269   0.506  15.728 -0.0463 -0.7385  0.5922
12385TIP3    H158570   6.310   0.588  15.755  0.8016 -1.0221  0.2179
12385TIP3    H258571   6.291   0.498  15.635 -1.6288 -0.5221  0.1746
12386TIP3   OH258572   4.589   0.058  13.140  0.1138 -0.4921  0.2357
12386TIP3    H158573   4.595   0.070  13.045  1.8883 -1.3987  0.1969
12386TIP3    H258574   4.604   0.146  13.176  0.3096 -0.3031 -0.3033
12387TIP3   OH258575   5.952   2.202  15.086 -0.0076  0.5537  0.0470
12387TIP3    H158576   5.980   2.125  15.037 -2.0843 -2.4282  3.1126
12387TIP3    H258577   5.857   2.207  15.071 -0.1208  1.6693  0.9916
12388TIP3   OH258578   2.750   5.786   0.939 -0.2791 -0.0766  0.2514
12388TIP3    H158579   2.790   5.789   0.852  1.3180  0.7776  0.9753
12388TIP3    H258580   2.814   5.829   0.996 -1.1620 -0.8815  1.9033
12389TIP3   OH258581   5.196   0.330  17.185 -0.5240 -0.1791  0.3519
12389TIP3    H158582   5.113   0.287  17.163 -1.3422  0.7230  1.5626
12389TIP3    H258583   5.201   0.404  17.126  0.3396 -1.2339 -0.9643
12390TIP3   OH258584   3.798   6.162  14.092  0.1919 -0.2040 -0.0443
12390TIP3    H158585   3.712   6.120  14.088  0.4415 -0.6112 -2.1722
12390TIP3    H258586   3.810   6.202  14.006  1.4673  1.2581  0.7483
12391TIP3   OH258587   0.959   3.031  16.832 -0.1919  0.1895 -0.6088
12391TIP3    H158588   1.010   2.955  16.807 -2.1221 -0.8708 -1.5167
12391TIP3    H258589   0.912   3.004  16.911  0.8835  1.2923  0.4591
12392TIP3   OH258590   2.131   4.385  14.837  0.3619 -0.4326 -0.6124
12392TIP3    H158591   2.215   4.426  14.813  0.8498 -1.3311 -0.4712
12392TIP3    H258592   2.137   4.296  14.802 -0.6079 -0.4494 -0.7411
12393TIP3   OH258593   2.206   1.049  14.904 -0.0937 -0.6362  0.1306
12393TIP3    H158594   2.286   1.071  14.952  0.4047  0.0469 -0.9686
12393TIP3    H258595   2.156   1.131  14.902 -0.0215 -0.6031 -0.6547
12394TIP3   OH258596   5.306   2.042   0.220 -0.1892 -0.4136  0.1528
12394TIP3    H158597   5.317   1.997   0.304  0.4238 -0.4603  0.0513
12394TIP3    H258598   5.393   2.075   0.199 -0.2600 -0.7253 -0.6477
12395TIP3   OH258599   0.443   1.700   6.312 -0.1556 -0.3918 -0.3355
12395TIP3    H158600   0.422   1.680   6.403  1.4061 -1.3632 -0.1550
12395TIP3    H258601   0.425   1.793   6.303 -0.7263 -0.3690  0.8394
12396TIP3   OH258602   1.585   5.943   0.971 -0.2561 -0.5150  0.2228
12396TIP3    H158603   1.556   5.991   0.894 -1.1833 -0.8378  0.3571
12396TIP3    H258604   1.518   5.959   1.037 -1.8234 -3.6986 -0.3912
12397TIP3   OH258605   2.885   6.408   2.681  0.2507 -0.7823  0.0320
12397TIP3    H158606   2.962   6.360   2.651  0.2058 -0.1217 -1.2026
12397TIP3    H258607   2.822   6.402   2.609  0.5772  1.8212 -0.5879
12398TIP3   OH258608   2.090   4.201  16.408  0.1792  0.2357  0.1480
12398TIP3    H158609   2.026   4.129  16.410 -0.9021  1.1668  0.7963
12398TIP3    H258610   2.068   4.254  16.486  0.6781  1.4790 -0.5285
12399TIP3   OH258611   4.570   0.591  15.680  0.3738  0.2731 -0.2853
12399TIP3    H158612   4.595   0.629  15.765 -0.3108 -0.1146  0.0988
12399TIP3    H258613   4.588   0.661  15.617 -0.9794  1.3292  0.4217
12400TIP3   OH258614   6.239   2.897  12.876  0.2025  0.2067 -0.1949
12400TIP3    H158615   6.219   2.847  12.955  2.7741 -0.9843 -0.2198
12400TIP3    H258616   6.247   2.987  12.906 -0.1734 -0.0249  0.6424
12401TIP3   OH258617   5.827   3.121  13.281  0.1228 -0.3423 -0.0462
12401TIP3    H158618   5.743   3.155  13.313  0.5039  1.9917 -1.3037
12401TIP3    H258619   5.804   3.066  13.206 -0.2826  1.3713 -1.2433
12402TIP3   OH258620   3.790   1.924   4.438 -0.0992  0.1606  1.0066
12402TIP3    H158621   3.866   1.933   4.495 -0.6858 -1.6637  2.1802
12402TIP3    H258622   3.727   1.874   4.490 -1.3360 -0.0843 -0.6404
12403TIP3   OH258623   3.693   5.775   1.662 -0.0975  0.1898  0.1946
12403TIP3    H158624   3.733   5.780   1.575  0.1730 -1.6466  0.1675
12403TIP3    H258625   3.620   5.836   1.659  0.4458  0.8028 -1.0288
12404TIP3   OH258626   5.037   6.099  14.047  0.0403  0.1588  0.1931
12404TIP3    H158627   4.953   6.056  14.064 -0.4095  1.1943  0.6934
12404TIP3    H258628   5.103   6.034  14.072 -0.5718 -1.0976 -1.2880
12405TIP3   OH258629   4.761   2.094   1.812  0.3426 -0.5957  0.1036
12405TIP3    H158630   4.717   2.157   1.756 -0.3557 -0.5871  0.6484
12405TIP3    H258631   4.741   2.009   1.774 -0.8283 -0.6501  0.7849
12406TIP3   OH258632   4.060   3.758   2.602  0.1806  0.3221  0.2278
12406TIP3    H158633   4.097   3.680   2.643 -1.1280 -0.0133  0.8408
12406TIP3    H258634   3.997   3.790   2.666  0.1999  1.4874 -0.3211
12407TIP3   OH258635   6.449   1.088   0.472 -0.1067 -0.2399  0.7548
12407TIP3    H158636   6.442   0.995   0.449 -1.2208 -0.1125  0.5169
12407TIP3    H258637   6.380   1.102   0.538 -1.6109  0.9101 -0.9495
12408TIP3   OH258638   6.547   4.684  10.745 -0.0467  0.0268 -0.3797
12408TIP3    H158639   6.604   4.654  10.816  0.4669  0.1828 -0.7256
12408TIP3    H258640   6.474   4.727  10.790 -0.0715 -0.4769  0.0751
12409TIP3   OH258641   3.540   0.292   5.756 -0.1659  0.9423 -0.4541
12409TIP3    H158642   3.559   0.331   5.842  1.0882  0.4865 -0.5130
12409TIP3    H258643   3.448   0.314   5.741 -1.7234 -2.2634  2.7934
12410TIP3   OH258644   6.217   1.607  11.992  0.5717 -0.3759  0.2105
12410TIP3    H158645   6.275   1.542  11.952  1.7537 -0.9662  2.6674
12410TIP3    H258646   6.143   1.612  11.933  1.1973 -2.7830 -0.9168
12411TIP3   OH258647   4.466   2.304   1.142 -0.2785 -0.2751  0.0005
12411TIP3    H158648   4.455   2.372   1.208  1.1161 -1.6441  1.7428
12411TIP3    H258649   4.546   2.329   1.094 -0.2802 -0.2174  0.0281
12412TIP3   OH258650   2.696   5.283  13.107 -0.2292  0.0624  0.1988
12412TIP3    H158651   2.637   5.350  13.072  0.8413  0.7848 -0.2855
12412TIP3    H258652   2.774   5.289  13.052  0.7945 -0.0081  1.5893
12413TIP3   OH258653   0.100   0.089  14.410 -0.4224  0.1404  0.8529
12413TIP3    H158654   0.083   0.039  14.331 -1.4213  1.3982  0.2448
12413TIP3    H258655   0.162   0.035  14.460 -2.3255 -2.2680  0.7960
12414TIP3   OH258656   2.809   5.039  12.748  0.1058  0.5129  0.0876
12414TIP3    H158657   2.722   5.001  12.735  0.5604 -0.3210 -0.5890
12414TIP3    H258658   2.805   5.124  12.703 -1.2094  1.7751  2.4043
12415TIP3   OH258659   0.922   2.801   3.582 -0.0013 -0.1128 -0.0957
12415TIP3    H158660   0.857   2.857   3.540 -0.3532 -0.4798 -0.0405
12415TIP3    H258661   0.901   2.713   3.552 -0.9143 -0.5382  1.6416
12416TIP3   OH258662   2.910   0.729   5.703  0.3172 -0.0793  0.3808
12416TIP3    H158663   2.978   0.665   5.725 -0.4189 -0.1489  2.6518
12416TIP3    H258664   2.917   0.796   5.770 -0.4700  1.0409 -0.6104
12417TIP3   OH258665   3.505   2.821  12.382  0.0582  0.3223  1.0281
12417TIP3    H158666   3.415   2.818  12.351  0.5394 -0.5150 -0.4061
12417TIP3    H258667   3.512   2.746  12.442  0.3840 -1.1667 -0.7489
12418TIP3   OH258668   5.216   5.693  14.855 -0.2490  0.3670  0.5956
12418TIP3    H158669   5.153   5.688  14.783 -0.4133 -0.5896  0.8049
12418TIP3    H258670   5.301   5.676  14.814 -0.2039  0.8968  0.4512
12419TIP3   OH258671   1.399   6.430   1.502 -0.4086 -0.4829  0.0927
12419TIP3    H158672   1.355   6.371   1.441 -1.1466 -1.0955  1.1872
12419TIP3    H258673   1.491   6.426   1.476 -0.7129 -0.6580 -1.0254
12420TIP3   OH258674   4.734   1.844   2.392 -0.5052  0.6553  0.0160
12420TIP3    H158675   4.697   1.783   2.455 -0.3207  3.0511  2.6184
12420TIP3    H258676   4.825   1.816   2.382 -0.9231 -0.6329 -0.4229
12421TIP3   OH258677   5.872   3.096   5.582 -0.0967  0.1561  0.1285
12421TIP3    H158678   5.795   3.081   5.526 -0.9312  1.6568  0.8352
12421TIP3    H258679   5.839   3.090   5.671  1.1297 -1.6749  0.5165
12422TIP3   OH258680   4.477   1.173   6.690  0.2372  0.2362  0.2454
12422TIP3    H158681   4.521   1.178   6.605 -4.3247 -0.8255 -2.5085
12422TIP3    H258682   4.457   1.081   6.702 -1.2375  0.6468  1.2640
12423TIP3   OH258683   5.968   0.044  16.443 -0.7092 -0.1208  0.3309
12423TIP3    H158684   6.023  -0.034  16.449 -1.3161 -0.5588  0.3035
12423TIP3    H258685   5.882   0.010  16.420 -1.3218  0.4122  1.6980
12424TIP3   OH258686   2.877   3.533   0.475  0.5089  0.8452  0.0011
12424TIP3    H158687   2.874   3.526   0.379  0.0226  1.0797 -0.0000
12424TIP3    H258688   2.844   3.448   0.505  1.7356  0.3303 -0.0326
12425TIP3   OH258689   0.388   2.367  16.979 -0.1164 -0.4176 -0.3319
12425TIP3    H158690   0.300   2.405  16.976  0.3704  0.6631 -1.7414
12425TIP3    H258691   0.435   2.419  17.044  0.1121  0.4446 -1.1769
12426TIP3   OH258692   3.372   4.128  16.017  0.0375 -0.0290  0.3603
12426TIP3    H158693   3.424   4.050  15.997  0.4792  0.1212  0.8893
12426TIP3    H258694   3.361   4.172  15.933  1.1074  0.1400  0.2967
12427TIP3   OH258695   0.446   6.079  16.301  0.6135  0.4696  0.2438
12427TIP3    H158696   0.396   6.042  16.227  1.4810  0.1818 -0.2174
12427TIP3    H258697   0.435   6.015  16.371  0.2874  0.4422  0.1720
12428TIP3   OH258698   2.032   0.230  12.877  0.1072 -0.4046  0.1594
12428TIP3    H158699   1.993   0.146  12.901  1.1226 -0.7584  0.6547
12428TIP3    H258700   2.085   0.209  12.800  0.0229 -0.1267  0.0273
12429TIP3   OH258701   1.910   4.628   3.595  0.1376 -0.2948  0.0896
12429TIP3    H158702   1.855   4.702   3.569 -1.8353 -2.1061 -1.2210
12429TIP3    H258703   1.852   4.571   3.645  1.1267 -1.7494 -0.3465
12430TIP3   OH258704   5.599   3.740  14.770  0.6379  0.4786 -0.5199
12430TIP3    H158705   5.531   3.798  14.804 -1.4917 -1.1532 -1.7855
12430TIP3    H258706   5.615   3.772  14.681  0.5276  0.0511 -0.6967
12431TIP3   OH258707   1.899   1.457  13.837  0.0478 -0.0656 -0.0877
12431TIP3    H158708   1.943   1.426  13.758  0.6950 -0.4055  0.3927
12431TIP3    H258709   1.903   1.383  13.897 -0.8842  0.0195  0.0949
12432TIP3   OH258710   1.113   3.806   6.146  0.1053 -0.6760  0.2186
12432TIP3    H158711   1.092   3.746   6.217 -4.6412  1.6459  1.1764
12432TIP3    H258712   1.059   3.776   6.073  1.3817 -0.2989 -0.9267
12433TIP3   OH258713   1.311   6.540  14.028  0.2095  0.3271  0.2749
12433TIP3    H158714   1.335   6.476  13.961 -1.5879 -0.8529  0.6759
12433TIP3    H258715   1.235   6.585  13.991  0.2794  0.8765  0.8013
12434TIP3   OH258716   4.314   0.131   1.110  0.4641  0.0920  0.0489
12434TIP3    H158717   4.326   0.173   1.196 -0.4896 -1.4488  0.9862
12434TIP3    H258718   4.231   0.167   1.079  0.3784  0.0080  0.1763
12435TIP3   OH258719   4.380   5.122  11.828 -0.4076  0.3458 -0.0782
12435TIP3    H158720   4.302   5.108  11.773 -1.8741 -0.0356  1.9593
12435TIP3    H258721   4.419   5.035  11.836  0.7202  0.6500 -1.6767
12436TIP3   OH258722   0.866   1.850   5.643 -0.1563  0.3186  0.0480
12436TIP3    H158723   0.915   1.828   5.564  1.6360  1.3485  0.8232
12436TIP3    H258724   0.853   1.766   5.687 -0.0793 -0.1021 -0.7109
12437TIP3   OH258725   2.326   4.694  14.300 -0.5611  0.2430  0.0873
12437TIP3    H158726   2.289   4.763  14.245 -0.5548  0.9399  0.9287
12437TIP3    H258727   2.420   4.701  14.287 -0.6073 -0.4869 -0.8252
12438TIP3   OH258728   2.955   4.107   0.625 -0.1863  0.0932 -0.1461
12438TIP3    H158729   2.967   4.054   0.546 -1.9312  1.7842 -1.6437
12438TIP3    H258730   2.862   4.097   0.646  0.3285 -0.6781  2.0310
12439TIP3   OH258731   1.064   1.626   3.557 -0.0935  0.1128  0.0595
12439TIP3    H158732   1.059   1.711   3.514  1.5701  0.4628  0.4822
12439TIP3    H258733   1.142   1.632   3.612  1.9176 -2.6950 -2.1856
12440TIP3   OH258734   0.384   5.939   2.202 -0.3154 -0.0790 -0.3996
12440TIP3    H158735   0.451   5.870   2.195 -1.8885 -1.5651 -1.7334
12440TIP3    H258736   0.302   5.891   2.216 -1.2939  1.6197 -0.1176
12441TIP3   OH258737   4.804   6.243  16.845  0.1213  0.1955  0.0081
12441TIP3    H158738   4.827   6.314  16.785 -0.3279  1.2548  1.0602
12441TIP3    H258739   4.856   6.168  16.814  1.2003  1.1861 -0.6479
12442TIP3   OH258740   6.252   3.720   0.271  0.1049 -0.2136  0.2075
12442TIP3    H158741   6.223   3.725   0.180 -0.2686  1.4190  0.3812
12442TIP3    H258742   6.333   3.770   0.273  1.4134 -2.2409  0.3308
12443TIP3   OH258743   4.846   4.164   3.633  0.3517 -0.4259  0.4097
12443TIP3    H158744   4.755   4.165   3.661 -0.4098  0.1645 -1.9121
12443TIP3    H258745   4.852   4.090   3.573  1.0787  0.2519 -0.3851
12444TIP3   OH258746   1.475   4.936   4.135  0.1129  0.0509  0.3436
12444TIP3    H158747   1.550   4.975   4.090 -0.5994 -0.0697 -0.9943
12444TIP3    H258748   1.405   5.001   4.126 -0.9640 -1.2845 -1.5538
12445TIP3   OH258749   3.166   1.656  15.346  0.0184 -0.0761  0.3575
12445TIP3    H158750   3.214   1.575  15.361  1.6990  0.8787  0.4231
12445TIP3    H258751   3.104   1.635  15.276  0.9005 -1.2288 -0.1028
12446TIP3   OH258752   4.853   4.996  16.602  0.1365 -0.4143 -0.3508
12446TIP3    H158753   4.843   5.065  16.668  2.6856 -0.9062  0.6947
12446TIP3    H258754   4.770   4.950  16.602 -0.2697  0.1992  1.8663
12447TIP3   OH258755   0.446   6.451  16.573 -0.0749 -0.2906  0.1445
12447TIP3    H158756   0.474   6.523  16.630 -1.3187 -0.8126  1.4706
12447TIP3    H258757   0.373   6.487  16.524 -0.3222 -0.4709  0.3801
12448TIP3   OH258758   6.426   1.949   5.271  0.0086  0.0483 -0.0860
12448TIP3    H158759   6.441   1.921   5.180 -0.8637  0.7402 -0.4572
12448TIP3    H258760   6.476   2.030   5.279  2.3769 -1.4181  0.9295
12449TIP3   OH258761   1.595   3.978   3.544  0.4631 -0.2698 -0.3760
12449TIP3    H158762   1.533   3.914   3.511  0.4933 -0.6447  0.2866
12449TIP3    H258763   1.620   3.946   3.631 -0.6162  1.3529  0.5986
12450TIP3   OH258764   2.334   4.268   1.432 -0.5336  0.1835  0.4765
12450TIP3    H158765   2.338   4.318   1.514 -1.3027  0.3518  0.4163
12450TIP3    H258766   2.412   4.212   1.434 -0.0141  0.9022  0.8584
12451TIP3   OH258767   6.225   2.256  10.573  0.5137 -0.1276  0.2665
12451TIP3    H158768   6.280   2.334  10.582  1.0819 -0.6743  1.8383
12451TIP3    H258769   6.142   2.280  10.614  0.0625  0.2100 -0.8094
12452TIP3   OH258770   1.980   3.172   6.032  0.0534  0.0823  0.2646
12452TIP3    H158771   1.893   3.179   5.993 -0.3813 -1.6954  0.8034
12452TIP3    H258772   2.035   3.230   5.979 -1.3579  0.9333 -0.3366
12453TIP3   OH258773   2.617   1.881  14.713 -0.3198 -0.3047 -0.3716
12453TIP3    H158774   2.712   1.874  14.702  0.2586  2.3010  1.9158
12453TIP3    H258775   2.592   1.955  14.658 -0.6501  0.2776  0.5378
12454TIP3   OH258776   5.148   5.382   2.935 -0.6881 -0.1404 -0.4982
12454TIP3    H158777   5.142   5.296   2.894 -3.1853  0.6055 -1.8894
12454TIP3    H258778   5.134   5.364   3.029  2.6225 -1.5703 -0.1343
12455TIP3   OH258779   6.340   1.953  10.841  0.8190 -0.0445 -0.2828
12455TIP3    H158780   6.364   1.861  10.826 -2.8608 -1.2618  0.2829
12455TIP3    H258781   6.326   1.959  10.935  1.4851  1.2785 -0.2448
12456TIP3   OH258782   6.243   0.408  16.403  0.2942  0.4226  0.2831
12456TIP3    H158783   6.238   0.352  16.480 -0.7245  1.1584  0.7812
12456TIP3    H258784   6.205   0.356  16.332  2.5112 -0.7970 -0.0995
12457TIP3   OH258785   6.689   2.550  10.545  0.6800 -0.1523 -0.0019
12457TIP3    H158786   6.603   2.591  10.554  1.2060  0.5261  3.3348
12457TIP3    H258787   6.721   2.580  10.460 -1.6051  1.0492 -0.5289
12458TIP3   OH258788   3.144   2.197   3.497 -0.6783  0.3157 -0.3243
12458TIP3    H158789   3.102   2.190   3.412 -0.3392 -0.7635 -0.4232
12458TIP3    H258790   3.234   2.225   3.477 -0.4268 -0.4924 -0.3917
12459TIP3   OH258791   3.386   5.222  15.180 -0.0457 -0.1031 -0.3575
12459TIP3    H158792   3.406   5.149  15.122 -2.7270 -0.6773 -0.6470
12459TIP3    H258793   3.366   5.295  15.121 -3.8817 -0.9754 -0.3872
12460TIP3   OH258794   5.375   0.670  15.385  0.1907  0.1304  0.0388
12460TIP3    H158795   5.439   0.668  15.455  0.9809 -0.3532 -0.6738
12460TIP3    H258796   5.392   0.590  15.334  1.6198  1.8540 -2.3960
12461TIP3   OH258797   3.324   2.701   6.493  0.0723 -0.5181  0.2441
12461TIP3    H158798   3.413   2.665   6.489  0.3185 -0.0494  1.2591
12461TIP3    H258799   3.268   2.630   6.461  0.9139 -0.3205 -1.8388
12462TIP3   OH258800   1.111   6.520   2.551  0.0599 -0.4287 -0.4655
12462TIP3    H158801   1.143   6.430   2.546  1.8967  0.1305  0.3342
12462TIP3    H258802   1.066   6.525   2.636 -0.7841 -0.7932 -0.8804
12463TIP3   OH258803   6.251   4.064  13.204  0.1614 -0.3114  0.4542
12463TIP3    H158804   6.245   3.968  13.202 -1.5848 -0.3570  2.9525
12463TIP3    H258805   6.341   4.082  13.234  0.4619 -1.1540  0.0878
12464TIP3   OH258806   3.815   3.115   1.384 -0.7216 -0.0830 -0.7758
12464TIP3    H158807   3.886   3.053   1.398 -1.0359 -0.4299 -0.6903
12464TIP3    H258808   3.737   3.069   1.415 -0.5502  1.5885  2.6188
12465TIP3   OH258809   1.696   3.653  11.545  0.0374  0.0954 -0.2973
12465TIP3    H158810   1.689   3.562  11.514  0.7163  0.2907 -1.0861
12465TIP3    H258811   1.605   3.682  11.555 -0.1926 -0.8972  0.6978
12466TIP3   OH258812   6.018   0.826  15.554 -0.1663 -0.1479  0.3593
12466TIP3    H158813   6.009   0.898  15.615 -0.2775 -0.1673  0.3662
12466TIP3    H258814   5.933   0.821  15.509  0.1823  0.3872 -0.3761
12467TIP3   OH258815   3.608   4.806  16.668  0.5088  0.3220  0.0954
12467TIP3    H158816   3.652   4.728  16.702  0.9120  0.5023 -0.0066
12467TIP3    H258817   3.669   4.841  16.603 -0.5104 -0.3656 -1.2797
12468TIP3   OH258818   6.138   0.569   4.089  0.7723 -0.0795 -0.0850
12468TIP3    H158819   6.180   0.520   4.160  0.5025 -1.4616 -0.8437
12468TIP3    H258820   6.050   0.534   4.084  0.9707 -0.4338 -1.4785
12469TIP3   OH258821   6.733   2.468   1.555  0.0735 -0.3278 -0.2077
12469TIP3    H158822   6.770   2.412   1.487  1.3119 -1.3581  1.2471
12469TIP3    H258823   6.707   2.408   1.624 -2.7669  0.5285 -0.4013
12470TIP3   OH258824   3.380   1.785  10.503  0.2269  0.3138  0.0939
12470TIP3    H158825   3.424   1.810  10.422 -2.6416  1.0877 -1.3625
12470TIP3    H258826   3.333   1.865  10.531 -0.2793 -0.4348  1.5184
12471TIP3   OH258827   3.781   1.786   5.538 -0.2182 -0.6391  0.2538
12471TIP3    H158828   3.873   1.784   5.562  0.4104  1.0168 -1.6999
12471TIP3    H258829   3.738   1.833   5.610  1.3132  2.7600 -0.8533
12472TIP3   OH258830   3.181   4.765   2.276 -0.2896 -0.5071 -0.0748
12472TIP3    H158831   3.222   4.846   2.246 -0.0373 -0.2147  1.0276
12472TIP3    H258832   3.213   4.698   2.216  0.9742 -0.0932  0.1206
12473TIP3   OH258833   3.484   3.925  15.059 -0.2487  0.3721  0.2082
12473TIP3    H158834   3.503   3.841  15.017 -0.3243  1.0686 -1.2698
12473TIP3    H258835   3.389   3.936  15.049 -0.3754  0.2607  1.1577
12474TIP3   OH258836   0.752   4.479   4.851  0.3735  0.0180 -0.3012
12474TIP3    H158837   0.828   4.423   4.835 -0.7407 -1.4588 -0.6276
12474TIP3    H258838   0.727   4.462   4.942  0.6731  0.8203 -0.0596
12475TIP3   OH258839   0.628   5.454  12.671  0.1748  0.3756  0.1258
12475TIP3    H158840   0.575   5.417  12.601  0.2136  0.7859 -0.1290
12475TIP3    H258841   0.716   5.420  12.655  0.3174  0.9526 -0.4031
12476TIP3   OH258842   2.951   3.005  16.386 -0.2640  0.1161  0.2848
12476TIP3    H158843   2.961   3.048  16.301  2.4028 -0.7297  0.0657
12476TIP3    H258844   2.864   2.966  16.383 -1.1014  1.9571 -1.1360
12477TIP3   OH258845   4.816   4.230   1.070  0.3966 -0.0712  0.1821
12477TIP3    H158846   4.839   4.137   1.061 -1.7328 -0.4514 -2.6472
12477TIP3    H258847   4.849   4.271   0.990  0.2372  1.3830  0.8422
12478TIP3   OH258848   2.086   0.576   0.521  0.5403 -0.3311 -0.0026
12478TIP3    H158849   2.134   0.648   0.480  0.3703 -0.3351 -0.2132
12478TIP3    H258850   2.136   0.555   0.600 -0.2800  1.0970  0.9404
12479TIP3   OH258851   1.808   6.428   5.440  0.3884 -0.6744 -0.5696
12479TIP3    H158852   1.765   6.350   5.476 -0.8703  0.0228 -0.5268
12479TIP3    H258853   1.738   6.478   5.399  0.9518  1.0349  0.4467
12480TIP3   OH258854   4.529   4.291  11.964  0.2768 -0.6193  0.7535
12480TIP3    H158855   4.547   4.217  12.022 -0.3538 -0.2194  1.4801
12480TIP3    H258856   4.447   4.268  11.920 -0.7836  0.3166  2.1644
12481TIP3   OH258857   3.887   0.691  13.459  0.5609 -0.3183 -0.2109
12481TIP3    H158858   3.920   0.612  13.501  1.4324  0.1751  0.0368
12481TIP3    H258859   3.964   0.732  13.420  0.6544  1.9235  2.1319
12482TIP3   OH258860   2.480   2.363  16.771  0.2164  0.2265 -0.5738
12482TIP3    H158861   2.524   2.298  16.716  0.7711 -1.4499  1.6774
12482TIP3    H258862   2.437   2.311  16.840 -0.6118  2.1686  0.4632
12483TIP3   OH258863   3.175   6.056   0.747  0.3423 -0.0685  0.0430
12483TIP3    H158864   3.156   5.984   0.808 -0.4736 -1.2097 -1.4815
12483TIP3    H258865   3.153   6.135   0.796  0.4182 -0.8825  1.4720
12484TIP3   OH258866   2.692   5.649   2.907  0.1993  0.2429  0.3683
12484TIP3    H158867   2.714   5.573   2.853 -0.7386  0.0883  0.1808
12484TIP3    H258868   2.687   5.615   2.996  0.7656  0.2944  0.4225
12485TIP3   OH258869   0.829   5.207  13.321 -0.2627 -0.7543 -0.5602
12485TIP3    H158870   0.781   5.130  13.351 -0.6448  0.0268  0.9215
12485TIP3    H258871   0.764   5.277  13.317  0.2275 -0.3165 -1.1542
12486TIP3   OH258872   3.972   0.776   3.207 -0.1627 -0.2782 -0.6585
12486TIP3    H158873   3.932   0.693   3.177  0.2204 -0.4324 -0.7505
12486TIP3    H258874   3.986   0.825   3.126 -0.8005  0.0707 -0.5674
12487TIP3   OH258875   3.129   5.920   5.027  0.0702 -0.0768 -0.2114
12487TIP3    H158876   3.045   5.916   4.981  0.5705  0.6188 -1.2135
12487TIP3    H258877   3.163   6.007   5.007  0.7204 -0.0896  0.7670
12488TIP3   OH258878   0.332   4.029  13.846 -0.2792  0.2522  0.1351
12488TIP3    H158879   0.311   4.027  13.939  0.3850 -0.2846  0.2853
12488TIP3    H258880   0.352   4.121  13.827 -2.7865  0.8131 -0.0515
12489TIP3   OH258881   5.880   0.603  12.829  0.0847  0.0595  0.0122
12489TIP3    H158882   5.948   0.669  12.812 -0.1813  0.3004 -0.1254
12489TIP3    H258883   5.909   0.526  12.781 -0.0219  0.3405 -0.5056
12490TIP3   OH258884   0.355   5.643   4.829  0.6260  0.4950  0.2560
12490TIP3    H158885   0.427   5.704   4.811  0.8269  0.2646  0.2707
12490TIP3    H258886   0.374   5.608   4.916 -0.1974  1.3946  0.8113
12491TIP3   OH258887   4.575   1.831  12.119  0.6432 -0.0841 -0.3300
12491TIP3    H158888   4.509   1.770  12.086  0.6165 -0.3279  0.1644
12491TIP3    H258889   4.525   1.901  12.160  0.6856 -0.3530  0.1937
12492TIP3   OH258890   5.440   4.460   5.702 -0.1929 -0.0793 -0.3092
12492TIP3    H158891   5.433   4.462   5.798 -0.8347 -1.3054 -0.3035
12492TIP3    H258892   5.384   4.387   5.676  0.2352  0.0311 -1.6033
12493TIP3   OH258893   2.008   3.325   1.533 -0.2767  0.5907 -0.0016
12493TIP3    H158894   2.022   3.310   1.626  2.5716  1.1355 -0.2775
12493TIP3    H258895   1.963   3.246   1.502  0.4591 -0.4253  1.4645
12494TIP3   OH258896   0.359   3.201  16.211 -0.8658  0.0713  0.6159
12494TIP3    H158897   0.386   3.143  16.283  0.8266 -1.0466 -0.8306
12494TIP3    H258898   0.297   3.148  16.161 -1.1821  0.4303  0.6292
12495TIP3   OH258899   0.314   3.977  11.306 -0.2954  0.7639 -0.0154
12495TIP3    H158900   0.381   4.046  11.302  1.2806 -0.5102  2.0393
12495TIP3    H258901   0.244   4.015  11.359  1.1462  0.4502  2.2555
12496TIP3   OH258902   5.733   3.398   3.372 -0.2313  0.6722  0.7172
12496TIP3    H158903   5.647   3.358   3.361  0.5856 -0.6520 -1.3575
12496TIP3    H258904   5.770   3.353   3.448 -0.2734 -0.8618 -0.1288
12497TIP3   OH258905   5.482   0.405   4.311 -0.7179 -0.6360 -0.2733
12497TIP3    H158906   5.464   0.398   4.218 -0.7425  2.3636 -0.5946
12497TIP3    H258907   5.567   0.448   4.317 -0.9593 -0.2694  1.0524
12498TIP3   OH258908   4.485   5.604   4.258  0.1325 -0.1786 -0.1114
12498TIP3    H158909   4.524   5.690   4.238  0.6724 -0.5673 -0.7927
12498TIP3    H258910   4.396   5.610   4.224 -0.4609  0.7355  1.4939
12499TIP3   OH258911   5.833   4.296  13.097  0.0647 -0.0501 -0.2472
12499TIP3    H158912   5.912   4.262  13.139  0.9295  0.5017 -1.3647
12499TIP3    H258913   5.855   4.300  13.004 -0.7274  1.5634 -0.4025
12500TIP3   OH258914   1.969   6.311  13.539 -0.1565  0.5311  0.1970
12500TIP3    H158915   1.954   6.310  13.634 -1.3867  0.3123  0.0239
12500TIP3    H258916   1.946   6.400  13.512 -2.0893 -0.0466 -0.1966
12501TIP3   OH258917   5.665   0.503   6.341 -0.3055  0.0005  0.1611
12501TIP3    H158918   5.734   0.516   6.406 -1.4439 -0.3627  1.4994
12501TIP3    H258919   5.620   0.423   6.370 -1.3021  0.2461 -0.6437
12502TIP3   OH258920   0.466   5.888  13.861 -0.4473 -0.4662  0.0087
12502TIP3    H158921   0.408   5.961  13.841  0.1253 -0.1094 -0.3697
12502TIP3    H258922   0.554   5.923  13.851 -0.1617 -1.0848  0.2713
12503TIP3   OH258923   2.055   4.612  16.722  0.0556  0.1367  0.0314
12503TIP3    H158924   1.996   4.686  16.730 -0.2490 -0.1064  0.0838
12503TIP3    H258925   2.095   4.621  16.636 -0.0123  0.3361  0.0217
12504TIP3   OH258926   5.812   4.933   0.693  0.0744 -0.1406 -0.8207
12504TIP3    H158927   5.851   5.020   0.686 -1.2324  0.4153 -1.4925
12504TIP3    H258928   5.851   4.883   0.622 -1.1757  0.7207 -2.1551
12505TIP3   OH258929   6.350   5.417   4.758 -0.5449  0.0712 -0.3134
12505TIP3    H158930   6.416   5.362   4.715  0.6257  0.7504  0.5772
12505TIP3    H258931   6.267   5.370   4.743  0.1491 -0.8987 -1.2786
12506TIP3   OH258932   1.895   6.026  16.888 -0.0626  0.4830  0.0732
12506TIP3    H158933   1.860   5.976  16.814 -1.1247 -0.1355  0.9746
12506TIP3    H258934   1.892   5.965  16.962 -0.4026  1.5529  0.9613
12507TIP3   OH258935   0.910   0.501   2.588  0.2516  0.0786 -0.5098
12507TIP3    H158936   0.936   0.587   2.555 -0.6854  0.6088  0.0752
12507TIP3    H258937   0.977   0.479   2.653 -0.3393  1.1165  0.4958
12508TIP3   OH258938   3.461   0.261  15.665 -0.4722  0.4132  0.1064
12508TIP3    H158939   3.468   0.354  15.684  0.8041  0.2314  0.6671
12508TIP3    H258940   3.479   0.218  15.749  2.7636 -0.3627 -0.8464
12509TIP3   OH258941   2.984   6.236   5.027 -0.5584 -0.0342  0.1147
12509TIP3    H158942   2.986   6.242   5.122  0.1977  0.3393  0.0806
12509TIP3    H258943   2.907   6.181   5.008 -1.1401  0.4927  0.9007
12510TIP3   OH258944   6.142   2.385   6.472  0.0255  0.2649  0.1691
12510TIP3    H158945   6.129   2.295   6.504 -0.0961 -0.2146 -1.1717
12510TIP3    H258946   6.220   2.380   6.417 -0.1081  0.9301 -0.0905
12511TIP3   OH258947   5.914   0.292   4.919 -0.6589 -0.2828  0.1596
12511TIP3    H158948   5.846   0.341   4.966 -0.2527 -0.1587  0.6218
12511TIP3    H258949   5.973   0.262   4.988 -1.1079 -1.7653 -0.0749
12512TIP3   OH258950   6.767   3.323  14.307 -0.4487  0.2313  1.1566
12512TIP3    H158951   6.727   3.391  14.360 -1.7405  0.3879  0.0243
12512TIP3    H258952   6.717   3.323  14.226  2.7177  1.3892 -0.9587
12513TIP3   OH258953   4.404   1.556   1.960 -0.3951  0.8072 -0.2069
12513TIP3    H158954   4.492   1.524   1.937 -0.6247 -0.6554  0.8155
12513TIP3    H258955   4.419   1.618   2.032 -0.1142  1.4856 -0.8392
12514TIP3   OH258956   0.228   4.362  14.580 -0.1111 -0.1693 -0.2275
12514TIP3    H158957   0.219   4.282  14.632 -2.8099  0.7016  0.7968
12514TIP3    H258958   0.195   4.339  14.493 -0.9379 -0.1934  0.0824
12515TIP3   OH258959   2.766   4.526  13.248 -0.3580 -0.2839  0.3540
12515TIP3    H158960   2.694   4.575  13.287 -0.6147 -0.6492  0.3496
12515TIP3    H258961   2.754   4.537  13.153 -0.2537 -0.1260  0.3597
12516TIP3   OH258962   1.848   3.658   4.631 -0.3275 -0.0028 -0.0706
12516TIP3    H158963   1.914   3.588   4.623 -0.6394 -0.3736  0.5326
12516TIP3    H258964   1.891   3.735   4.594 -0.4386 -0.7920 -1.9578
12517TIP3   OH258965   1.893   5.652  11.404 -0.7156  0.1666 -0.0869
12517TIP3    H158966   1.899   5.639  11.499  2.5342 -1.9515 -0.4393
12517TIP3    H258967   1.928   5.740  11.390 -0.8154  0.3292  0.6123
12518TIP3   OH258968   4.686   0.300   0.273  0.0038 -0.5821  0.3902
12518TIP3    H158969   4.691   0.209   0.245  0.1111 -0.9992  1.7078
12518TIP3    H258970   4.706   0.298   0.367  1.2741  0.9525  0.1885
12519TIP3   OH258971   3.111   4.136   1.874 -0.2528  0.1920 -0.4210
12519TIP3    H158972   3.048   4.066   1.887 -1.1027  0.7708 -1.2218
12519TIP3    H258973   3.128   4.135   1.779  0.5080  0.4118 -0.2934
12520TIP3   OH258974   1.825   1.403   3.665  0.1048 -0.5994  0.4769
12520TIP3    H158975   1.828   1.493   3.697 -2.5025 -0.4362  0.4356
12520TIP3    H258976   1.917   1.376   3.661  0.8420  1.3256  2.4992
12521TIP3   OH258977   3.409   5.972  16.282  0.3348 -0.0093  0.0968
12521TIP3    H158978   3.416   6.057  16.325 -2.0609  1.3429 -1.9488
12521TIP3    H258979   3.328   5.934  16.316  0.0065 -0.2735 -0.9484
12522TIP3   OH258980   4.429   6.196  14.692  0.1840  0.2976 -0.4926
12522TIP3    H158981   4.481   6.223  14.769 -0.1493 -0.2323 -0.0731
12522TIP3    H258982   4.494   6.160  14.631  0.2954 -0.5601  0.1153
12523TIP3   OH258983   1.179   4.791   2.024  0.7768 -0.1141 -0.2183
12523TIP3    H158984   1.146   4.859   1.966 -1.9490  1.3463  2.7576
12523TIP3    H258985   1.106   4.730   2.034  1.0070 -0.1413  1.8183
12524TIP3   OH258986   5.556   1.434  12.796  0.2167  0.0371 -0.4362
12524TIP3    H158987   5.461   1.435  12.807  0.4000  0.6920  1.7236
12524TIP3    H258988   5.576   1.347  12.763 -1.2782  0.6440 -3.2783
12525TIP3   OH258989   2.945   5.456  13.731  0.6746 -0.2939 -0.5580
12525TIP3    H158990   2.915   5.497  13.650 -1.8095  1.0601  0.9035
12525TIP3    H258991   3.040   5.464  13.729  0.5798  1.1412 -2.5819
12526TIP3   OH258992   2.834   5.862   3.658  0.1933  0.4658  0.1652
12526TIP3    H158993   2.849   5.957   3.649  0.6592  0.5188  1.3590
12526TIP3    H258994   2.823   5.848   3.752  0.7418 -0.7580  0.0683
12527TIP3   OH258995   0.179   4.496   2.517 -0.2366  0.0741 -0.0515
12527TIP3    H158996   0.261   4.446   2.523 -0.6947 -0.6845  0.1263
12527TIP3    H258997   0.179   4.532   2.428  0.7076  0.8385  0.2459
12528TIP3   OH258998   5.398   1.566   2.249  0.5374 -0.1899 -0.0719
12528TIP3    H158999   5.434   1.507   2.183  2.1957  0.2569  0.3840
12528TIP3    H259000   5.332   1.617   2.202  0.5242 -0.9919 -0.9625
12529TIP3   OH259001   0.306   1.753  13.656  0.2338 -0.5298 -0.2164
12529TIP3    H159002   0.271   1.841  13.648  0.1184 -0.4098  1.3865
12529TIP3    H259003   0.396   1.765  13.688 -0.7176 -0.9935  3.0032
12530TIP3   OH259004   2.161   5.950  16.626 -0.6210 -0.4476 -1.1018
12530TIP3    H159005   2.100   5.900  16.572 -0.7704 -0.8768 -0.5496
12530TIP3    H259006   2.106   6.007  16.679 -0.4673  0.0772 -1.4996
12531TIP3   OH259007   2.341   4.322  13.381 -0.4581  0.3750  0.2731
12531TIP3    H159008   2.260   4.353  13.422  0.1528  3.0224 -0.3464
12531TIP3    H259009   2.319   4.318  13.287 -0.9002 -2.5455  0.4099
12532TIP3   OH259010   5.539   6.734   2.629 -0.6343 -0.0154 -0.0737
12532TIP3    H159011   5.492   6.708   2.708 -0.2098 -0.2878  0.0938
12532TIP3    H259012   5.471   6.748   2.564 -1.1355  1.8452  0.7858
12533TIP3   OH259013   4.949   0.057   1.440 -0.2848  0.1246  0.4616
12533TIP3    H159014   4.911   0.094   1.519 -0.8103 -0.3101  0.4253
12533TIP3    H259015   5.041   0.083   1.442 -0.2742  0.0543  1.2532
12534TIP3   OH259016   5.560   4.136   3.291 -0.0969 -0.5655 -0.6989
12534TIP3    H159017   5.613   4.063   3.258  1.5249  0.8196 -1.3134
12534TIP3    H259018   5.622   4.209   3.300 -1.8672  1.1258 -1.3615
12535TIP3   OH259019   1.819   5.687  10.542 -0.1210  0.1612 -0.2103
12535TIP3    H159020   1.879   5.713  10.612  2.2218 -0.1085 -2.0026
12535TIP3    H259021   1.800   5.595  10.559  2.1427 -0.5022 -1.0377
12536TIP3   OH259022   3.514   6.341  15.377 -0.4510 -0.4121 -0.1534
12536TIP3    H159023   3.548   6.429  15.388  0.4022 -0.7873  0.2507
12536TIP3    H259024   3.490   6.336  15.284 -0.6601  0.2903 -0.1414
12537TIP3   OH259025   6.636   1.982   5.536  0.4002 -0.2245 -0.0061
12537TIP3    H159026   6.637   1.897   5.492  1.8085 -0.1979 -0.0660
12537TIP3    H259027   6.593   2.040   5.473  1.0679 -0.5042 -0.7313
12538TIP3   OH259028   4.333   4.542  15.144  0.2773 -0.2303 -0.4987
12538TIP3    H159029   4.276   4.515  15.072 -1.6266  0.0119  0.8482
12538TIP3    H259030   4.335   4.637  15.138 -1.8378 -0.0134  1.0856
12539TIP3   OH259031   5.250   2.194  12.288  0.2435 -0.1404 -0.6644
12539TIP3    H159032   5.182   2.128  12.302 -0.0149  0.1569 -0.4938
12539TIP3    H259033   5.320   2.147  12.244 -0.6101 -0.1621 -2.0695
12540TIP3   OH259034   2.787   0.407  11.540 -0.6688 -0.1807 -0.8479
12540TIP3    H159035   2.838   0.486  11.523  0.3177 -0.7885 -0.8240
12540TIP3    H259036   2.810   0.382  11.630 -1.1674 -0.3475 -0.7662
12541TIP3   OH259037   5.662   3.595  14.245 -0.0690  0.4638  0.1691
12541TIP3    H159038   5.757   3.597  14.236  0.0365 -2.8061 -0.3606
12541TIP3    H259039   5.648   3.593  14.340  0.4523 -0.1116  0.2421
12542TIP3   OH259040   0.276   0.338  12.439  0.5427 -0.0572  0.4591
12542TIP3    H159041   0.202   0.341  12.500  0.0167  1.6689 -0.2054
12542TIP3    H259042   0.329   0.265  12.469 -0.5103 -0.2110  2.0439
12543TIP3   OH259043   6.141   6.711   6.228  0.5591 -0.1111  0.6574
12543TIP3    H159044   6.076   6.661   6.180 -0.1242  0.7524  0.6499
12543TIP3    H259045   6.108   6.715   6.318  0.0538  1.1774  0.4415
12544TIP3   OH259046   4.802   6.003  15.161 -0.7266  0.1705 -0.0917
12544TIP3    H159047   4.851   6.075  15.199 -0.3658 -0.3956  0.5269
12544TIP3    H259048   4.712   6.016  15.192 -0.5017 -0.1008  0.6872
12545TIP3   OH259049   5.139   4.331  15.808 -0.3176  0.1994  0.3680
12545TIP3    H159050   5.233   4.326  15.793 -0.5006 -1.2903 -0.6130
12545TIP3    H259051   5.114   4.241  15.831 -2.0977 -0.6223 -3.8053
12546TIP3   OH259052   0.280   5.775  10.957  0.0063  0.9212 -0.0463
12546TIP3    H159053   0.213   5.836  10.924 -0.8151  0.0539 -0.0205
12546TIP3    H259054   0.241   5.739  11.037  0.6535  0.6412  0.1450
12547TIP3   OH259055   6.023   4.247   0.364 -0.6373  0.6001  0.2093
12547TIP3    H159056   6.025   4.177   0.299  0.8713  1.0572 -0.2943
12547TIP3    H259057   5.989   4.323   0.316 -0.6436  0.6389  0.2759
12548TIP3   OH259058   2.260   6.388   3.382  0.1026  0.3113 -0.2528
12548TIP3    H159059   2.328   6.322   3.378 -1.0750 -0.9087 -1.1962
12548TIP3    H259060   2.197   6.355   3.446  0.4946  1.5593  0.8214
12549TIP3   OH259061   2.906   1.006  11.308 -0.4246  0.1330 -0.1323
12549TIP3    H159062   2.942   1.078  11.360  1.5740 -0.1125 -1.0585
12549TIP3    H259063   2.940   0.927  11.350  3.0183 -0.0494 -2.7927
12550TIP3   OH259064   2.960   5.326  14.720 -0.1251  0.0592 -0.0905
12550TIP3    H159065   2.903   5.253  14.742 -0.0387  0.4616  1.5852
12550TIP3    H259066   3.048   5.288  14.717 -0.2151 -0.1291 -0.4611
12551TIP3   OH259067   6.015   1.464  17.095  0.3269  0.1040 -0.5230
12551TIP3    H159068   5.993   1.531  17.029  1.6029  0.0982 -0.9807
12551TIP3    H259069   5.939   1.406  17.096 -0.5328  1.1870 -0.5838
12552TIP3   OH259070   0.030   3.711   1.163  0.0748 -0.5240  0.2180
12552TIP3    H159071  -0.017   3.712   1.247 -1.0923 -0.0349 -0.4042
12552TIP3    H259072   0.117   3.679   1.184 -0.1382 -0.2309  1.6508
12553TIP3   OH259073   0.515   2.377   4.941  0.2033  0.1700 -0.0643
12553TIP3    H159074   0.477   2.405   5.025  1.8769 -0.0875  0.8180
12553TIP3    H259075   0.479   2.289   4.927 -1.4464  0.8814 -0.5226
12554TIP3   OH259076   2.112   6.099  11.797 -0.1866 -0.1089 -0.2250
12554TIP3    H159077   2.062   6.156  11.739  1.1875  0.2893 -1.0573
12554TIP3    H259078   2.133   6.022  11.744 -0.4992 -0.5865  0.3322
12555TIP3   OH259079   5.085   4.159   0.069 -0.0956  0.4756  0.6378
12555TIP3    H159080   5.150   4.100   0.031  1.5068  0.2442  3.3943
12555TIP3    H259081   5.000   4.121   0.046  0.8569 -2.4607  1.5126
12556TIP3   OH259082   1.378   5.387   6.229  0.1691 -0.3083  0.4768
12556TIP3    H159083   1.367   5.295   6.250  0.3914  0.1619  2.8837
12556TIP3    H259084   1.446   5.418   6.289  0.4323  1.3213 -0.5952
12557TIP3   OH259085   4.975   2.837  16.374  0.3257 -0.1474 -0.2676
12557TIP3    H159086   5.021   2.920  16.380  1.5491 -0.8741  1.1300
12557TIP3    H259087   5.044   2.773  16.355 -0.5627 -0.8817 -1.1334
12558TIP3   OH259088   1.710   3.421   3.866  0.3303  0.0969  0.1128
12558TIP3    H159089   1.693   3.436   3.959 -1.4290 -0.5960 -0.0672
12558TIP3    H259090   1.648   3.477   3.821  1.5883  0.8933 -0.6844
12559TIP3   OH259091   4.054   5.634  10.786  0.4977  0.1413 -0.0495
12559TIP3    H159092   4.062   5.542  10.760  0.6149  0.3252 -0.6861
12559TIP3    H259093   4.108   5.642  10.865  0.2871 -0.3906  0.1530
12560TIP3   OH259094   3.664   3.819  10.471 -0.2620  0.7615 -0.0971
12560TIP3    H159095   3.586   3.826  10.415 -1.1277  2.2087  1.2129
12560TIP3    H259096   3.632   3.776  10.550  0.7227 -0.3558 -0.2949
12561TIP3   OH259097   0.875   2.581   0.956  0.8774 -0.0206 -0.1203
12561TIP3    H159098   0.845   2.670   0.938 -2.9764 -0.6927  1.9286
12561TIP3    H259099   0.914   2.585   1.043  0.9665 -0.3171 -0.1434
12562TIP3   OH259100   6.423   5.312   4.116 -0.2557 -0.0580  0.2252
12562TIP3    H159101   6.421   5.406   4.097  0.9755 -0.2173 -0.8267
12562TIP3    H259102   6.343   5.297   4.167  0.6271  1.9238  2.3736
12563TIP3   OH259103   2.036   5.427  14.827  0.0154  0.0993  0.7182
12563TIP3    H159104   2.123   5.408  14.863  0.5843  2.9949  1.1393
12563TIP3    H259105   2.054   5.468  14.742 -1.0378 -0.7686  0.0598
12564TIP3   OH259106   4.550   3.746   2.596  0.0863 -0.4811  0.6920
12564TIP3    H159107   4.515   3.681   2.535  0.7904 -0.5937  0.4054
12564TIP3    H259108   4.554   3.827   2.546  1.0910 -0.6749  0.4419
12565TIP3   OH259109   5.107   4.554   4.191 -0.3352 -0.2616  0.5146
12565TIP3    H159110   5.082   4.531   4.102 -1.0349 -0.6675  0.8043
12565TIP3    H259111   5.078   4.644   4.202 -2.1282 -0.8393  0.9743
12566TIP3   OH259112   0.214   1.615   3.767  0.2262  0.1925 -0.0416
12566TIP3    H159113   0.292   1.580   3.723  0.1455 -2.2226  1.5434
12566TIP3    H259114   0.143   1.597   3.706  0.4839 -0.6185 -0.1200
12567TIP3   OH259115   6.684   4.323   4.286  0.2230  0.0786 -0.7052
12567TIP3    H159116   6.736   4.377   4.226  1.5541 -0.7064 -0.2954
12567TIP3    H259117   6.745   4.258   4.319 -0.9832 -0.7467 -0.0154
12568TIP3   OH259118   4.426   1.322  12.450  0.1160 -0.4322 -0.2219
12568TIP3    H159119   4.368   1.312  12.526 -0.8137  1.6099 -0.5815
12568TIP3    H259120   4.369   1.307  12.375  0.5689 -0.5421 -0.5475
12569TIP3   OH259121   4.974   0.622   1.177  0.0942  0.7621 -0.0688
12569TIP3    H159122   5.036   0.621   1.250  0.3478  0.3185 -0.2894
12569TIP3    H259123   4.958   0.530   1.157 -1.1821  0.8580  0.4349
12570TIP3   OH259124   1.025   2.379   3.756  0.2051 -0.0507 -0.0313
12570TIP3    H159125   1.036   2.455   3.812  0.6755 -0.2231  0.1173
12570TIP3    H259126   1.108   2.331   3.765  1.2097  1.0390 -2.5709
12571TIP3   OH259127   3.161   1.990   1.068 -0.0805 -0.0662  0.6458
12571TIP3    H159128   3.105   2.002   1.144 -2.3339 -0.3216 -0.8786
12571TIP3    H259129   3.137   2.061   1.009  1.1938 -0.2164 -0.0794
12572TIP3   OH259130   2.582   3.658   2.225 -0.4862 -0.4779  0.2098
12572TIP3    H159131   2.631   3.676   2.306  2.0954  0.3172 -1.4111
12572TIP3    H259132   2.543   3.572   2.240 -0.0970 -0.3494  2.2980
12573TIP3   OH259133   0.667   5.037   5.784  0.4249 -0.3519  0.0309
12573TIP3    H159134   0.743   5.035   5.842  1.5311  1.9329 -1.2216
12573TIP3    H259135   0.609   5.102   5.823  1.0760  1.0319 -1.2368
12574TIP3   OH259136   4.363   3.068   4.225  0.2113  0.4237 -0.4732
12574TIP3    H159137   4.309   2.989   4.226  1.2355 -0.3093  1.0544
12574TIP3    H259138   4.447   3.039   4.188  0.2641  1.0461 -0.8534
12575TIP3   OH259139   3.075   4.899  13.726 -0.0973 -0.2526 -0.1498
12575TIP3    H159140   3.105   4.878  13.815 -1.6415  2.2492  1.0915
12575TIP3    H259141   3.154   4.894  13.673  1.5823  1.2221  2.0082
12576TIP3   OH259142   3.914   1.733  12.624  0.6950 -0.5775  0.1559
12576TIP3    H159143   3.898   1.783  12.543  2.0393 -1.8150 -0.9295
12576TIP3    H259144   4.009   1.737  12.635  1.1144 -4.2620 -0.9629
12577TIP3   OH259145   2.769   3.770   3.266 -0.2758  0.6827  0.0445
12577TIP3    H159146   2.731   3.765   3.178 -0.0890 -1.2134  0.0203
12577TIP3    H259147   2.837   3.703   3.266 -1.5887 -0.7727  2.2246
12578TIP3   OH259148   6.180   1.367   0.840 -0.0377 -0.3416 -0.5546
12578TIP3    H159149   6.104   1.423   0.854 -1.6823 -2.2420 -1.3834
12578TIP3    H259150   6.180   1.306   0.913 -0.7942 -1.8758 -1.7759
12579TIP3   OH259151   2.886   4.972  13.904 -0.4415 -0.5094  0.3132
12579TIP3    H159152   2.944   4.971  13.828 -0.1728  0.2864  0.4905
12579TIP3    H259153   2.891   5.062  13.936  0.1054 -1.0322  1.7743
12580TIP3   OH259154   4.781   0.394  16.570 -0.3602  0.2347 -0.1460
12580TIP3    H159155   4.693   0.382  16.534 -0.1731  0.1828 -0.5918
12580TIP3    H259156   4.813   0.304  16.585 -1.1882  0.2455  2.0360
12581TIP3   OH259157   2.610   3.551   1.904 -0.2692  0.1914 -0.0993
12581TIP3    H159158   2.650   3.620   1.850  0.8560 -0.5884 -0.2829
12581TIP3    H259159   2.680   3.523   1.963 -1.2611  0.4951  1.2751
12582TIP3   OH259160   5.410   4.670   4.530 -0.0033  0.4714  0.0321
12582TIP3    H159161   5.473   4.600   4.548  0.3010  1.1522  1.8153
12582TIP3    H259162   5.460   4.735   4.481 -0.4729 -0.7976 -2.2900
12583TIP3   OH259163   1.888   2.799  16.906 -0.2671 -0.2039  0.2153
12583TIP3    H159164   1.869   2.800  16.812 -1.0532  0.0597  0.3666
12583TIP3    H259165   1.853   2.882  16.938  0.3004 -0.1441  0.6864
12584TIP3   OH259166   4.598   3.576  15.087 -0.9162 -0.2495 -0.1780
12584TIP3    H159167   4.516   3.572  15.137 -1.4992 -1.2042 -1.1799
12584TIP3    H259168   4.572   3.602  14.999 -0.2115 -1.0890 -0.6508
12585TIP3   OH259169   6.501   2.468  15.939  0.1933  0.8002 -0.0779
12585TIP3    H159170   6.590   2.451  15.906  0.4229  2.9690 -0.7835
12585TIP3    H259171   6.495   2.564  15.941 -0.8674  0.7853  3.5285
12586TIP3   OH259172   3.286   5.764  14.924  0.1168  0.1504  0.0999
12586TIP3    H159173   3.290   5.796  15.015  0.0963  1.4386 -0.3304
12586TIP3    H259174   3.192   5.757  14.906  0.1201 -0.0296  0.1535
12587TIP3   OH259175   5.394   3.044   4.662 -0.2229  0.0960  0.5428
12587TIP3    H159176   5.457   3.102   4.703 -0.3977  0.6280  0.0677
12587TIP3    H259177   5.442   2.962   4.648  0.1908  0.3110  0.6954
12588TIP3   OH259178   3.309   2.206  11.698 -0.0845 -0.1660 -0.5944
12588TIP3    H159179   3.352   2.240  11.619 -0.1919 -0.7915 -0.9315
12588TIP3    H259180   3.261   2.129  11.668 -0.4095 -0.2129  0.0214
12589TIP3   OH259181   2.876   1.141   3.750  0.0636 -0.3787 -0.0024
12589TIP3    H159182   2.891   1.191   3.670  1.0988  0.1604  0.5082
12589TIP3    H259183   2.853   1.053   3.719 -2.8062  0.5852 -0.9443
12590TIP3   OH259184   6.323   3.456   2.668  0.0213 -0.2994  0.2401
12590TIP3    H159185   6.288   3.510   2.739 -0.7459 -0.8091  0.2619
12590TIP3    H259186   6.379   3.392   2.713  2.6409  1.6820  0.0630
12591TIP3   OH259187   1.422   5.398   3.745  0.1517 -0.0279 -0.6193
12591TIP3    H159188   1.388   5.485   3.768 -1.5606 -0.4442 -1.3818
12591TIP3    H259189   1.473   5.372   3.822 -0.4929  1.0653  0.2234
12592TIP3   OH259190   6.614   4.601  10.993  0.4510  0.2815 -0.0015
12592TIP3    H159191   6.680   4.537  11.019  0.4553 -0.0158 -0.7186
12592TIP3    H259192   6.535   4.549  10.977  0.3406  0.5066 -0.1936
12593TIP3   OH259193   1.094   0.727  16.419  0.2464  0.6486 -0.5105
12593TIP3    H159194   1.062   0.667  16.352  1.7230  0.1077 -0.7587
12593TIP3    H259195   1.029   0.721  16.489  0.6063 -1.6503 -0.2968
12594TIP3   OH259196   2.697   5.011  15.289 -0.2397 -0.0377 -0.4949
12594TIP3    H159197   2.720   5.014  15.196 -1.8020  1.0679 -0.8972
12594TIP3    H259198   2.609   4.974  15.291 -1.0239  1.7376  0.3192
12595TIP3   OH259199   2.482   4.237   2.607  1.0734  0.1613  0.5406
12595TIP3    H159200   2.487   4.302   2.677  0.3056  0.2848  0.4832
12595TIP3    H259201   2.498   4.153   2.652  2.4891  0.4010  0.5453
12596TIP3   OH259202   2.442   0.237  12.932  0.2219 -0.3025  0.0586
12596TIP3    H159203   2.370   0.203  12.879  0.0532  0.1603 -0.0087
12596TIP3    H259204   2.490   0.294  12.872 -0.6580  1.1871  0.7169
12597TIP3   OH259205   2.641   3.124  13.154 -0.1202  0.8117  0.1674
12597TIP3    H159206   2.624   3.186  13.083 -0.4617 -0.7362 -1.1813
12597TIP3    H259207   2.629   3.174  13.234 -0.6744  2.3877 -0.8639
12598TIP3   OH259208   1.081   5.884   5.719 -0.4128 -0.3591  0.3389
12598TIP3    H159209   1.148   5.825   5.754  0.9633  0.6977 -0.4290
12598TIP3    H259210   1.070   5.856   5.627  0.1365  0.4635  0.0158
12599TIP3   OH259211   3.251   1.686  15.953  0.3250 -0.2567  0.8640
12599TIP3    H159212   3.309   1.701  15.879  0.0746 -0.2149  0.6746
12599TIP3    H259213   3.192   1.762  15.954 -1.4572 -1.5066 -0.5754
12600TIP3   OH259214   0.082   2.654  15.833 -0.3911  0.1275 -0.3717
12600TIP3    H159215   0.178   2.647  15.837 -0.4212 -0.2384 -0.1827
12600TIP3    H259216   0.052   2.616  15.916 -0.6338  1.9783  0.4373
12601TIP3   OH259217   4.397   4.750   2.724  0.7843  0.1076 -0.0257
12601TIP3    H159218   4.323   4.772   2.780  1.3791  2.3375 -0.0351
12601TIP3    H259219   4.364   4.681   2.667 -1.1567  0.7634  0.2434
12602TIP3   OH259220   6.046   6.235   0.270  0.5504 -0.7573  0.1421
12602TIP3    H159221   5.953   6.214   0.265  0.2903  0.1565  0.9242
12602TIP3    H259222   6.075   6.238   0.179 -0.6113  0.7886 -0.2121
12603TIP3   OH259223   0.747   5.183   1.137 -0.3327 -0.1160 -0.2107
12603TIP3    H159224   0.687   5.219   1.071  0.8477  1.5354 -0.4334
12603TIP3    H259225   0.696   5.186   1.219 -1.2308 -0.6312 -0.7286
12604TIP3   OH259226   6.501   3.637  11.510  0.5041  0.1854 -0.5255
12604TIP3    H159227   6.410   3.638  11.483  0.5919 -2.0129 -1.1222
12604TIP3    H259228   6.545   3.699  11.451 -0.1809 -0.6962 -2.0131
12605TIP3   OH259229   6.587   2.682   3.451  0.1107 -0.0334  0.0157
12605TIP3    H159230   6.508   2.636   3.479 -0.6539  0.1868 -1.6363
12605TIP3    H259231   6.556   2.747   3.389  1.5774  0.1653 -0.5569
12606TIP3   OH259232   1.677   0.733   3.827  0.0838  0.1468  0.0587
12606TIP3    H159233   1.693   0.705   3.737  0.2149 -1.4330  0.5380
12606TIP3    H259234   1.602   0.680   3.856  0.8429 -0.3227  1.2757
12607TIP3   OH259235   2.792   6.107   3.565 -0.4843 -0.5775 -0.2662
12607TIP3    H159236   2.838   6.144   3.490  0.0342 -1.8624 -0.6089
12607TIP3    H259237   2.714   6.162   3.575  0.3877  0.7705 -0.5517
12608TIP3   OH259238   0.491   1.321  16.891  0.1685 -0.1099 -0.4968
12608TIP3    H159239   0.582   1.335  16.865 -0.2388  0.4421 -1.7037
12608TIP3    H259240   0.474   1.388  16.957  0.7063 -0.3814 -0.0742
12609TIP3   OH259241   5.470   6.078  14.364 -0.0309  0.2821 -0.1102
12609TIP3    H159242   5.485   6.064  14.270  0.5177 -0.7420  0.1172
12609TIP3    H259243   5.451   6.171  14.371 -0.9711  0.2143 -1.3515
12610TIP3   OH259244   5.103   4.038   3.191 -0.2485 -0.0262 -0.2951
12610TIP3    H159245   5.168   4.108   3.196 -1.8702  1.7173 -1.9540
12610TIP3    H259246   5.091   4.009   3.281  0.8707  1.4605  0.3683
12611TIP3   OH259247   3.848   3.384  10.781 -0.1278 -0.0174  0.4371
12611TIP3    H159248   3.845   3.296  10.745  0.8832  0.4881 -1.0200
12611TIP3    H259249   3.935   3.392  10.820  0.0522  0.5235 -0.0444
12612TIP3   OH259250   6.424   3.204   3.237 -0.1813 -0.5818 -0.1017
12612TIP3    H159251   6.357   3.173   3.296  0.2125 -0.3845  0.4548
12612TIP3    H259252   6.449   3.127   3.185 -0.2710 -0.8377  0.2362
12613TIP3   OH259253   3.783   6.307   5.402  0.2494  0.2264 -0.5273
12613TIP3    H159254   3.820   6.300   5.490 -1.2065 -0.0392  0.0854
12613TIP3    H259255   3.697   6.347   5.415  0.8409  2.1591 -2.0606
12614TIP3   OH259256   2.794   1.569   4.287  0.2843 -0.0898  0.5385
12614TIP3    H159257   2.733   1.633   4.251  0.6853  0.4324  0.7706
12614TIP3    H259258   2.846   1.540   4.212 -0.1057 -0.3776  0.3788
12615TIP3   OH259259   2.142   5.892  11.608  0.4598  0.1497 -0.4861
12615TIP3    H159260   2.087   5.924  11.536  0.6946  1.0193 -0.3017
12615TIP3    H259261   2.193   5.821  11.570  0.4888  0.5174 -1.1494
12616TIP3   OH259262   1.913   0.655   6.371  0.1823  0.4511  0.4841
12616TIP3    H159263   1.947   0.690   6.288 -1.0753 -0.3627 -0.4156
12616TIP3    H259264   1.820   0.681   6.371  0.0106 -0.1449  1.3086
12617TIP3   OH259265   1.633   5.761   0.281 -0.4035  0.0455  0.5347
12617TIP3    H159266   1.676   5.826   0.337 -0.6394  0.6410  0.0314
12617TIP3    H259267   1.699   5.741   0.214 -1.4225  2.2144 -1.2468
12618TIP3   OH259268   1.225   0.967  13.603  0.3389  0.2355 -0.3855
12618TIP3    H159269   1.283   0.907  13.558 -1.2791 -0.8331 -1.1149
12618TIP3    H259270   1.188   1.022  13.534  1.4199  1.7931  0.2130
12619TIP3   OH259271   4.577   4.793  15.765  0.2670  0.6842 -0.0382
12619TIP3    H159272   4.672   4.794  15.759  0.2977  1.3982  0.4054
12619TIP3    H259273   4.548   4.870  15.715 -0.2548 -0.8964 -2.3381
12620TIP3   OH259274   5.521   1.717  16.236 -0.2427 -0.5036 -0.4510
12620TIP3    H159275   5.569   1.739  16.156  0.8461 -0.2228  0.2535
12620TIP3    H259276   5.481   1.799  16.264  0.7115 -0.2186  0.1424
12621TIP3   OH259277   4.607   5.880   1.820 -0.4060 -0.5131  0.2379
12621TIP3    H159278   4.678   5.863   1.881  0.0344 -0.8491 -0.3527
12621TIP3    H259279   4.527   5.858   1.868 -0.2579  1.5884  1.5161
12622TIP3   OH259280   6.514   2.808   2.907  0.5375  0.0265 -0.7908
12622TIP3    H159281   6.421   2.794   2.893  0.3895 -2.5846  1.8907
12622TIP3    H259282   6.557   2.740   2.855  1.1460  1.8848 -2.8999
12623TIP3   OH259283   3.478   0.371   3.933 -0.4286  0.3522  0.1949
12623TIP3    H159284   3.430   0.422   3.869 -0.6519  0.0122  0.0906
12623TIP3    H259285   3.439   0.395   4.017 -0.0775  0.8627  0.2177
12624TIP3   OH259286   0.650   5.897  16.394  0.1166  0.1019 -0.1029
12624TIP3    H159287   0.597   5.926  16.468  0.1097 -0.7533  0.2326
12624TIP3    H259288   0.660   5.975  16.340  0.2759  0.7899  0.8945
12625TIP3   OH259289   0.520   0.516   0.565  0.5939 -0.2780  0.5470
12625TIP3    H159290   0.484   0.436   0.529 -0.5807  0.9313 -1.1324
12625TIP3    H259291   0.534   0.572   0.489 -1.3096  2.1610  1.8567
12626TIP3   OH259292   1.604   5.274   3.374 -0.1479 -0.3416  0.2176
12626TIP3    H159293   1.517   5.304   3.350 -0.4907 -0.7317  0.9569
12626TIP3    H259294   1.661   5.349   3.359 -0.6161 -0.0681 -0.2111
12627TIP3   OH259295   3.588   0.838   1.007  0.4722 -0.0705 -0.0473
12627TIP3    H159296   3.577   0.875   0.920  2.9888 -0.8726 -0.8033
12627TIP3    H259297   3.650   0.765   0.995 -0.4345 -1.3240  2.1473
12628TIP3   OH259298   0.427   5.790   2.999 -0.1545 -0.1735 -0.4274
12628TIP3    H159299   0.493   5.777   3.068  0.6613 -0.3663 -1.2347
12628TIP3    H259300   0.362   5.848   3.039 -0.0300 -0.7943  0.7243
12629TIP3   OH259301   2.315   0.594  15.944  0.2128 -0.1754  0.3604
12629TIP3    H159302   2.265   0.591  16.025 -0.2167  1.0065  0.1510
12629TIP3    H259303   2.284   0.672  15.898  0.8157 -0.5320 -0.7074
12630TIP3   OH259304   6.324   5.744  11.980  0.0328 -0.3740  0.0129
12630TIP3    H159305   6.352   5.762  11.890  2.4508  0.8870  0.9043
12630TIP3    H259306   6.235   5.778  11.984 -0.2093 -0.6380 -1.9391
12631TIP3   OH259307   2.153   3.103  16.661  0.5490 -0.1333 -0.2320
12631TIP3    H159308   2.120   3.022  16.623  1.2255 -0.9599  0.8984
12631TIP3    H259309   2.243   3.083  16.688  1.5346  1.6449 -1.9452
12632TIP3   OH259310   0.407   0.983   1.935  0.1980  0.1760  0.0180
12632TIP3    H159311   0.472   0.964   2.003 -1.6334 -2.6560  1.1675
12632TIP3    H259312   0.424   1.074   1.910  2.9535  0.3400  2.0033
12633TIP3   OH259313   5.129   5.768  13.455  0.3735  0.1549  0.6257
12633TIP3    H159314   5.143   5.684  13.497  0.2993 -1.7528 -2.8116
12633TIP3    H259315   5.217   5.801  13.438  0.4449 -0.3311  0.0210
12634TIP3   OH259316   0.124   1.724   0.356 -0.1553  0.1615 -0.6357
12634TIP3    H159317   0.122   1.642   0.406 -1.0420  0.3504 -0.3587
12634TIP3    H259318   0.090   1.700   0.269 -1.1891  0.3965 -0.3055
12635TIP3   OH259319   0.011   2.428   1.154  0.4028  0.1393 -0.0241
12635TIP3    H159320   0.002   2.332   1.151 -1.7383  0.3219 -0.7089
12635TIP3    H259321  -0.078   2.460   1.164  1.0393  2.1052 -0.3113
12636TIP3   OH259322   2.380   0.357   5.273  0.3137  0.2776 -0.1357
12636TIP3    H159323   2.415   0.375   5.360  0.3778  1.7165 -0.4379
12636TIP3    H259324   2.339   0.270   5.281  1.3087 -0.1050  1.0075
12637TIP3   OH259325   4.486   2.214  15.057 -0.3412  0.0777 -0.0710
12637TIP3    H159326   4.567   2.175  15.089  1.5130  3.4640 -0.2044
12637TIP3    H259327   4.417   2.164  15.100  1.9043 -0.5153  3.2123
12638TIP3   OH259328   6.641   4.019   4.606  0.1624  0.1984 -0.3747
12638TIP3    H159329   6.695   4.060   4.538 -2.3849  2.3122 -1.3300
12638TIP3    H259330   6.573   3.972   4.558 -1.1133  0.8946  0.6608
12639TIP3   OH259331   5.234   4.641  10.808 -0.5563 -0.3047 -0.2927
12639TIP3    H159332   5.245   4.736  10.808 -1.1862 -0.1710  1.9589
12639TIP3    H259333   5.298   4.610  10.744  0.2402  1.5704 -0.4841
12640TIP3   OH259334   5.666   1.338   5.185  0.3511  0.4513 -0.1456
12640TIP3    H159335   5.596   1.274   5.182 -0.6660  1.5169  0.0887
12640TIP3    H259336   5.714   1.318   5.265 -0.6476  0.6822  0.5220
12641TIP3   OH259337   3.609   1.953  11.376 -0.1620  0.4532  0.2780
12641TIP3    H159338   3.628   1.928  11.286 -1.8473  1.1901 -0.3303
12641TIP3    H259339   3.599   2.048  11.373  3.6910  1.0975  2.0506
12642TIP3   OH259340   4.296   4.555   0.428 -0.6759  0.4678 -0.3218
12642TIP3    H159341   4.348   4.621   0.381  2.9160 -0.1948  2.2875
12642TIP3    H259342   4.289   4.590   0.517 -0.7745 -1.6078  0.5277
12643TIP3   OH259343   0.912   4.709   0.057  0.0785 -0.1131 -0.2473
12643TIP3    H159344   0.872   4.651  -0.009 -0.4752 -0.3784  0.3148
12643TIP3    H259345   1.006   4.694   0.047  0.0217  0.0757 -1.1817
12644TIP3   OH259346   3.107   2.048   4.852 -0.0149 -0.3226 -0.1801
12644TIP3    H159347   3.184   2.076   4.902 -0.1319 -0.0581 -0.1480
12644TIP3    H259348   3.071   2.129   4.815 -0.5013 -0.3935  0.1256
12645TIP3   OH259349   4.070   3.839  14.645 -0.1572 -0.3033 -0.0199
12645TIP3    H159350   3.978   3.848  14.668 -0.6498 -2.4311 -0.9241
12645TIP3    H259351   4.108   3.790  14.718 -0.0499 -0.5626 -0.2467
12646TIP3   OH259352   1.238   2.269  11.775 -0.1020  0.0574 -0.4827
12646TIP3    H159353   1.259   2.358  11.803  0.4009 -0.3195  0.3910
12646TIP3    H259354   1.167   2.242  11.834 -0.6735  0.0893 -1.1454
12647TIP3   OH259355   5.013   4.039   4.973 -0.2775  0.6323 -0.9030
12647TIP3    H159356   5.077   3.991   4.919 -1.2035 -2.5208  0.5619
12647TIP3    H259357   5.046   4.031   5.062 -0.7839  2.3467 -0.5294
12648TIP3   OH259358   6.223   1.758   2.503 -0.4119  0.0359 -0.0119
12648TIP3    H159359   6.204   1.805   2.422 -2.8120 -1.3258 -0.3540
12648TIP3    H259360   6.212   1.823   2.572 -0.4883  0.7110 -0.6524
12649TIP3   OH259361   5.148   1.130   1.895 -0.2168  0.6608  0.3646
12649TIP3    H159362   5.056   1.140   1.871 -0.6826 -1.1055  1.2527
12649TIP3    H259363   5.147   1.109   1.988  0.7554 -2.7277 -0.2362
12650TIP3   OH259364   1.810   4.159  12.805  0.0530 -0.0534 -0.0809
12650TIP3    H159365   1.777   4.194  12.888  0.8983 -0.4487  0.4265
12650TIP3    H259366   1.900   4.132  12.823 -0.3334 -1.8644 -0.6310
12651TIP3   OH259367   1.286   4.649   2.729 -0.0465 -0.0437 -0.1877
12651TIP3    H159368   1.344   4.691   2.666  0.9326 -0.8207  0.1782
12651TIP3    H259369   1.298   4.555   2.715 -1.0234 -0.2251  0.0811
12652TIP3   OH259370   2.324   0.249   4.775  0.0748  0.0435 -0.6339
12652TIP3    H159371   2.301   0.209   4.859 -1.7907  1.0629 -0.6060
12652TIP3    H259372   2.382   0.185   4.734  2.2637  0.1284  1.9795
12653TIP3   OH259373   6.085   0.398   0.394 -0.3107  0.0363 -0.2710
12653TIP3    H159374   6.025   0.384   0.321 -0.0870  1.1587 -0.6951
12653TIP3    H259375   6.159   0.340   0.376 -0.0228  0.6799 -1.2280
12654TIP3   OH259376   0.170   0.214  11.896  0.6539  0.3954  0.1145
12654TIP3    H159377   0.251   0.224  11.946 -0.0129 -0.6332  1.4545
12654TIP3    H259378   0.110   0.278  11.935 -0.2874 -1.2965  1.6295
12655TIP3   OH259379   5.756   6.264  14.874 -0.2160  0.2208  0.1910
12655TIP3    H159380   5.721   6.340  14.828 -0.3186  1.8546  2.7644
12655TIP3    H259381   5.708   6.189  14.838  0.8258  1.0951 -3.3708
12656TIP3   OH259382   2.801   3.404   5.375 -0.0538 -0.2145  0.3428
12656TIP3    H159383   2.873   3.445   5.422 -0.5137  1.9308 -0.6570
12656TIP3    H259384   2.723   3.422   5.428 -0.4447  1.4458 -0.7069
12657TIP3   OH259385   4.733   0.009  14.223 -0.1337  0.3292 -0.4684
12657TIP3    H159386   4.728   0.013  14.127 -0.2094 -1.0791 -0.5498
12657TIP3    H259387   4.675   0.079  14.253 -1.0370  0.0333 -1.4546
12658TIP3   OH259388   3.381   1.837  16.689 -0.1527  0.2887 -0.5425
12658TIP3    H159389   3.373   1.771  16.620  2.5904 -0.3751 -0.3316
12658TIP3    H259390   3.385   1.920  16.642 -2.1367  0.2299 -0.8953
12659TIP3   OH259391   1.901   6.550  12.153  0.1454  0.1667 -0.0747
12659TIP3    H159392   1.886   6.528  12.061  1.5346  1.4086 -0.6401
12659TIP3    H259393   1.992   6.578  12.157  0.2944 -0.4369  1.8156
12660TIP3   OH259394   2.514   1.461  11.240 -0.0465 -0.2798 -0.2633
12660TIP3    H159395   2.480   1.549  11.229  2.0649  0.8859  1.7312
12660TIP3    H259396   2.567   1.445  11.162  1.0120  0.9991  0.1525
12661TIP3   OH259397   5.904   5.533  13.455  0.6001 -0.9871 -0.1853
12661TIP3    H159398   5.855   5.592  13.397 -0.9800 -1.6320  0.4367
12661TIP3    H259399   5.857   5.450  13.450  2.8552 -2.2839 -1.1358
12662TIP3   OH259400   6.103   3.477  12.336  0.1642  0.5454  0.3685
12662TIP3    H159401   6.016   3.503  12.308 -0.1714 -2.2157 -1.5724
12662TIP3    H259402   6.092   3.451  12.428 -1.6485 -1.7261 -0.3909
12663TIP3   OH259403   0.193   5.777  14.768 -0.4040  0.3137  0.3285
12663TIP3    H159404   0.108   5.749  14.804 -1.1202  0.0102 -1.4917
12663TIP3    H259405   0.243   5.696  14.759  0.0274  0.4683  1.2023
12664TIP3   OH259406   3.434   1.953  14.912  0.5105 -0.1742  0.1435
12664TIP3    H159407   3.504   2.009  14.876 -0.0638  0.6513  0.2882
12664TIP3    H259408   3.441   1.965  15.007 -0.5804  0.8634  0.1142
12665TIP3   OH259409   4.918   5.339   5.329  0.5748  0.6563 -0.6405
12665TIP3    H159410   4.894   5.267   5.271  0.0395  0.3537 -0.0355
12665TIP3    H259411   4.855   5.408   5.309  0.5513  0.6480 -0.5923
12666TIP3   OH259412   5.056   3.711   2.615 -0.0158 -0.1485  0.0386
12666TIP3    H159413   5.082   3.636   2.562 -2.3887 -1.5598  0.7344
12666TIP3    H259414   5.095   3.694   2.701  0.5307  0.1172 -0.1497
12667TIP3   OH259415   1.353   0.777  13.451 -0.3445  0.2939  0.0701
12667TIP3    H159416   1.350   0.709  13.518 -2.6671  0.5148  0.2798
12667TIP3    H259417   1.269   0.770  13.405  0.4589  1.2918 -1.6721
12668TIP3   OH259418   0.491   1.542   1.963  0.0064 -0.0431  0.3889
12668TIP3    H159419   0.397   1.539   1.981 -0.6215 -3.4363 -2.3833
12668TIP3    H259420   0.502   1.616   1.904 -0.9418  0.3400  0.6763
12669TIP3   OH259421   6.619   2.809  11.390 -0.4662  0.1622  0.2267
12669TIP3    H159422   6.620   2.751  11.467  0.5092  0.0608  0.1610
12669TIP3    H259423   6.701   2.858  11.397  1.4799 -2.3181 -2.5570
12670TIP3   OH259424   0.033   3.199  17.091  0.5433  0.7133  0.6826
12670TIP3    H159425   0.039   3.218  17.184  0.2448  0.5459  0.7332
12670TIP3    H259426   0.081   3.272  17.049  0.7426  0.7465  0.9658
12671TIP3   OH259427   5.954   1.698  15.203 -0.0999 -0.6626 -0.1289
12671TIP3    H159428   5.952   1.667  15.113 -0.7212  0.5629 -0.5501
12671TIP3    H259429   6.018   1.640  15.247 -0.4642 -1.8480 -1.1110
12672TIP3   OH259430   3.069   0.560   4.652 -0.0385  0.2089 -0.3137
12672TIP3    H159431   2.974   0.574   4.648 -0.0748  1.4181  2.1709
12672TIP3    H259432   3.104   0.645   4.678  1.8998  0.0707 -2.2142
12673TIP3   OH259433   3.485   6.510  13.382 -0.3016  0.2323 -0.0242
12673TIP3    H159434   3.455   6.592  13.344 -0.3842 -0.6766 -2.0165
12673TIP3    H259435   3.449   6.442  13.325  1.9426 -1.0859  0.0348
12674TIP3   OH259436   3.069   4.696   1.348 -0.2867  0.2057  0.7064
12674TIP3    H159437   2.978   4.665   1.353  0.0118 -0.5906  1.5473
12674TIP3    H259438   3.088   4.727   1.437  0.4274 -0.1224  0.6734
12675TIP3   OH259439   1.143   6.506  15.149 -0.0188 -0.3496 -0.5285
12675TIP3    H159440   1.069   6.516  15.209 -0.0101 -1.3916 -0.3113
12675TIP3    H259441   1.103   6.503  15.062 -0.1550 -0.0677 -0.4750
12676TIP3   OH259442   4.324   2.676   2.977  0.4299  0.6541  0.1658
12676TIP3    H159443   4.372   2.609   3.025  0.9228  0.7777 -0.1576
12676TIP3    H259444   4.319   2.750   3.038 -0.3029  0.2563  0.6044
12677TIP3   OH259445   6.596   6.222   2.303 -0.3066 -0.2581 -0.3322
12677TIP3    H159446   6.669   6.190   2.250  0.7288 -0.9691  1.4344
12677TIP3    H259447   6.518   6.187   2.261  0.5483 -1.7121 -0.7786
12678TIP3   OH259448   5.845   5.150   1.481  0.0820 -0.6274  0.1902
12678TIP3    H159449   5.846   5.077   1.543  1.2245  0.7135  1.8567
12678TIP3    H259450   5.760   5.143   1.437  0.4456 -3.3261 -0.2432
12679TIP3   OH259451   5.355   5.681  14.385 -0.2605  0.4865  0.3978
12679TIP3    H159452   5.294   5.673  14.312  0.8674 -0.6826 -0.4800
12679TIP3    H259453   5.300   5.695  14.462 -1.4976  1.4626 -0.6311
12680TIP3   OH259454   6.503   3.191   0.074  0.0763  0.0400  0.1603
12680TIP3    H159455   6.513   3.108   0.028  0.7826 -0.5158  1.2796
12680TIP3    H259456   6.592   3.215   0.100 -0.1104  1.1884 -0.2120
12681TIP3   OH259457   3.939   2.092   5.738 -0.9497 -0.2423  0.4382
12681TIP3    H159458   4.034   2.090   5.752 -0.6992  0.9826 -0.8723
12681TIP3    H259459   3.928   2.071   5.646 -1.8066  1.4694  0.1202
12682TIP3   OH259460   5.957   4.539  13.880 -0.8328 -0.4140  0.3095
12682TIP3    H159461   6.046   4.572  13.875 -0.7633 -0.4548  1.2154
12682TIP3    H259462   5.903   4.616  13.894 -0.8356 -0.5013  0.7845
12683TIP3   OH259463   2.050   3.071   0.513 -0.0243 -0.1276  0.0661
12683TIP3    H159464   2.011   3.057   0.599  0.8528 -0.1790  0.4701
12683TIP3    H259465   2.141   3.041   0.523  0.1146 -0.0288 -0.8425
12684TIP3   OH259466   4.961   6.737  13.056 -0.0697 -0.1208 -0.5837
12684TIP3    H159467   4.984   6.822  13.016 -0.9539  1.1423  1.4198
12684TIP3    H259468   5.043   6.689  13.058  0.8427  1.3595 -0.3168
12685TIP3   OH259469   1.545   4.162  14.565 -0.3814 -0.5545  0.0470
12685TIP3    H159470   1.449   4.162  14.564 -0.3804  0.0266  0.0522
12685TIP3    H259471   1.570   4.233  14.507  0.0477 -0.2279  0.6228
12686TIP3   OH259472   3.001   1.316  13.811 -0.0924  0.0934 -1.0173
12686TIP3    H159473   3.059   1.377  13.857 -1.0763 -0.4954  1.1539
12686TIP3    H259474   2.924   1.368  13.789 -2.1220 -0.6457  3.1558
12687TIP3   OH259475   4.030   4.039  17.066  0.0043  0.0455 -0.3174
12687TIP3    H159476   3.958   4.026  17.127  0.2799  3.2502  0.8750
12687TIP3    H259477   3.995   4.011  16.981 -1.3312 -1.8853  0.7889
12688TIP3   OH259478   4.294   0.327   3.532 -0.0063 -0.7500  0.1767
12688TIP3    H159479   4.244   0.301   3.610 -0.8009 -0.9632 -0.3925
12688TIP3    H259480   4.298   0.422   3.537 -0.4559 -0.7323  0.2396
12689TIP3   OH259481   1.894   0.429   3.276 -0.6962  0.1372  0.1470
12689TIP3    H159482   1.809   0.471   3.288 -0.6972  0.5276 -1.1065
12689TIP3    H259483   1.899   0.365   3.346 -3.0761 -1.5773 -1.0969
12690TIP3   OH259484   0.659   3.894  14.138 -0.8089  0.3509 -0.0361
12690TIP3    H159485   0.716   3.938  14.201  0.2922  1.1635 -1.5114
12690TIP3    H259486   0.654   3.804  14.169 -1.0458  0.9232  1.6748
12691TIP3   OH259487   4.193   5.468   2.526  0.3669 -0.2222 -0.0140
12691TIP3    H159488   4.126   5.532   2.502  1.0720  0.3231 -0.5689
12691TIP3    H259489   4.151   5.412   2.592  0.3168  1.9303  1.8713
12692TIP3   OH259490   3.421   4.750  11.893  0.0554  0.6834 -0.8027
12692TIP3    H159491   3.410   4.672  11.838  0.8593 -1.8727  2.3347
12692TIP3    H259492   3.510   4.741  11.929 -0.9759  1.1692  2.1691
12693TIP3   OH259493   6.536   1.264  15.389 -0.3855  0.2758  0.2622
12693TIP3    H159494   6.547   1.176  15.354 -2.8317 -0.0206  0.0073
12693TIP3    H259495   6.457   1.257  15.444 -0.6844  2.3141  0.1624
12694TIP3   OH259496   5.482   4.310  16.540 -0.1343 -0.7827 -0.0244
12694TIP3    H159497   5.545   4.350  16.479  0.7940 -1.2280  0.6249
12694TIP3    H259498   5.535   4.281  16.613 -1.4223  1.6296  2.0501
12695TIP3   OH259499   2.115   2.063   0.241 -0.4746 -0.1978  0.9747
12695TIP3    H159500   2.029   2.099   0.266 -1.4157 -1.0786 -0.7927
12695TIP3    H259501   2.159   2.046   0.324 -1.5576  1.3309  1.9019
12696TIP3   OH259502   2.444   4.635  13.888 -0.1794  0.3633 -0.7460
12696TIP3    H159503   2.527   4.606  13.925 -0.2021 -1.6261 -2.0677
12696TIP3    H259504   2.425   4.718  13.932  1.1599 -0.4448  1.5195
12697TIP3   OH259505   5.855   5.176  16.813 -0.1399 -0.3901 -0.1001
12697TIP3    H159506   5.924   5.114  16.793 -0.3833 -0.1043 -2.0116
12697TIP3    H259507   5.850   5.233  16.736 -1.2354  0.7745  0.7754
12698TIP3   OH259508   6.582   1.506  13.978 -0.3980 -0.3273 -0.3984
12698TIP3    H159509   6.602   1.592  14.015 -0.9062 -1.8742  4.2134
12698TIP3    H259510   6.490   1.512  13.951 -1.4605 -0.0848  2.8356
12699TIP3   OH259511   4.887   2.359   2.584 -0.1261  0.6386 -0.0389
12699TIP3    H159512   4.814   2.356   2.646  0.3374 -1.2980  0.4666
12699TIP3    H259513   4.868   2.435   2.529 -1.9670  0.7992  0.7444
12700TIP3   OH259514   4.555   3.634  12.371  0.2286  0.2850  0.4811
12700TIP3    H159515   4.567   3.552  12.419 -1.1390 -1.4482 -1.8783
12700TIP3    H259516   4.542   3.606  12.280 -0.6264  3.1327 -0.3669
12701TIP3   OH259517   3.449   1.277  14.942  0.0783 -0.0950 -0.6603
12701TIP3    H159518   3.373   1.222  14.923 -0.1326 -0.4556  1.0982
12701TIP3    H259519   3.481   1.303  14.856 -1.7822 -0.2676 -1.4603
12702TIP3   OH259520   4.080   5.425   1.684  0.3841 -0.0002  0.5286
12702TIP3    H159521   4.065   5.390   1.773  0.0749  0.5024  0.6778
12702TIP3    H259522   3.997   5.468   1.662  0.9639  1.1901  0.6038
12703TIP3   OH259523   0.731   5.889  12.162  0.2229  0.1456 -0.3657
12703TIP3    H159524   0.701   5.863  12.248  1.3590  2.3691  0.8019
12703TIP3    H259525   0.651   5.912  12.114 -0.4802 -1.9248 -0.2570
12704TIP3   OH259526   6.661   5.992   0.998 -0.5125 -0.1651 -0.2132
12704TIP3    H159527   6.715   6.004   0.920 -0.0858  0.7772  0.2190
12704TIP3    H259528   6.583   6.046   0.982 -1.3629 -1.5095 -0.8293
12705TIP3   OH259529   5.125   6.162  16.970  0.3187 -0.4497 -0.4244
12705TIP3    H159530   5.065   6.091  16.946 -0.5036  0.4638 -1.1587
12705TIP3    H259531   5.175   6.180  16.890  0.7319 -0.4040 -0.1573
12706TIP3   OH259532   2.539   1.147  15.333 -0.6260  0.1466  0.3700
12706TIP3    H159533   2.447   1.163  15.314 -0.7662 -1.0429 -0.0085
12706TIP3    H259534   2.557   1.199  15.412 -2.3934 -1.8364  2.2005
12707TIP3   OH259535   2.063   1.074   5.907  0.1169 -0.8477 -0.5061
12707TIP3    H159536   2.027   1.157   5.938  0.7279  0.4603 -3.0431
12707TIP3    H259537   1.990   1.013   5.913 -1.7700  0.9998 -2.6456
12708TIP3   OH259538   2.737   3.816  13.084  0.2502 -0.4431  0.4425
12708TIP3    H159539   2.761   3.815  12.992  0.0015  0.4126  0.3524
12708TIP3    H259540   2.807   3.868  13.126  0.4633 -0.9844  0.7679
12709TIP3   OH259541   5.425   1.280  15.170  0.0365 -0.4667 -0.2199
12709TIP3    H159542   5.458   1.203  15.217 -0.1729 -0.4784 -0.0905
12709TIP3    H259543   5.413   1.346  15.239 -0.8857 -0.6879 -0.1569
12710TIP3   OH259544   2.571   0.110  16.712 -0.0445  0.2560  0.2463
12710TIP3    H159545   2.481   0.100  16.741 -1.0809  2.7487 -1.7690
12710TIP3    H259546   2.597   0.022  16.685 -2.2964 -0.3105 -0.2828
12711TIP3   OH259547   1.283   0.936   5.357  0.2220  0.1463  0.2219
12711TIP3    H159548   1.278   0.849   5.318  2.4819  0.6598 -1.4580
12711TIP3    H259549   1.270   0.922   5.450 -2.1217 -1.5846 -0.2789
12712TIP3   OH259550   5.199   3.413  11.127 -0.6459  0.5531 -0.0322
12712TIP3    H159551   5.246   3.445  11.204 -0.7020 -1.3125  0.8140
12712TIP3    H259552   5.264   3.366  11.076 -0.9506  0.4484 -0.3297
12713TIP3   OH259553   0.727   4.004  13.371 -0.1907 -0.2151 -0.9156
12713TIP3    H159554   0.816   4.020  13.403 -0.1520  1.3971 -1.7655
12713TIP3    H259555   0.671   4.049  13.435 -0.4735 -1.6584 -0.0899
12714TIP3   OH259556   3.175   1.129   1.603  0.2721  0.2687 -0.1461
12714TIP3    H159557   3.259   1.164   1.575 -0.3119  0.3010 -1.9387
12714TIP3    H259558   3.129   1.204   1.640  0.5395  0.5172 -0.3147
12715TIP3   OH259559   5.385   3.237   5.120  0.1629  0.5262 -0.4476
12715TIP3    H159560   5.342   3.254   5.204 -2.4330 -0.0928 -1.5436
12715TIP3    H259561   5.460   3.297   5.119 -0.1555  1.0925  1.9589
12716TIP3   OH259562   3.548   2.607  16.300 -0.2081 -0.2384 -0.1809
12716TIP3    H159563   3.471   2.615  16.356 -0.3723 -3.5734  0.2467
12716TIP3    H259564   3.529   2.533  16.243  2.4914 -0.8643 -0.4135
12717TIP3   OH259565   1.796   3.362   0.448 -0.0474 -0.6955 -0.0787
12717TIP3    H159566   1.757   3.447   0.468 -0.3088 -0.9825  0.6667
12717TIP3    H259567   1.874   3.383   0.396 -0.6300 -0.0591 -0.7207
12718TIP3   OH259568   5.210   5.694   5.902 -0.4222  0.0348  0.2313
12718TIP3    H159569   5.274   5.640   5.856 -1.3739 -1.2456  0.3454
12718TIP3    H259570   5.127   5.677   5.856 -1.2904 -0.8495  2.0170
12719TIP3   OH259571   0.507   4.998   5.306 -0.2879 -0.2671  0.7250
12719TIP3    H159572   0.455   5.072   5.273  2.1617  1.2633 -0.0264
12719TIP3    H259573   0.569   5.038   5.367  1.2631 -1.6401  0.1305
12720TIP3   OH259574   4.447   0.573  13.878  0.3291 -0.4414 -0.4038
12720TIP3    H159575   4.417   0.639  13.940  0.5929 -0.3125 -0.4118
12720TIP3    H259576   4.542   0.570  13.891  0.2802 -1.0444 -0.1812
12721TIP3   OH259577   3.121   0.801   2.904 -0.4377 -0.5046  0.1806
12721TIP3    H159578   3.144   0.889   2.876 -1.9770  0.2683  1.1631
12721TIP3    H259579   3.164   0.790   2.988 -0.1278 -0.7433 -0.0101
12722TIP3   OH259580   4.485   2.155  14.746  0.4114 -0.2665 -0.5004
12722TIP3    H159581   4.465   2.129  14.656  0.3569  0.6489 -0.7675
12722TIP3    H259582   4.412   2.121  14.798  0.5679 -1.0074 -0.7666
12723TIP3   OH259583   4.650   5.422  10.883  0.1099  0.5453  0.0974
12723TIP3    H159584   4.647   5.508  10.924 -0.4222 -0.3308  2.0240
12723TIP3    H259585   4.645   5.360  10.957  1.1623 -1.1322 -1.1732
12724TIP3   OH259586   5.292   4.957   5.002  0.1643 -0.1123  0.0984
12724TIP3    H159587   5.256   4.873   4.975 -2.2438  0.4932  1.1434
12724TIP3    H259588   5.380   4.937   5.035  0.5034 -1.8270 -1.6868
12725TIP3   OH259589   5.302   3.664  11.480 -0.1984  0.2633 -0.1136
12725TIP3    H159590   5.212   3.696  11.484 -0.2775  0.3739 -1.9312
12725TIP3    H259591   5.332   3.688  11.392  1.0828 -1.1670 -0.1070
12726TIP3   OH259592   4.602   2.580  12.550  0.2592 -0.5686 -0.1110
12726TIP3    H159593   4.558   2.498  12.525 -1.2202  0.8263 -2.5114
12726TIP3    H259594   4.695   2.559  12.546 -0.0695 -1.9845 -1.3644
12727TIP3   OH259595   6.715   1.314  13.809 -0.2207  0.6647 -0.1270
12727TIP3    H159596   6.705   1.221  13.826  0.7239  0.4896 -0.4641
12727TIP3    H259597   6.694   1.356  13.892  2.8911 -0.0813  1.1966
12728TIP3   OH259598   3.657   1.295  12.812 -0.1863  0.7307 -0.1801
12728TIP3    H159599   3.692   1.348  12.740  0.2899  0.7700  0.0797
12728TIP3    H259600   3.573   1.263  12.779 -0.1970  1.1482 -0.5720
12729TIP3   OH259601   6.639   2.251   3.783 -0.1415  0.2522  0.2831
12729TIP3    H159602   6.637   2.339   3.820  0.3138  1.4870 -2.4246
12729TIP3    H259603   6.720   2.248   3.732 -0.0179 -1.8552  0.5001
12730TIP3   OH259604   4.707   0.923   1.588 -0.5227  0.2449  0.2771
12730TIP3    H159605   4.665   0.846   1.627 -0.6556  0.0103 -0.3194
12730TIP3    H259606   4.643   0.954   1.524  0.5181 -0.5535 -1.1828
12731TIP3   OH259607   5.581   6.169   6.161 -1.1074 -0.3765 -0.1229
12731TIP3    H159608   5.625   6.109   6.222 -0.7523  0.4576  0.4559
12731TIP3    H259609   5.592   6.255   6.200 -0.4996  0.2392 -1.5974
12732TIP3   OH259610   0.898   2.000  14.881 -0.0644 -0.2491  0.3554
12732TIP3    H159611   0.930   1.912  14.899  0.8942 -0.0075 -0.0957
12732TIP3    H259612   0.930   2.020  14.793  1.6742  1.3833  1.2714
12733TIP3   OH259613   0.355   4.716   5.225  1.2959  0.1925  0.2686
12733TIP3    H159614   0.370   4.811   5.234  2.0227  0.3147 -1.6414
12733TIP3    H259615   0.405   4.677   5.297  0.7722  1.2660  1.2416
12734TIP3   OH259616   3.226   3.452   1.592  0.6178  0.2761  0.2188
12734TIP3    H159617   3.271   3.536   1.587  0.1360  0.5130 -0.1169
12734TIP3    H259618   3.140   3.472   1.630 -0.8586  0.5020 -2.9660
12735TIP3   OH259619   4.483   5.323   3.753 -0.1884 -0.4636  0.3817
12735TIP3    H159620   4.482   5.287   3.664  0.1542 -2.7926  1.2651
12735TIP3    H259621   4.464   5.249   3.809 -1.4598  1.1738  2.2380
12736TIP3   OH259622   1.828   2.922   1.623  0.2041 -0.1276 -0.3231
12736TIP3    H159623   1.764   2.989   1.648  2.0546  0.8435  2.2590
12736TIP3    H259624   1.873   2.901   1.705  3.3527 -0.5561 -2.0296
12737TIP3   OH259625   0.990   4.152   3.820 -0.2592  0.0681  0.5246
12737TIP3    H159626   0.938   4.214   3.871  0.0193  1.9512 -1.3368
12737TIP3    H259627   0.951   4.153   3.733  1.3756 -0.3530 -0.2613
12738TIP3   OH259628   0.769   5.838   3.833 -0.2273  0.6554  0.5325
12738TIP3    H159629   0.763   5.932   3.852  0.0697  0.9709 -0.8564
12738TIP3    H259630   0.697   5.822   3.772  1.3413  0.5742 -1.3952
12739TIP3   OH259631   1.648   6.063   5.797  0.0402 -0.0123 -0.3029
12739TIP3    H159632   1.562   6.065   5.838  0.1511 -0.4100 -0.0478
12739TIP3    H259633   1.704   6.114   5.856  0.2775 -0.8755  0.2227
12740TIP3   OH259634   2.569   4.441   5.818 -0.2026  0.3750 -0.7206
12740TIP3    H159635   2.612   4.466   5.736  0.3842  2.0602  0.0568
12740TIP3    H259636   2.481   4.479   5.812  0.3761  1.9215  0.0674
12741TIP3   OH259637   1.569   0.788   1.613  0.3595 -0.1477 -0.0607
12741TIP3    H159638   1.599   0.780   1.704 -1.3064  1.8011  0.7255
12741TIP3    H259639   1.475   0.803   1.619  0.3692  1.1184 -2.0353
12742TIP3   OH259640   0.383   0.902   6.334 -0.3510  0.0321  0.3441
12742TIP3    H159641   0.446   0.856   6.390 -0.2375  0.0837  0.2577
12742TIP3    H259642   0.359   0.980   6.384 -2.1636 -1.1694  1.4616
12743TIP3   OH259643   3.094   3.262   0.812 -0.3215 -0.2193 -0.0262
12743TIP3    H159644   3.138   3.181   0.785 -0.1877 -0.3224  0.4969
12743TIP3    H259645   3.165   3.324   0.828 -0.4436  0.2019 -1.0262
12744TIP3   OH259646   3.685   2.461  15.416  0.0041  0.5084  0.1171
12744TIP3    H159647   3.600   2.481  15.376  0.4278 -0.1278 -1.1555
12744TIP3    H259648   3.749   2.502  15.358  0.6660 -0.8608 -0.1597
12745TIP3   OH259649   1.744   0.443  10.647  0.5605 -0.1265  0.2791
12745TIP3    H159650   1.813   0.478  10.703  1.0697 -0.8213  0.0947
12745TIP3    H259651   1.667   0.495  10.670  1.1900  0.8233  0.3173
12746TIP3   OH259652   3.869   5.446  16.652  0.2236  0.0889  0.3451
12746TIP3    H159653   3.918   5.385  16.598 -0.3779  0.4071 -0.5991
12746TIP3    H259654   3.919   5.453  16.733  2.1602  0.9934 -0.8649
12747TIP3   OH259655   6.413   0.705   1.592  0.4459  0.0893  0.8646
12747TIP3    H159656   6.408   0.708   1.688 -3.6897  0.5848  0.8232
12747TIP3    H259657   6.419   0.612   1.571 -2.2480 -0.3393  1.6736
12748TIP3   OH259658   1.306   3.437   5.256  0.3681  0.9308 -0.0674
12748TIP3    H159659   1.284   3.453   5.347 -0.7840  1.0214 -0.3545
12748TIP3    H259660   1.222   3.435   5.210  0.9920  2.2604 -1.3523
12749TIP3   OH259661   0.253   0.381   4.652  0.0944 -0.1050 -0.4519
12749TIP3    H159662   0.192   0.436   4.702  1.4616  0.9155  0.1852
12749TIP3    H259663   0.260   0.424   4.567 -1.7023 -1.4565 -1.3472
12750TIP3   OH259664   2.227   4.597  11.802 -0.3218  0.4682  0.4080
12750TIP3    H159665   2.140   4.624  11.831 -0.8564  0.5007 -1.1760
12750TIP3    H259666   2.215   4.507  11.771  0.7818 -0.5187  2.6256
12751TIP3   OH259667   3.135   1.752  17.180  0.1896 -0.2376 -0.6808
12751TIP3    H159668   3.210   1.790  17.227  1.1452 -0.1810 -2.1869
12751TIP3    H259669   3.143   1.658  17.196 -0.5387 -0.0868  0.7159
12752TIP3   OH259670   4.295   6.698   1.903  0.3247  0.0497  0.4571
12752TIP3    H159671   4.265   6.646   1.979 -1.6090  0.3816 -0.0170
12752TIP3    H259672   4.348   6.768   1.941  1.6817 -1.3494  1.2408
12753TIP3   OH259673   4.431   1.539  11.744  0.4080  0.2552 -0.9482
12753TIP3    H159674   4.383   1.607  11.698 -1.1551  0.0964  0.3339
12753TIP3    H259675   4.501   1.585  11.790  0.7633  0.6649 -1.8823
12754TIP3   OH259676   4.869   3.919  15.342  0.5459  0.4720  0.4837
12754TIP3    H159677   4.851   4.006  15.381 -2.2834 -0.4962  1.6527
12754TIP3    H259678   4.783   3.878  15.337  1.7700 -2.1586 -0.4045
12755TIP3   OH259679   3.640   5.543   0.766  0.0096  0.0685  0.1743
12755TIP3    H159680   3.650   5.592   0.848  2.2362 -0.8466  0.5150
12755TIP3    H259681   3.618   5.610   0.701 -1.3055  0.8764  1.3765
12756TIP3   OH259682   6.159   6.133  15.235 -0.3533 -0.1932 -0.1769
12756TIP3    H159683   6.126   6.102  15.151 -1.0172 -3.6976  1.2068
12756TIP3    H259684   6.082   6.168  15.280  0.2053  2.8116 -1.3237
12757TIP3   OH259685   0.449   0.686  16.581 -0.1521  0.1029 -0.6904
12757TIP3    H159686   0.413   0.715  16.497 -1.3316  0.2098 -0.1686
12757TIP3    H259687   0.422   0.753  16.643  0.0054 -0.3902 -0.0779
12758TIP3   OH259688   4.383   6.434  13.673  0.1096 -0.2467 -0.6334
12758TIP3    H159689   4.321   6.498  13.638 -0.1536 -1.1151 -1.7980
12758TIP3    H259690   4.413   6.384  13.597 -0.1226 -1.8922  0.2946
12759TIP3   OH259691   2.360   1.022   5.261 -0.3328 -0.2571  0.1458
12759TIP3    H159692   2.330   0.962   5.193 -0.2673 -0.1720  0.0417
12759TIP3    H259693   2.282   1.038   5.315 -0.1948 -0.9338  0.5468
12760TIP3   OH259694   1.671   2.076  17.242 -0.2516 -0.8059  0.5515
12760TIP3    H159695   1.707   2.000  17.196 -0.0937  0.4194 -1.5216
12760TIP3    H259696   1.577   2.060  17.245 -1.0323  0.9270 -4.4404
12761TIP3   OH259697   4.469   1.942   5.752 -0.3025 -0.3406 -0.1697
12761TIP3    H159698   4.493   1.916   5.841  1.0003 -0.7516 -0.6173
12761TIP3    H259699   4.496   1.869   5.697 -0.1799  0.3195 -1.0108
12762TIP3   OH259700   4.857   0.243  11.409 -0.2624 -0.8661  0.9621
12762TIP3    H159701   4.922   0.313  11.412 -0.3964 -0.7498  1.1387
12762TIP3    H259702   4.776   0.283  11.439 -0.9539 -0.4314 -1.3142
12763TIP3   OH259703   4.227   3.919  11.198  0.3477 -0.2553 -0.9693
12763TIP3    H159704   4.254   3.923  11.106  0.9424 -1.3098 -0.8486
12763TIP3    H259705   4.133   3.941  11.195 -0.1829 -2.4038 -2.1096
12764TIP3   OH259706   1.142   5.402  14.768 -0.5348  0.2927  0.4231
12764TIP3    H159707   1.106   5.366  14.849 -0.4394  2.1146  1.3320
12764TIP3    H259708   1.235   5.413  14.786 -0.4782  0.5341 -0.0071
12765TIP3   OH259709   3.982   3.655   6.312  0.2404 -0.3320  0.4413
12765TIP3    H159710   4.003   3.705   6.233 -0.0453  0.7830  1.0442
12765TIP3    H259711   4.038   3.577   6.307  0.9843  0.2319 -0.3425
12766TIP3   OH259712   5.983   2.893   2.869 -0.0953  0.0260 -0.3113
12766TIP3    H159713   5.984   2.822   2.806  0.1627  0.3701 -0.7048
12766TIP3    H259714   5.916   2.869   2.933  0.2941 -0.7744 -0.1989
12767TIP3   OH259715   4.642   5.075  13.681 -0.1062 -0.0846  0.0196
12767TIP3    H159716   4.624   5.121  13.763  0.8755 -1.2134  0.8989
12767TIP3    H259717   4.558   5.076  13.635 -0.6037  0.8151  0.9061
12768TIP3   OH259718   1.622   4.214   5.083  0.2207  0.0219 -0.0355
12768TIP3    H159719   1.677   4.249   5.013  1.4871  0.8748  1.3046
12768TIP3    H259720   1.628   4.119   5.073 -1.3055  0.1026 -2.2805
12769TIP3   OH259721   2.385   5.614   5.258  0.2970 -0.3030  0.0355
12769TIP3    H159722   2.455   5.604   5.194 -0.7680 -0.8411 -1.0920
12769TIP3    H259723   2.309   5.570   5.219 -0.6049 -0.0011  1.3381
12770TIP3   OH259724   4.947   4.594  10.838 -0.2107  0.2256 -0.3561
12770TIP3    H159725   4.949   4.569  10.930 -0.9379  0.0621 -0.3826
12770TIP3    H259726   5.039   4.590  10.810 -0.1456 -1.1110 -0.0193
12771TIP3   OH259727   0.924   1.320  15.741 -0.0086  0.0630  0.3195
12771TIP3    H159728   0.895   1.363  15.822 -1.0525  0.3266 -0.1877
12771TIP3    H259729   0.984   1.383  15.701  0.5298 -0.0753  0.8831
12772TIP3   OH259730   4.160   4.825  12.203 -0.0703  0.1820 -0.0763
12772TIP3    H159731   4.231   4.826  12.267 -0.8145 -0.7420  0.8086
12772TIP3    H259732   4.102   4.896  12.231 -1.4657 -1.5108  1.6136
12773TIP3   OH259733   2.167   3.256  11.058  0.0233  0.5353  0.0487
12773TIP3    H159734   2.210   3.278  11.140 -1.7812  1.5702  0.7469
12773TIP3    H259735   2.083   3.301  11.061 -0.1357  0.5184 -2.3306
12774TIP3   OH259736   0.890   5.639   3.263  0.3339 -0.7252  0.0619
12774TIP3    H159737   0.942   5.720   3.265  1.4399 -1.4031 -0.8071
12774TIP3    H259738   0.949   5.571   3.294 -0.8679 -1.0967  1.6975
12775TIP3   OH259739   5.415   1.019   3.972 -0.2104  0.0741 -0.6570
12775TIP3    H159740   5.353   0.947   3.966 -0.2155  0.0114  0.0350
12775TIP3    H259741   5.388   1.066   4.051  1.2171 -0.5199  0.2096
12776TIP3   OH259742   5.474   5.322   3.511  0.0899 -0.5462  0.2541
12776TIP3    H159743   5.538   5.255   3.487  1.0437  0.3566  0.2490
12776TIP3    H259744   5.490   5.394   3.451 -2.0824 -0.9424 -0.9114
12777TIP3   OH259745   0.285   1.369  17.195 -0.0650  0.0561 -0.0610
12777TIP3    H159746   0.204   1.407  17.161 -1.0621  0.1045  2.2213
12777TIP3    H259747   0.354   1.424  17.158 -1.2159  1.3379 -0.3770
12778TIP3   OH259748   1.123   5.831   4.397 -0.1182  0.6229  0.1407
12778TIP3    H159749   1.051   5.826   4.334 -0.6011  1.5515  0.5791
12778TIP3    H259750   1.151   5.741   4.410 -2.8715 -0.1385  1.8006
12779TIP3   OH259751   0.509   0.506   2.378 -0.3123  0.3131 -0.0936
12779TIP3    H159752   0.567   0.435   2.406  2.0955  1.8858 -0.7643
12779TIP3    H259753   0.485   0.484   2.288 -0.0152  0.0986 -0.1221
12780TIP3   OH259754   1.834   6.107   1.220  0.1151  0.4601  0.5521
12780TIP3    H159755   1.773   6.063   1.279  0.5919  0.0498  0.7436
12780TIP3    H259756   1.900   6.041   1.201 -0.4559  0.3229 -1.0947
12781TIP3   OH259757   4.575   3.241  16.078 -0.2028  0.3298 -0.0269
12781TIP3    H159758   4.513   3.304  16.116  0.5050  0.6352  0.6499
12781TIP3    H259759   4.654   3.292  16.062  0.6972 -0.5453  1.3734
12782TIP3   OH259760   4.904   4.990  13.289  0.2999 -0.1327  0.4118
12782TIP3    H159761   4.895   4.948  13.375  1.6352 -1.0891  0.1091
12782TIP3    H259762   4.931   4.919  13.230  0.4013  0.7115 -0.5855
12783TIP3   OH259763   0.067   0.046  13.305  0.1020 -0.3105 -0.0546
12783TIP3    H159764   0.036  -0.021  13.366  1.6157 -2.3798 -1.4262
12783TIP3    H259765   0.002   0.048  13.236 -1.2855  1.5874  1.1982
12784TIP3   OH259766   0.543   5.720   3.710  0.0334  0.3627  0.3023
12784TIP3    H159767   0.459   5.731   3.665 -0.4368  0.8503  1.2619
12784TIP3    H259768   0.525   5.656   3.779  0.3630  0.6963  0.7077
12785TIP3   OH259769   1.979   2.129   2.794  0.0380  0.4488  0.4683
12785TIP3    H159770   1.980   2.140   2.699 -0.1435  1.4263  0.5675
12785TIP3    H259771   1.912   2.063   2.810  0.9089 -0.6362 -0.1527
12786TIP3   OH259772   2.212   5.757  12.400 -0.3303  0.4151 -0.1014
12786TIP3    H159773   2.281   5.741  12.336 -0.1814  2.0553 -0.3900
12786TIP3    H259774   2.210   5.853  12.410  0.4165  0.2033  3.1612
12787TIP3   OH259775   0.513   4.531  13.307 -0.6160 -0.1968  0.5993
12787TIP3    H159776   0.563   4.609  13.329  0.1210  0.3301 -2.4954
12787TIP3    H259777   0.445   4.562  13.248 -1.1632 -1.7132  0.3896
12788TIP3   OH259778   5.684   3.451  16.501  0.1515  0.3068 -0.3404
12788TIP3    H159779   5.709   3.418  16.587  0.8788  0.5026 -0.4666
12788TIP3    H259780   5.588   3.452  16.502  0.1613  1.5153  0.9254
12789TIP3   OH259781   3.133   6.129   3.380 -1.0479 -0.0742 -0.6386
12789TIP3    H159782   3.158   6.099   3.468 -1.4888  1.1467 -0.0686
12789TIP3    H259783   3.216   6.153   3.339 -0.8410 -0.6255 -0.5426
12790TIP3   OH259784   2.956   0.022   0.691  0.2656  0.4792  0.4521
12790TIP3    H159785   2.936  -0.071   0.682 -0.2646  0.5919  0.4611
12790TIP3    H259786   3.051   0.027   0.678  0.1426  0.0820 -0.6522
12791TIP3   OH259787   0.920   6.656  13.623  0.0508  0.6387  0.3722
12791TIP3    H159788   0.971   6.726  13.582 -0.7036  0.9071 -0.1264
12791TIP3    H259789   0.974   6.578  13.614  0.4081  0.9360 -0.0780
12792TIP3   OH259790   3.383   3.680   5.925  0.2923  0.5639 -0.4165
12792TIP3    H159791   3.302   3.641   5.959 -1.3752  4.2016  0.1677
12792TIP3    H259792   3.386   3.652   5.834 -1.8108  0.5625 -0.5406
12793TIP3   OH259793   5.268   3.356   1.638 -0.3166 -0.1099 -0.6006
12793TIP3    H159794   5.175   3.377   1.644 -0.2686 -0.1524  0.8949
12793TIP3    H259795   5.271   3.260   1.630 -0.4057 -0.0808 -0.9869
12794TIP3   OH259796   2.604   5.687   3.260 -0.3226 -0.2198 -0.2229
12794TIP3    H159797   2.648   5.721   3.338  1.2749  1.3551 -1.7054
12794TIP3    H259798   2.661   5.617   3.228 -1.0431 -0.9572  0.0694
12795TIP3   OH259799   1.141   2.459   5.144 -0.2228  0.2864 -0.1160
12795TIP3    H159800   1.160   2.536   5.198  1.2731  0.4171 -0.7803
12795TIP3    H259801   1.062   2.483   5.096 -0.6114  0.8292  0.7562
12796TIP3   OH259802   0.011   5.375   2.028  0.1872  0.2148  0.2738
12796TIP3    H159803  -0.068   5.428   2.019  0.0414 -0.1276 -0.5840
12796TIP3    H259804   0.036   5.384   2.120  0.7763  2.6185 -0.0704
12797TIP3   OH259805   5.993   2.952  15.807  0.2706  0.2262  0.1530
12797TIP3    H159806   6.049   2.990  15.875  1.2617 -1.1398  0.1498
12797TIP3    H259807   5.929   2.900  15.855  1.3215 -1.2042  0.0785
12798TIP3   OH259808   5.475   0.174  10.746 -0.4252  0.5823 -0.3655
12798TIP3    H159809   5.404   0.212  10.695 -0.5682 -0.3596 -0.8919
12798TIP3    H259810   5.555   0.201  10.701 -0.5897 -1.7450 -2.2581
12799TIP3   OH259811   3.774   2.115  13.184 -0.5454  0.5252 -0.3177
12799TIP3    H159812   3.861   2.099  13.221 -1.0381  0.1668  0.7196
12799TIP3    H259813   3.737   2.185  13.237 -0.5315  1.3637 -1.3773
12800TIP3   OH259814   6.400   1.814  10.587 -0.2896  0.0120  0.8247
12800TIP3    H159815   6.459   1.764  10.530 -0.7434  0.8698 -0.4410
12800TIP3    H259816   6.416   1.779  10.675  1.1613 -0.6647  0.3228
12801TIP3   OH259817   3.208   4.230  13.549  0.4486 -0.6992 -0.6386
12801TIP3    H159818   3.290   4.182  13.541 -0.3397 -1.7598 -3.3562
12801TIP3    H259819   3.215   4.299  13.483 -0.1461  0.3388  0.3541
12802TIP3   OH259820   6.660   2.512   3.894  0.2010  0.7592 -0.8976
12802TIP3    H159821   6.567   2.536   3.896 -0.2111 -0.3321 -3.3765
12802TIP3    H259822   6.701   2.579   3.839  1.5317  2.8324  2.3227
12803TIP3   OH259823   4.060   2.735  15.577  0.1474 -0.5581  0.0144
12803TIP3    H159824   4.093   2.781  15.654 -1.3846  0.1194  0.2981
12803TIP3    H259825   4.042   2.646  15.608 -0.1151 -0.3923  0.3377
12804TIP3   OH259826   0.994   0.304   1.550 -0.1903  0.9112 -0.2026
12804TIP3    H159827   0.909   0.349   1.547 -0.9803 -0.5313 -0.6054
12804TIP3    H259828   1.013   0.284   1.458  0.0872  0.3657 -0.0321
12805TIP3   OH259829   1.124   0.781  14.990  0.0367 -0.7865  0.2447
12805TIP3    H159830   1.173   0.862  14.976 -1.0980  0.0122  0.7004
12805TIP3    H259831   1.133   0.764  15.084 -1.4724  0.0255  0.5726
12806TIP3   OH259832   4.596   4.331   1.670  0.8525  0.6814 -0.8630
12806TIP3    H159833   4.526   4.362   1.728  1.4333  0.6259 -0.1191
12806TIP3    H259834   4.604   4.237   1.690 -0.6126  0.0906 -2.8059
12807TIP3   OH259835   3.379   2.608  11.391 -0.2654 -0.6321  0.2319
12807TIP3    H159836   3.311   2.675  11.394  0.1096 -0.2949  1.4912
12807TIP3    H259837   3.449   2.648  11.339 -0.3122 -0.2939  0.4234
12808TIP3   OH259838   5.370   1.115  12.141 -0.0971 -0.1147  0.3135
12808TIP3    H159839   5.458   1.136  12.171  0.3365 -0.2903 -0.7703
12808TIP3    H259840   5.373   1.021  12.122  0.3318  0.3379 -2.2995
12809TIP3   OH259841   6.178   1.760   0.813  0.6884 -0.4979  0.0925
12809TIP3    H159842   6.103   1.727   0.861  1.0200 -1.2038  0.1476
12809TIP3    H259843   6.213   1.831   0.867  0.2124 -0.3318  0.1833
12810TIP3   OH259844   3.428   3.847   1.223  0.0833  0.0741  0.2802
12810TIP3    H159845   3.522   3.836   1.217 -0.0962 -1.2226 -0.6642
12810TIP3    H259846   3.400   3.869   1.133 -0.4893  0.7221  0.6005
12811TIP3   OH259847   3.258   5.347   2.027  0.0989 -0.6771  0.1508
12811TIP3    H159848   3.188   5.288   1.997  0.1101 -1.3143  1.3462
12811TIP3    H259849   3.308   5.295   2.090 -0.2714  0.8064  1.7336
12812TIP3   OH259850   3.805   6.354  15.540  0.0821 -0.2883  0.4749
12812TIP3    H159851   3.824   6.326  15.451 -0.5646  0.3949  0.1032
12812TIP3    H259852   3.718   6.319  15.558 -0.4871  0.9184  0.2165
12813TIP3   OH259853   1.350   6.256  10.456  0.6593  0.2018 -0.6339
12813TIP3    H159854   1.364   6.351  10.459  0.5271  0.2039  0.4225
12813TIP3    H259855   1.310   6.235  10.541 -0.7277 -0.5824 -1.4529
12814TIP3   OH259856   1.758   2.554   1.506 -0.4664  0.0127 -0.1363
12814TIP3    H159857   1.792   2.619   1.444 -1.4509 -1.4813 -2.3912
12814TIP3    H259858   1.671   2.532   1.473 -0.1725 -2.4223  0.5170
12815TIP3   OH259859   2.928   2.524  15.714 -0.7815 -0.7361  0.5539
12815TIP3    H159860   2.857   2.508  15.652 -0.3968 -2.2670  0.4856
12815TIP3    H259861   2.884   2.548  15.796 -1.3211 -0.2896  0.1440
12816TIP3   OH259862   0.757   3.292   5.660 -0.5110  0.1995  0.3548
12816TIP3    H159863   0.678   3.249   5.695 -0.9457  0.5443 -0.1952
12816TIP3    H259864   0.779   3.242   5.581  0.3772 -0.4749  0.9989
12817TIP3   OH259865   4.363   4.000  15.775  0.2211  0.3949  0.4298
12817TIP3    H159866   4.429   3.971  15.712  0.5516  0.9140  0.5342
12817TIP3    H259867   4.374   4.095  15.780 -0.9686  0.5847 -0.0586
12818TIP3   OH259868   1.605   2.876   6.355  0.1454  0.0664 -0.4017
12818TIP3    H159869   1.547   2.878   6.432  1.5938 -0.6810  0.7757
12818TIP3    H259870   1.664   2.803   6.372  0.7327  0.1023 -2.0938
12819TIP3   OH259871   6.689   4.749   5.976 -0.2542  0.6066 -0.0077
12819TIP3    H159872   6.644   4.712   5.900  0.3714  0.4230 -0.2941
12819TIP3    H259873   6.714   4.672   6.028  1.6284  0.5449 -0.9276
12820TIP3   OH259874   4.566   1.900  14.333  0.6327 -0.5032 -0.1444
12820TIP3    H159875   4.648   1.942  14.305  1.3428 -1.5326  0.3212
12820TIP3    H259876   4.593   1.814  14.365 -0.8925 -1.7179 -1.9417
12821TIP3   OH259877   3.701   5.267  14.995  0.1726 -0.2139 -0.4962
12821TIP3    H159878   3.636   5.337  14.995  0.2887 -0.1021 -0.7554
12821TIP3    H259879   3.683   5.217  14.915  0.3094 -0.2707 -0.4929
12822TIP3   OH259880   6.632   3.354  15.911 -0.9314 -0.1443  0.5109
12822TIP3    H159881   6.701   3.291  15.933  0.1426  1.0297  0.6396
12822TIP3    H259882   6.573   3.306  15.853  0.1689 -1.0902  0.1292
12823TIP3   OH259883   1.913   2.436   0.425 -0.7959  0.5566  0.8282
12823TIP3    H159884   1.823   2.441   0.458 -1.0416 -0.2820  0.3129
12823TIP3    H259885   1.941   2.527   0.419 -1.9912  0.8914 -0.0109
12824TIP3   OH259886   2.249   4.638   4.910 -0.4117  0.7692 -0.0959
12824TIP3    H159887   2.308   4.615   4.838 -0.9528  0.3810 -0.4285
12824TIP3    H259888   2.279   4.586   4.984 -0.1335  0.8228 -0.1713
12825TIP3   OH259889   2.098   1.175  11.742  0.3349 -0.0745  0.1494
12825TIP3    H159890   2.172   1.141  11.792 -0.2371 -0.8089  0.5239
12825TIP3    H259891   2.028   1.110  11.756 -0.3169  0.5084 -0.3404
12826TIP3   OH259892   1.169   2.895   5.443  0.4361 -0.1857  0.1513
12826TIP3    H159893   1.202   2.937   5.363 -0.2393 -0.9788 -0.5705
12826TIP3    H259894   1.081   2.933   5.454  0.0384 -0.9826 -0.1976
12827TIP3   OH259895   5.549   2.723   2.595  0.4564 -0.5007 -0.0726
12827TIP3    H159896   5.601   2.758   2.523 -0.2471  0.0600 -0.3136
12827TIP3    H259897   5.550   2.792   2.662 -1.9743  0.5759 -1.0490
12828TIP3   OH259898   4.496   3.312  12.978  0.0280  1.0461  0.7976
12828TIP3    H159899   4.583   3.278  12.958  0.2621  1.5710  0.9001
12828TIP3    H259900   4.482   3.382  12.914 -1.2524 -0.4683 -0.6913
12829TIP3   OH259901   0.037   4.027  12.202  0.2120  0.5199 -0.6688
12829TIP3    H159902  -0.006   4.099  12.249 -0.9081 -1.8289  2.1668
12829TIP3    H259903   0.074   3.972  12.271  1.1682 -1.5847 -2.7453
12830TIP3   OH259904   4.216   1.066   2.608 -0.2296 -0.6635 -0.4663
12830TIP3    H159905   4.309   1.057   2.584 -0.2480  0.7024 -1.1356
12830TIP3    H259906   4.195   1.157   2.587 -2.3231 -1.5383 -2.4489
12831TIP3   OH259907   3.773   6.067  14.522  0.3021  0.2896 -0.1976
12831TIP3    H159908   3.723   6.034  14.597  0.7333 -0.5808 -0.2796
12831TIP3    H259909   3.861   6.082  14.556 -0.0048  1.9293 -0.0255
12832TIP3   OH259910   3.426   1.592  16.864 -0.0834  0.0385  0.0457
12832TIP3    H159911   3.480   1.605  16.942 -0.4891  0.8209  0.2109
12832TIP3    H259912   3.476   1.635  16.794  0.2827 -0.6676 -0.1306
12833TIP3   OH259913   2.807   4.794  15.402  0.2744 -0.3456 -0.2196
12833TIP3    H159914   2.791   4.863  15.338 -0.5420 -1.0062 -0.7410
12833TIP3    H259915   2.734   4.801  15.463  0.4367 -0.4635 -0.0104
12834TIP3   OH259916   4.478   4.580  10.677 -0.0978  0.0884 -0.3119
12834TIP3    H159917   4.561   4.624  10.692 -0.2869  0.6069 -0.7406
12834TIP3    H259918   4.500   4.505  10.622  0.6134 -1.8717  2.4339
12835TIP3   OH259919   2.090   0.519  16.942  0.7512  0.3244 -0.5960
12835TIP3    H159920   2.098   0.433  16.902  0.7291  0.6467 -1.3208
12835TIP3    H259921   2.148   0.575  16.890  0.4748  0.8224 -0.3774
12836TIP3   OH259922   2.625   3.033  13.518  0.6490  0.4993 -0.2423
12836TIP3    H159923   2.663   2.947  13.535  1.7353  0.9189 -0.4210
12836TIP3    H259924   2.545   3.035  13.570  1.3739 -0.0734  0.9643
12837TIP3   OH259925   6.314   0.356  14.143 -0.4925 -0.2794  0.3543
12837TIP3    H159926   6.226   0.390  14.128 -0.9869 -2.0688 -1.1750
12837TIP3    H259927   6.371   0.432  14.137 -1.7742  0.6567 -0.3504
12838TIP3   OH259928   1.927   0.884  13.506  0.1086 -0.6667 -0.0471
12838TIP3    H159929   1.869   0.958  13.484  0.9181 -0.4551 -1.6184
12838TIP3    H259930   2.013   0.924  13.517  0.3306 -1.2294  0.2770
12839TIP3   OH259931   5.984   0.748   2.893 -0.4959  0.3400 -0.3919
12839TIP3    H159932   6.068   0.706   2.913 -0.9273  0.4928  2.0643
12839TIP3    H259933   6.007   0.840   2.879  0.0001 -0.0164 -2.1592
12840TIP3   OH259934   6.043   1.934  13.318 -0.1509 -0.1880  0.6923
12840TIP3    H159935   5.965   1.987  13.333 -1.7155 -2.1578  0.0533
12840TIP3    H259936   6.050   1.879  13.396 -0.2882 -1.0335  0.1223
12841TIP3   OH259937   3.855   0.087   5.293 -0.1574 -0.7150 -0.1069
12841TIP3    H159938   3.812   0.141   5.360 -1.8291 -0.6144 -1.2186
12841TIP3    H259939   3.791   0.021   5.270  0.7764 -1.3740 -0.9068
12842TIP3   OH259940   6.172   5.511  16.801  0.2222 -0.1235  0.1174
12842TIP3    H159941   6.233   5.569  16.756 -2.0339  1.5262 -1.0471
12842TIP3    H259942   6.104   5.569  16.834 -1.1190 -1.9214  0.6812
12843TIP3   OH259943   1.771   5.926  13.543 -0.0032 -0.0780 -0.5160
12843TIP3    H159944   1.784   6.001  13.485  1.5304  0.5105  0.5388
12843TIP3    H259945   1.797   5.850  13.491  0.6356  0.3644 -0.8537
12844TIP3   OH259946   6.606   5.528   1.587 -0.2869 -0.4860  0.0227
12844TIP3    H159947   6.600   5.507   1.493  1.5107 -1.9312  0.1568
12844TIP3    H259948   6.698   5.512   1.608 -0.0762  2.2190  1.5281
12845TIP3   OH259949   2.401   5.518   3.455 -0.1491  0.4074  0.6172
12845TIP3    H159950   2.374   5.503   3.364  0.0366 -0.9106  0.7683
12845TIP3    H259951   2.465   5.589   3.450  1.1915 -0.8382 -0.4970
12846TIP3   OH259952   2.926   2.938  13.080 -0.0863  0.4765 -0.3530
12846TIP3    H159953   2.845   2.988  13.079  1.3547  2.9908 -1.8901
12846TIP3    H259954   2.939   2.910  12.990  0.9338  0.4553 -0.2138
12847TIP3   OH259955   5.646   0.668   5.319  0.3395 -0.3916 -0.0253
12847TIP3    H159956   5.659   0.747   5.372  0.0921  0.2666 -0.9312
12847TIP3    H259957   5.710   0.676   5.248  0.9851 -1.4925  0.4077
12848TIP3   OH259958   5.829   0.972  14.823  0.0204 -0.5339  0.3723
12848TIP3    H159959   5.812   0.879  14.840  0.0374 -0.5292  0.4148
12848TIP3    H259960   5.857   0.975  14.732 -2.1907 -0.3065 -0.3544
12849TIP3   OH259961   0.413   1.380   1.423 -0.0397 -0.1727  0.1576
12849TIP3    H159962   0.411   1.414   1.333  1.0445 -0.3592  0.0549
12849TIP3    H259963   0.500   1.401   1.455 -0.0759 -0.9959  0.8273
12850TIP3   OH259964   3.966   6.229   3.856 -0.2297  0.2408 -0.1306
12850TIP3    H159965   3.912   6.248   3.779 -0.1793  0.8248 -0.0286
12850TIP3    H259966   4.028   6.301   3.860 -0.0040  0.0284  0.2559
12851TIP3   OH259967   4.750   2.200  15.244  0.0613  0.3739 -0.0744
12851TIP3    H159968   4.804   2.120  15.242 -0.4388 -0.0506  1.7191
12851TIP3    H259969   4.810   2.269  15.216  0.6014 -0.5542 -1.3485
12852TIP3   OH259970   3.462   6.416   2.467  0.1193  0.0320 -0.0673
12852TIP3    H159971   3.526   6.483   2.444  0.1640  0.1854  0.4725
12852TIP3    H259972   3.391   6.465   2.509 -0.8247 -0.0123 -1.5409
12853TIP3   OH259973   1.259   4.756  15.377 -0.4180  0.2506 -0.2995
12853TIP3    H159974   1.267   4.662  15.391 -3.0079  0.4242  4.4148
12853TIP3    H259975   1.173   4.767  15.336  0.2155  0.5850 -1.5824
12854TIP3   OH259976   5.465   0.002   6.055 -0.0468  0.1248 -0.2694
12854TIP3    H159977   5.447  -0.091   6.067  1.3148 -0.4301 -1.9820
12854TIP3    H259978   5.401   0.030   5.989 -0.0792  0.2589 -0.1813
12855TIP3   OH259979   4.556   5.552   3.877 -0.2119  0.1351  0.4371
12855TIP3    H159980   4.535   5.461   3.854 -0.6032  0.0225  1.2367
12855TIP3    H259981   4.635   5.546   3.930 -0.8492  0.1629  1.4074
12856TIP3   OH259982   6.317   0.420  15.323 -0.1516  0.1269  0.1289
12856TIP3    H159983   6.271   0.500  15.349 -2.8273 -1.3835  0.4872
12856TIP3    H259984   6.370   0.446  15.248 -0.8353  2.2380  0.3049
12857TIP3   OH259985   5.873   0.543  15.973  0.4278 -0.2859 -0.0390
12857TIP3    H159986   5.968   0.533  15.983  0.7111 -0.0018 -2.0188
12857TIP3    H259987   5.862   0.632  15.941 -0.6091 -0.0028  1.0568
12858TIP3   OH259988   2.579   1.967  17.022 -0.1648  0.1127  0.1177
12858TIP3    H159989   2.605   1.936  16.936 -0.4348  0.0172  0.0701
12858TIP3    H259990   2.640   1.925  17.083 -0.7643 -0.8408  0.0952
12859TIP3   OH259991   4.054   5.362  13.555  0.4626  0.1831 -1.2086
12859TIP3    H159992   3.990   5.300  13.522  0.7045 -0.0095 -1.3240
12859TIP3    H259993   4.070   5.421  13.481 -1.3993  1.7530 -0.4342
12860TIP3   OH259994   2.917   4.111   3.187 -0.3539 -0.5877 -0.1983
12860TIP3    H159995   2.932   4.039   3.248  2.2912 -0.2690 -0.3532
12860TIP3    H259996   2.855   4.168   3.233  3.3844  1.0052  3.6392
12861TIP3   OH259997   5.563   3.900   2.956 -0.2321 -0.3099  0.3881
12861TIP3    H159998   5.485   3.858   2.992 -0.6892  1.9120  2.2247
12861TIP3    H259999   5.635   3.841   2.980 -1.0946 -1.2490  0.7262
12862TIP3   OH260000   3.801   2.516  14.270  0.0908 -0.1243 -0.4950
12862TIP3    H160001   3.724   2.572  14.280  0.7733  0.6339  0.9256
12862TIP3    H260002   3.851   2.530  14.351  1.6059 -0.7688 -1.2805
12863TIP3   OH260003   0.167   2.109   2.043 -0.4152 -0.2446  0.1382
12863TIP3    H160004   0.197   2.118   1.952  2.4097 -0.7284  0.9094
12863TIP3    H260005   0.202   2.187   2.087  0.3422 -1.1641  1.2382
12864TIP3   OH260006   0.734   6.434   4.023 -0.1565  0.1439  0.4166
12864TIP3    H160007   0.800   6.425   4.092  0.6354 -0.6165 -0.4162
12864TIP3    H260008   0.732   6.349   3.981 -1.4019  0.2812  0.1663
12865TIP3   OH260009   1.775   3.992   2.982 -0.0190 -0.9198  0.1781
12865TIP3    H160010   1.790   3.960   3.071  1.4804  0.5210  0.4976
12865TIP3    H260011   1.843   4.058   2.969 -2.3101  1.4250 -0.7595
12866TIP3   OH260012   5.623   3.859  13.790  0.2515 -0.0192  0.2070
12866TIP3    H160013   5.611   3.783  13.847 -0.6007  0.5450  0.7973
12866TIP3    H260014   5.671   3.825  13.714 -0.7346 -1.2905  0.1333
12867TIP3   OH260015   1.660   3.671   5.448 -0.1272 -0.0925  0.3143
12867TIP3    H160016   1.730   3.736   5.441 -0.2117 -0.1587 -2.1625
12867TIP3    H260017   1.695   3.603   5.506  1.0739  0.7935  0.6663
12868TIP3   OH260018   3.886   0.451  15.661  0.6578  0.1171 -0.6624
12868TIP3    H160019   3.945   0.522  15.635  0.2097  1.3349  1.3286
12868TIP3    H260020   3.799   0.486  15.643  0.4249  0.2416  0.5658
12869TIP3   OH260021   2.462   4.117  12.780 -0.3797 -0.2453  0.6540
12869TIP3    H160022   2.546   4.118  12.733  0.1444 -0.3655  1.5560
12869TIP3    H260023   2.487   4.119  12.872 -1.3920  0.1216  0.9264
12870TIP3   OH260024   1.722   2.695  15.773  0.1566  0.2621  0.5091
12870TIP3    H160025   1.812   2.711  15.744 -0.2110  1.9682  0.1758
12870TIP3    H260026   1.731   2.665  15.863  1.1942 -2.9349 -0.5108
12871TIP3   OH260027   0.903   0.895   1.328 -0.1092 -0.5263  0.6166
12871TIP3    H160028   0.855   0.895   1.245 -0.8186 -2.4424  0.9782
12871TIP3    H260029   0.895   0.805   1.360  1.4578 -0.2026  2.0207
12872TIP3   OH260030   1.200   6.192  16.618  0.7504  0.0907 -0.3708
12872TIP3    H160031   1.283   6.143  16.622  1.3571  1.1665  0.6542
12872TIP3    H260032   1.226   6.284  16.625 -0.4153  0.5696 -1.7761
12873TIP3   OH260033   6.606   4.235   2.806 -0.0831  0.6946  0.2467
12873TIP3    H160034   6.657   4.183   2.745 -2.0710 -1.7992  0.5507
12873TIP3    H260035   6.516   4.229   2.775 -0.8985  0.8725  2.3693
12874TIP3   OH260036   4.244   4.505   3.391  0.4373 -0.9314  0.2290
12874TIP3    H160037   4.240   4.412   3.412  1.8890 -0.9880  0.3695
12874TIP3    H260038   4.186   4.547   3.455 -2.2434 -1.9117 -1.3873
12875TIP3   OH260039   5.156   0.645   5.229  0.1723  0.0871 -0.1409
12875TIP3    H160040   5.162   0.555   5.197  0.5242  0.1100 -0.1349
12875TIP3    H260041   5.244   0.680   5.220 -0.0341  0.5295 -0.4291
12876TIP3   OH260042   2.370   3.338  13.661 -0.1433  0.2973  0.3648
12876TIP3    H160043   2.401   3.248  13.654 -0.6392  0.1746 -0.3326
12876TIP3    H260044   2.274   3.330  13.663 -0.2057  0.8336 -0.1857
12877TIP3   OH260045   0.033   0.517  11.215 -0.2423  0.0158 -0.3063
12877TIP3    H160046   0.003   0.435  11.255 -0.0873 -0.4528 -1.1266
12877TIP3    H260047   0.099   0.550  11.276  1.5383 -1.7750 -1.1244
12878TIP3   OH260048   4.839   2.042  11.591 -0.0227 -0.2658  0.4858
12878TIP3    H160049   4.747   2.021  11.607  0.2490 -2.4999 -0.4832
12878TIP3    H260050   4.871   2.075  11.675 -1.4885 -0.2976  1.0836
12879TIP3   OH260051   3.080   3.068  14.360  0.0023  0.4172 -0.6183
12879TIP3    H160052   3.057   3.093  14.449  3.1971 -3.3089  1.5631
12879TIP3    H260053   3.148   3.130  14.334 -0.3917  1.0522 -0.1624
12880TIP3   OH260054   2.335   4.997   3.050 -0.5529  0.1407 -0.2531
12880TIP3    H160055   2.306   5.081   3.014  0.6342  1.4938  1.7529
12880TIP3    H260056   2.349   4.942   2.973 -2.0330  1.5155 -1.5959
12881TIP3   OH260057   5.525   1.307  13.318 -0.1613  0.7716 -0.1675
12881TIP3    H160058   5.479   1.351  13.246  1.0002  1.2521 -0.6305
12881TIP3    H260059   5.496   1.353  13.397 -3.3669 -1.2854  0.0525
12882TIP3   OH260060   6.259   4.161   4.080 -0.0884  0.2535 -0.2165
12882TIP3    H160061   6.234   4.071   4.101 -1.3625  1.0861  2.1977
12882TIP3    H260062   6.349   4.169   4.111 -0.3133  0.0703  0.5003
12883TIP3   OH260063   3.407   6.692   0.891  0.8719  0.4291  0.1479
12883TIP3    H160064   3.419   6.750   0.967 -1.6758  2.1520 -0.6304
12883TIP3    H260065   3.312   6.686   0.881  1.1260 -1.4682 -1.6777
12884TIP3   OH260066   5.545   3.981  15.860 -0.1456 -0.1473  0.0711
12884TIP3    H160067   5.628   3.947  15.894 -0.1697 -0.4091 -0.1273
12884TIP3    H260068   5.567   4.068  15.827 -0.1306  0.1282  0.7968
12885TIP3   OH260069   4.054   2.072  16.341 -0.0214  1.0530 -0.2593
12885TIP3    H160070   4.095   2.158  16.338 -0.8479  1.4801  0.3743
12885TIP3    H260071   3.960   2.090  16.346 -0.2364  0.1091 -0.7141
12886TIP3   OH260072   3.293   4.658   5.502  0.4420  0.7940 -0.2191
12886TIP3    H160073   3.224   4.725   5.501 -1.1410 -0.7757 -1.4312
12886TIP3    H260074   3.274   4.607   5.581  1.7874  1.8389  0.8314
12887TIP3   OH260075   0.205   3.184   1.680 -0.1772 -0.2507  0.1883
12887TIP3    H160076   0.215   3.092   1.658  0.7840  0.2510 -1.7224
12887TIP3    H260077   0.287   3.208   1.722  0.1143  0.0007 -0.4945
12888TIP3   OH260078   6.340   5.325  11.791  0.0201 -0.0025  0.3879
12888TIP3    H160079   6.284   5.371  11.729  0.7480  0.2743 -0.0852
12888TIP3    H260080   6.422   5.375  11.790  0.7003 -1.0869  0.1455
12889TIP3   OH260081   5.774   3.016   4.181  0.6806 -0.9457 -0.2668
12889TIP3    H160082   5.716   2.943   4.161  0.2296 -0.4231 -0.9228
12889TIP3    H260083   5.859   2.990   4.148  1.0091 -2.0142  1.3211
12890TIP3   OH260084   3.794   4.936  14.918  0.0902  0.1572 -0.0982
12890TIP3    H160085   3.865   4.998  14.933 -0.6964  0.7550  1.4151
12890TIP3    H260086   3.806   4.869  14.985 -0.8668  0.3856  0.3225
12891TIP3   OH260087   0.838   4.152   0.805 -0.3882  0.2331 -0.0068
12891TIP3    H160088   0.894   4.227   0.789  0.3935 -0.3601 -0.1047
12891TIP3    H260089   0.866   4.117   0.890  0.4899 -0.9970 -0.7661
12892TIP3   OH260090   5.372   1.009  14.707  0.3410  0.3404 -0.1488
12892TIP3    H160091   5.383   0.916  14.725 -0.1243 -0.0827 -1.8176
12892TIP3    H260092   5.382   1.052  14.792  1.9424 -1.0872  0.4398
12893TIP3   OH260093   0.057   1.063  12.044  0.4153  0.7449  0.4952
12893TIP3    H160094   0.023   0.976  12.021  0.2545  0.8268  0.4256
12893TIP3    H260095   0.113   1.087  11.970 -0.8767  1.4381 -0.2859
12894TIP3   OH260096   4.346   2.381  12.234  0.2682 -0.0447  0.1404
12894TIP3    H160097   4.356   2.350  12.144 -0.5456  0.0139  0.0216
12894TIP3    H260098   4.259   2.421  12.236  1.3297  2.4296  0.2367
12895TIP3   OH260099   0.125   3.841   3.523 -0.1550 -0.0081 -0.3253
12895TIP3    H160100   0.063   3.775   3.492  0.0572  0.3856 -1.6834
12895TIP3    H260101   0.075   3.896   3.583 -0.8386 -0.3238 -0.5997
12896TIP3   OH260102   4.620   0.770   4.440 -0.1007  0.5185 -0.3066
12896TIP3    H160103   4.698   0.814   4.406 -1.0167  2.1522 -0.3813
12896TIP3    H260104   4.559   0.841   4.460 -1.3050 -0.6808  0.4441
12897TIP3   OH260105   4.219   2.879   0.049 -0.0479 -0.1738  0.0308
12897TIP3    H160106   4.244   2.845  -0.037  0.9766 -2.5794  1.1815
12897TIP3    H260107   4.155   2.816   0.082  1.6948 -0.9837  2.1351
12898TIP3   OH260108   0.238   1.268   0.876 -0.0204  0.5397 -0.6472
12898TIP3    H160109   0.324   1.256   0.917 -1.0131 -1.6712  1.0058
12898TIP3    H260110   0.185   1.310   0.943 -1.1490 -1.3927 -0.2389
12899TIP3   OH260111   0.220   3.945   0.664 -0.2552  0.2442 -0.0542
12899TIP3    H160112   0.197   4.034   0.635 -2.2687 -0.2609 -0.1604
12899TIP3    H260113   0.305   3.929   0.623 -1.2561  0.9868 -2.6806
12900TIP3   OH260114   6.078   5.555   5.309  0.4762 -0.6530 -0.0806
12900TIP3    H160115   6.124   5.495   5.367 -1.8843  0.4191  3.1650
12900TIP3    H260116   6.107   5.642   5.336  1.2596 -0.1380 -2.3682
12901TIP3   OH260117   5.703   4.437  15.971 -0.0826 -0.0163 -0.0023
12901TIP3    H160118   5.747   4.470  15.893  1.1139 -1.1227  0.1533
12901TIP3    H260119   5.739   4.489  16.043  1.0214 -0.8828  0.1180
12902TIP3   OH260120   0.692   3.944  17.245  0.3992  0.2159 -0.5730
12902TIP3    H160121   0.616   3.886  17.232  0.7407 -0.3773  0.0430
12902TIP3    H260122   0.658   4.031  17.226 -0.9855  0.2261  1.5963
12903TIP3   OH260123   2.576   1.276  15.844 -0.3132  0.4416 -0.2175
12903TIP3    H160124   2.651   1.335  15.835 -0.4940  0.6146 -0.5763
12903TIP3    H260125   2.511   1.327  15.894  0.1562 -0.0307  0.9079
12904TIP3   OH260126   6.207   6.105  13.392 -0.4020  0.4842  0.0727
12904TIP3    H160127   6.145   6.041  13.427 -0.6448  0.7133  0.0631
12904TIP3    H260128   6.152   6.172  13.351 -0.1572  0.8254  0.2957
12905TIP3   OH260129   0.516   5.955   4.515 -0.0191 -0.1360 -0.1722
12905TIP3    H160130   0.465   6.006   4.578  1.5622 -0.4391  1.4284
12905TIP3    H260131   0.460   5.881   4.492 -0.6325 -0.0068  0.8651
12906TIP3   OH260132   3.893   5.970   5.943  0.0790 -0.5361 -0.1553
12906TIP3    H160133   3.833   5.978   5.869  1.1401  0.6711 -0.9107
12906TIP3    H260134   3.856   6.027   6.010  0.7102  0.7798 -0.8790
12907TIP3   OH260135   2.577   4.757  13.655  0.1824  0.0801  0.2698
12907TIP3    H160136   2.668   4.730  13.641 -0.1087 -1.0335  0.4117
12907TIP3    H260137   2.553   4.718  13.739 -0.4915  0.1645  0.1231
12908TIP3   OH260138   0.906   2.849   1.972 -0.2350  0.8551 -0.1427
12908TIP3    H160139   0.865   2.769   2.006 -0.8540  1.6848  1.1414
12908TIP3    H260140   0.943   2.892   2.050  0.6297  1.5134 -0.9014
12909TIP3   OH260141   6.014   2.065  16.522  0.1625 -0.4494 -0.0757
12909TIP3    H160142   6.059   2.064  16.606  0.2757  1.0680 -0.0914
12909TIP3    H260143   5.921   2.074  16.544  0.1663 -0.3265 -0.1119
12910TIP3   OH260144   0.729   3.796   3.103  0.1637 -0.0737 -0.2969
12910TIP3    H160145   0.751   3.889   3.095  0.6355 -0.1176  0.4111
12910TIP3    H260146   0.696   3.787   3.192 -1.7126 -0.2276 -0.9501
12911TIP3   OH260147   2.463   5.684  12.594  0.2644 -0.0462 -0.0954
12911TIP3    H160148   2.451   5.763  12.542  0.8352  1.0939  1.4343
12911TIP3    H260149   2.532   5.636  12.550  3.4437  2.6813  1.4555
12912TIP3   OH260150   3.269   0.924   4.012 -0.1885  0.7292  0.2435
12912TIP3    H160151   3.234   0.998   3.963 -2.1279  0.0365  0.4823
12912TIP3    H260152   3.359   0.949   4.033 -1.0957  3.4965  1.2393
12913TIP3   OH260153   3.400   3.545   6.207 -0.0201  0.3573 -0.0453
12913TIP3    H160154   3.397   3.518   6.299  1.4288 -0.3531 -0.1924
12913TIP3    H260155   3.412   3.640   6.211 -1.7786  0.5987  0.4689
12914TIP3   OH260156   4.966   5.101  12.091  0.0410  0.0304  0.4270
12914TIP3    H160157   5.045   5.058  12.123  0.6465  1.2727  0.6606
12914TIP3    H260158   4.989   5.128  12.002 -0.8452 -1.3968 -0.2660
12915TIP3   OH260159   4.322   0.652  15.347 -0.3168  0.3925  0.0770
12915TIP3    H160160   4.369   0.732  15.369 -1.6190  1.0946  0.4348
12915TIP3    H260161   4.285   0.668  15.261 -0.0931 -0.0652 -0.1079
12916TIP3   OH260162   0.430   5.861   1.720 -0.3981 -0.1701  0.2797
12916TIP3    H160163   0.434   5.768   1.696  0.3522 -0.2045  0.5097
12916TIP3    H260164   0.507   5.899   1.678  0.1550  0.0431  1.4642
12917TIP3   OH260165   6.523   2.082  10.675  0.0007  0.0065 -0.0059
12917TIP3    H160166   6.585   2.154  10.663  1.3640 -1.1868 -0.4222
12917TIP3    H260167   6.573   2.015  10.721 -0.9166 -1.0857 -0.5531
12918TIP3   OH260168   4.315   2.486   3.757 -0.1521  0.4390 -0.2876
12918TIP3    H160169   4.333   2.579   3.767  1.4193  0.1647 -0.2093
12918TIP3    H260170   4.379   2.443   3.813 -1.0640 -0.6878 -0.0745
12919TIP3   OH260171   3.977   6.272  13.030  0.3318 -0.1734 -0.5547
12919TIP3    H160172   3.985   6.186  12.989  2.2800  1.1454 -3.2325
12919TIP3    H260173   4.012   6.333  12.966 -0.3308  2.5989  1.5054
12920TIP3   OH260174   0.189   0.125   3.167 -0.3403 -0.6160 -0.4551
12920TIP3    H160175   0.130   0.200   3.173  0.4955  0.0175  0.0467
12920TIP3    H260176   0.169   0.087   3.081 -0.5060  0.4167 -0.8983
12921TIP3   OH260177   3.486   4.769  14.889  0.2043  0.5129  1.3261
12921TIP3    H160178   3.490   4.737  14.798  1.6961  1.9954  0.8292
12921TIP3    H260179   3.577   4.785  14.912 -0.2841  1.5360  2.5930
12922TIP3   OH260180   4.010   3.640   1.501  0.1036 -0.0469 -0.0319
12922TIP3    H160181   3.984   3.686   1.581  1.7631 -0.1916  0.6430
12922TIP3    H260182   3.959   3.559   1.501  0.3043 -0.1798  1.0490
12923TIP3   OH260183   1.892   5.130  11.875  0.4565  0.2308 -0.0288
12923TIP3    H160184   1.950   5.111  11.801  2.1219  0.8174  1.0661
12923TIP3    H260185   1.869   5.222  11.865 -1.3525 -0.2774 -1.1155
12924TIP3   OH260186   0.785   5.596   3.549 -0.0629  0.2121 -0.3599
12924TIP3    H160187   0.870   5.555   3.534  1.4812  2.6736  0.9117
12924TIP3    H260188   0.751   5.555   3.628  0.6188  0.1647 -0.0877
12925TIP3   OH260189   0.142   1.106  13.552 -0.1808  0.4669 -0.1813
12925TIP3    H160190   0.220   1.120  13.607 -0.8187 -2.2509  1.5682
12925TIP3    H260191   0.116   1.195  13.527  0.7217  1.8525  3.1479
12926TIP3   OH260192   5.626   0.235   3.351 -0.4850  0.7337 -0.2124
12926TIP3    H160193   5.547   0.181   3.354  0.8982 -1.4156 -0.4212
12926TIP3    H260194   5.616   0.287   3.271 -0.6081 -1.3127 -1.5913
12927TIP3   OH260195   5.463   5.922   0.419  0.4631  0.3734 -0.0487
12927TIP3    H160196   5.443   5.932   0.325  1.4425  0.9430 -0.2092
12927TIP3    H260197   5.390   5.965   0.463 -0.2463 -0.3080 -0.5363
12928TIP3   OH260198   4.313   5.474  14.335 -0.4607 -0.4647 -0.0351
12928TIP3    H160199   4.243   5.418  14.302 -1.4159  0.2160  0.7731
12928TIP3    H260200   4.299   5.478  14.429 -1.6586  2.6291 -0.2108
12929TIP3   OH260201   3.141   5.988   1.282 -0.2323  0.4624 -0.0741
12929TIP3    H160202   3.103   5.974   1.369  0.6289  3.9038  1.0109
12929TIP3    H260203   3.227   5.946   1.287  0.4535  1.9341  1.3475
12930TIP3   OH260204   1.845   4.754  13.759  0.5424 -0.0512  0.2755
12930TIP3    H160205   1.847   4.773  13.853  0.2791  0.0844  0.2546
12930TIP3    H260206   1.783   4.818  13.723  1.3693  0.5393 -0.1323
12931TIP3   OH260207   2.893   3.116  13.460 -0.0626  0.1576  0.3707
12931TIP3    H160208   2.927   3.145  13.375  0.4282  1.7917  1.0801
12931TIP3    H260209   2.799   3.130  13.455 -0.1325 -0.4551 -0.1488
12932TIP3   OH260210   6.011   4.263   5.420 -0.0323  0.4436 -0.2186
12932TIP3    H160211   5.932   4.312   5.397 -1.6105 -2.1187 -0.7612
12932TIP3    H260212   6.015   4.265   5.515 -1.6340 -0.5872 -0.1017
12933TIP3   OH260213   2.507   1.571  16.513 -0.2119 -0.0982 -0.0261
12933TIP3    H160214   2.516   1.477  16.529  2.1218 -0.2885 -1.9407
12933TIP3    H260215   2.447   1.577  16.439  0.8641 -0.2020 -0.9184
12934TIP3   OH260216   2.055   4.002   2.351  0.1881  0.2379  0.1554
12934TIP3    H160217   2.028   4.028   2.439 -0.7403  0.4558 -0.1743
12934TIP3    H260218   2.022   4.073   2.295  0.2588 -0.1823 -0.4231
12935TIP3   OH260219   2.691   4.564  14.668  0.0460 -0.2120  0.3829
12935TIP3    H160220   2.620   4.560  14.605  0.5094  0.5917 -0.2181
12935TIP3    H260221   2.722   4.473  14.676 -1.1993 -0.6112  0.8629
12936TIP3   OH260222   4.055   1.757   1.773  0.0210 -0.2319 -0.0401
12936TIP3    H160223   4.046   1.663   1.787 -0.1254 -0.5178 -1.9249
12936TIP3    H260224   4.141   1.779   1.809  0.7617 -1.3926 -1.0766
12937TIP3   OH260225   2.975   1.240   2.041 -0.5086 -0.3929  0.0058
12937TIP3    H160226   2.941   1.162   1.997 -1.7390 -0.2021  0.5831
12937TIP3    H260227   3.061   1.214   2.072 -0.7103 -1.3693 -0.2165
12938TIP3   OH260228   0.493   0.765  15.979  0.2712  0.6904 -0.2380
12938TIP3    H160229   0.426   0.828  16.004  0.4337  0.8172 -0.1218
12938TIP3    H260230   0.524   0.796  15.893  1.1762  1.4446  0.3445
12939TIP3   OH260231   4.713   3.410   3.030 -0.0215  0.2579 -0.6238
12939TIP3    H160232   4.643   3.475   3.033  0.2247  0.5095 -0.3039
12939TIP3    H260233   4.779   3.449   2.973 -0.2394 -0.0801 -1.1132
12940TIP3   OH260234   2.417   0.260   0.031  0.8350  0.4599 -0.0833
12940TIP3    H160235   2.387   0.322  -0.035 -0.9147 -0.1657  0.0849
12940TIP3    H260236   2.440   0.181  -0.018 -1.1059 -0.2445  0.0398
12941TIP3   OH260237   0.046   4.522  11.837  0.3855  0.0935 -0.3255
12941TIP3    H160238   0.108   4.595  11.831  1.5303 -0.6214  1.8422
12941TIP3    H260239  -0.033   4.562  11.873  0.9793  0.3197  0.7809
12942TIP3   OH260240   6.444   3.622   1.562 -0.7103 -0.2560 -0.2102
12942TIP3    H160241   6.395   3.702   1.543 -1.5852 -0.7699 -0.1935
12942TIP3    H260242   6.465   3.586   1.477 -0.3239 -0.0165 -0.2177
12943TIP3   OH260243   1.275   4.140  14.522  0.4354  0.1359  0.4599
12943TIP3    H160244   1.235   4.200  14.585 -0.2255 -0.0444  0.2174
12943TIP3    H260245   1.253   4.176  14.437 -0.5174 -0.7849  0.2979
12944TIP3   OH260246   1.708   6.314  16.913 -0.0875  0.3592 -0.4862
12944TIP3    H160247   1.784   6.309  16.854  0.1319  1.5453 -0.3356
12944TIP3    H260248   1.635   6.279  16.861  0.9426 -3.0736  0.1701
12945TIP3   OH260249   6.390   6.709  11.707 -0.1957  0.1322  0.3953
12945TIP3    H160250   6.354   6.733  11.793  0.3046  0.9722  0.3866
12945TIP3    H260251   6.367   6.617  11.696 -2.7543  0.7132  0.1865
12946TIP3   OH260252   6.571   1.493   5.123  0.3257 -0.3137 -0.3409
12946TIP3    H160253   6.663   1.520   5.123  0.2574 -0.0022 -1.9395
12946TIP3    H260254   6.572   1.404   5.158  0.9749  0.4135  1.5962
12947TIP3   OH260255   4.076   3.741  12.995 -0.3381 -0.2696 -0.0441
12947TIP3    H160256   4.105   3.679  13.062 -0.3501  1.3813  1.5408
12947TIP3    H260257   4.147   3.741  12.931  1.0669  0.2406  1.4377
12948TIP3   OH260258   1.932   2.168   2.515 -0.3077  0.0177  0.0785
12948TIP3    H160259   1.976   2.174   2.430  1.1897  0.0051  0.8169
12948TIP3    H260260   1.881   2.249   2.521  0.6496  0.6711 -0.2711
12949TIP3   OH260261   2.279   5.120  10.748  0.1410 -1.1142  0.1034
12949TIP3    H160262   2.273   5.202  10.699  0.7406 -0.6046  0.8544
12949TIP3    H260263   2.372   5.106  10.760  0.1354 -2.8910 -1.5779
12950TIP3   OH260264   0.707   1.747   6.220  0.1117  0.0297  0.0971
12950TIP3    H160265   0.728   1.827   6.172  1.2265  0.8310  1.7944
12950TIP3    H260266   0.612   1.749   6.230 -0.0496  0.2631 -1.3054
12951TIP3   OH260267   1.020   6.531  12.426  0.3330 -0.3946 -0.2199
12951TIP3    H160268   1.029   6.461  12.362  0.0614 -0.3021 -0.3642
12951TIP3    H260269   1.019   6.487  12.511 -0.3033 -0.6100 -0.3347
12952TIP3   OH260270   5.985   0.740  13.910 -0.4989 -0.1794  0.0215
12952TIP3    H160271   6.028   0.734  13.995 -0.1443  1.5301  0.0097
12952TIP3    H260272   6.056   0.728  13.846 -0.3701  0.6503 -0.0048
12953TIP3   OH260273   6.455   3.665  12.673 -0.6642 -0.2379 -0.5643
12953TIP3    H160274   6.514   3.611  12.727 -0.2731  0.9664  0.2550
12953TIP3    H260275   6.495   3.665  12.586 -0.6496 -1.2231 -0.5662
12954TIP3   OH260276   4.335   6.507   5.406  0.3011  0.5333  0.2167
12954TIP3    H160277   4.379   6.510   5.320 -1.7121  1.6684 -0.8481
12954TIP3    H260278   4.250   6.549   5.391 -1.1859 -1.5385  2.1514
12955TIP3   OH260279   2.442   0.053   5.473  0.1769 -0.1712 -0.0231
12955TIP3    H160280   2.418   0.111   5.545 -0.3988  0.1258 -0.4388
12955TIP3    H260281   2.532   0.026   5.491  0.2317  0.3612  0.4978
12956TIP3   OH260282   6.590   5.588   0.055 -0.1523 -0.2743 -0.4590
12956TIP3    H160283   6.644   5.511   0.071  0.5303 -0.5175 -3.2624
12956TIP3    H260284   6.500   5.555   0.059  0.0055 -0.5750  1.0755
12957TIP3   OH260285   0.558   2.291   3.069  0.3295 -0.6963  0.1276
12957TIP3    H160286   0.586   2.301   3.160 -1.2249  1.4532  0.4397
12957TIP3    H260287   0.490   2.223   3.073  1.7930 -2.2335  0.1522
12958TIP3   OH260288   5.373   3.675   4.156 -0.2140  0.3848 -0.2399
12958TIP3    H160289   5.359   3.657   4.063 -0.4344  0.6145 -0.2526
12958TIP3    H260290   5.285   3.685   4.192 -0.1938 -1.0271  0.2673
12959TIP3   OH260291   4.890   1.773   1.434  0.1592 -0.2474  0.0338
12959TIP3    H160292   4.972   1.755   1.387 -0.7001 -0.3744 -1.4727
12959TIP3    H260293   4.829   1.707   1.403 -0.9136  0.6954  0.0576
12960TIP3   OH260294   1.544   2.563   5.675 -0.7688 -0.3668 -0.2089
12960TIP3    H160295   1.492   2.483   5.682 -0.0725 -0.7529  0.6945
12960TIP3    H260296   1.480   2.632   5.660 -1.4989 -0.9097  0.3302
12961TIP3   OH260297   5.370   1.407   6.370 -0.1324 -0.0281  0.4450
12961TIP3    H160298   5.459   1.410   6.337 -0.3804  0.6335 -0.1992
12961TIP3    H260299   5.371   1.339   6.437  0.9407  0.2511  0.7236
12962TIP3   OH260300   2.815   6.026   2.120 -0.3952 -0.3016 -0.1098
12962TIP3    H160301   2.822   5.996   2.029 -0.4537 -0.6271 -0.0090
12962TIP3    H260302   2.905   6.043   2.147 -0.1208 -2.3360  0.4739
12963TIP3   OH260303   1.970   4.333   5.506  0.6912  0.3330  0.0775
12963TIP3    H160304   1.893   4.300   5.459  0.0499  1.0582  0.5944
12963TIP3    H260305   1.974   4.280   5.586 -0.7422  1.8612  1.2428
12964TIP3   OH260306   5.668   2.418   4.979 -0.3472  0.2374  0.4892
12964TIP3    H160307   5.576   2.393   4.971 -0.3373  0.6166 -1.3238
12964TIP3    H260308   5.680   2.435   5.073 -2.5559  1.7305  0.5917
12965TIP3   OH260309   6.706   3.323  11.408  0.1878 -0.2800  0.1067
12965TIP3    H160310   6.618   3.301  11.378  0.2665  1.7160 -1.8051
12965TIP3    H260311   6.701   3.314  11.504 -1.3967 -2.3981 -0.1066
12966TIP3   OH260312   6.308   3.585  15.105 -0.5176 -0.2911  0.1527
12966TIP3    H160313   6.392   3.630  15.120 -0.7410 -0.7043  3.5429
12966TIP3    H260314   6.243   3.655  15.106 -0.3946 -0.1667 -0.3695
12967TIP3   OH260315   4.384   4.922   4.083 -0.6450  0.6992  0.3262
12967TIP3    H160316   4.474   4.953   4.095  0.2790 -1.8178  0.5010
12967TIP3    H260317   4.336   4.955   4.159  0.6016  0.5654  1.1974
12968TIP3   OH260318   6.478   0.792   0.688  0.5981 -0.1317 -0.2642
12968TIP3    H160319   6.544   0.730   0.718  0.8849  0.4055  0.2298
12968TIP3    H260320   6.504   0.813   0.599 -0.4750 -2.0369 -1.0956
12969TIP3   OH260321   4.979   4.294   4.844 -0.1989 -0.4258 -0.3189
12969TIP3    H160322   4.981   4.210   4.890 -2.2088  0.9338  2.5738
12969TIP3    H260323   4.887   4.309   4.824 -0.0530  1.5072  0.1780
12970TIP3   OH260324   5.792   1.277  15.329 -0.1821  0.4782  0.0121
12970TIP3    H160325   5.764   1.300  15.241 -1.8418 -0.0703  0.3607
12970TIP3    H260326   5.742   1.198  15.350 -0.8309  1.3483  1.9319
12971TIP3   OH260327   5.175   3.243   6.162  0.5668 -0.1294 -0.2138
12971TIP3    H160328   5.120   3.273   6.233  0.6013 -0.6071  0.0194
12971TIP3    H260329   5.253   3.298   6.167  0.6253 -0.2478  0.1978
12972TIP3   OH260330   2.432   6.702  13.249 -0.1581 -0.6770  0.4469
12972TIP3    H160331   2.515   6.744  13.272 -0.5282 -0.1988  0.9263
12972TIP3    H260332   2.442   6.612  13.280 -0.1636 -0.3777  1.3604
12973TIP3   OH260333   6.515   3.000  17.141  0.1164 -0.5104 -0.1940
12973TIP3    H160334   6.448   2.935  17.115 -1.6364  0.7584  0.8984
12973TIP3    H260335   6.520   3.060  17.067  1.0777 -1.3371 -0.8316
12974TIP3   OH260336   5.450   2.394   2.150  0.1414  0.0234  0.4032
12974TIP3    H160337   5.520   2.355   2.201 -0.2312  1.5279  2.1539
12974TIP3    H260338   5.486   2.478   2.120 -0.4319  0.1688  0.1090
12975TIP3   OH260339   1.953   5.127  12.566  0.3486  0.3940 -0.2240
12975TIP3    H160340   1.914   5.039  12.566  0.2681  0.4098  0.9148
12975TIP3    H260341   1.938   5.160  12.655  1.0745  1.2500 -0.3976
12976TIP3   OH260342   1.489   5.887  17.196 -0.1083  0.1158 -0.1883
12976TIP3    H160343   1.453   5.857  17.113 -0.9432 -0.5144  0.3758
12976TIP3    H260344   1.482   5.810  17.254 -0.4967  0.8350  0.7465
12977TIP3   OH260345   1.429   3.808   1.987 -0.2110 -0.3836  0.0873
12977TIP3    H160346   1.505   3.851   2.025 -0.0017 -0.1875 -0.5417
12977TIP3    H260347   1.465   3.745   1.925 -0.5608  0.3507 -0.9005
12978TIP3   OH260348   0.353   0.588  15.633  0.3181  0.4430  0.0011
12978TIP3    H160349   0.415   0.522  15.603  0.2781  0.5601 -0.3434
12978TIP3    H260350   0.395   0.672  15.614  0.0688  0.5219 -0.2134
12979TIP3   OH260351   2.469   2.890  17.045 -0.0852  0.0420 -0.2825
12979TIP3    H160352   2.434   2.812  17.088 -3.0204 -0.1217 -2.6401
12979TIP3    H260353   2.497   2.858  16.959 -0.5275  1.4081 -0.9568
12980TIP3   OH260354   5.152   4.193  14.238  0.0812 -0.0422  0.2582
12980TIP3    H160355   5.215   4.121  14.236 -1.1542 -1.1333 -1.6255
12980TIP3    H260356   5.109   4.190  14.153 -1.8970  1.2211  1.1473
12981TIP3   OH260357   0.113   1.959  15.579 -0.2435 -0.0692  0.1321
12981TIP3    H160358   0.167   1.990  15.652 -0.0435 -0.0523 -0.0222
12981TIP3    H260359   0.034   1.924  15.621  0.8825 -2.2977  0.5663
12982TIP3   OH260360   3.180   4.864   3.449 -0.1265 -0.1984 -0.0270
12982TIP3    H160361   3.231   4.938   3.416  1.2452 -0.6278  1.0533
12982TIP3    H260362   3.154   4.890   3.537  0.8812 -1.2224  0.5965
12983TIP3   OH260363   4.391   5.733   3.572 -0.3353 -0.3091  0.1836
12983TIP3    H160364   4.356   5.656   3.617 -0.4681 -0.3513  0.0084
12983TIP3    H260365   4.367   5.720   3.481  1.2275 -0.9658 -0.1670
12984TIP3   OH260366   2.739   1.222   0.521 -0.4942 -0.2404 -0.0659
12984TIP3    H160367   2.824   1.201   0.561 -2.1712 -2.2467  2.9121
12984TIP3    H260368   2.734   1.166   0.444  0.2331 -1.4291  0.7171
12985TIP3   OH260369   1.245   4.248   3.947  0.4226 -0.1966  0.5230
12985TIP3    H160370   1.325   4.235   3.998  0.6630  2.0349  0.8350
12985TIP3    H260371   1.195   4.168   3.959  3.7566 -2.9933 -1.9439
12986TIP3   OH260372   4.888   2.017   5.175 -0.3283 -1.0696  0.1777
12986TIP3    H160373   4.980   1.993   5.189 -0.1070 -0.7579 -0.6539
12986TIP3    H260374   4.879   2.020   5.079 -0.1009  2.9223  0.1214
12987TIP3   OH260375   3.136   3.164   2.143 -0.2466  0.6003  0.1210
12987TIP3    H160376   3.107   3.167   2.051 -0.2494  1.7375  0.1488
12987TIP3    H260377   3.211   3.223   2.146 -0.4205  0.7934  0.9108
12988TIP3   OH260378   6.202   2.988  12.470 -0.3588  0.2567  0.1335
12988TIP3    H160379   6.288   3.020  12.443  0.1789  0.7130  2.2203
12988TIP3    H260380   6.163   2.954  12.390  1.7447  0.0545 -0.8716
12989TIP3   OH260381   6.659   6.286   6.415  0.1399 -0.5145  0.1269
12989TIP3    H160382   6.655   6.280   6.511 -1.5164  2.3486  0.3467
12989TIP3    H260383   6.573   6.257   6.386  0.0064  0.3009 -0.3293
12990TIP3   OH260384   3.006   1.023   5.776 -0.1810  0.4457  0.2739
12990TIP3    H160385   3.101   1.011   5.765 -0.0871  0.7292  0.7508
12990TIP3    H260386   2.985   1.094   5.715  0.1110  1.1247  0.9453
12991TIP3   OH260387   3.309   0.497  14.804  0.4297 -0.6747  0.0015
12991TIP3    H160388   3.308   0.408  14.839 -1.1949 -0.8231 -0.3767
12991TIP3    H260389   3.348   0.549  14.874 -0.0433 -1.4335  0.8529
12992TIP3   OH260390   6.107   0.152  14.038  0.1578  0.4256  0.1423
12992TIP3    H160391   6.017   0.119  14.047  0.3836  0.0074  0.8935
12992TIP3    H260392   6.123   0.150  13.944 -0.9351  1.3417 -0.0884
12993TIP3   OH260393   2.155   5.479   2.531  0.2439  0.1289  0.1816
12993TIP3    H160394   2.208   5.493   2.452  0.9060  1.8694  0.8815
12993TIP3    H260395   2.068   5.512   2.507  0.3627  0.3688  0.0758
12994TIP3   OH260396   1.681   1.966   0.337 -0.4674 -0.2184 -0.8166
12994TIP3    H160397   1.615   1.965   0.268 -0.8814 -3.1250 -0.4773
12994TIP3    H260398   1.760   1.934   0.296  0.0969  0.8289 -0.5967
12995TIP3   OH260399   4.032   3.852   1.223  0.3876 -0.2141 -0.4510
12995TIP3    H160400   4.083   3.933   1.222 -1.2371  0.8489 -0.4555
12995TIP3    H260401   3.997   3.846   1.311  0.2325 -0.7513 -0.5447
12996TIP3   OH260402   2.670   2.909   5.954  0.5341  0.6751 -0.8512
12996TIP3    H160403   2.668   2.913   6.050  2.0616 -1.2728 -0.6604
12996TIP3    H260404   2.603   2.845   5.932  0.8030  0.4401 -0.9967
12997TIP3   OH260405   2.181   2.481   5.292 -0.7422 -0.2178  0.6573
12997TIP3    H160406   2.232   2.487   5.211 -1.6711 -0.8638 -0.0007
12997TIP3    H260407   2.210   2.400   5.333 -1.3333 -0.6621  0.2084
12998TIP3   OH260408   0.611   0.827  14.716  0.3186 -0.5306 -0.1458
12998TIP3    H160409   0.688   0.775  14.736  0.7669 -0.2988 -1.1740
12998TIP3    H260410   0.642   0.918  14.720 -0.0623 -0.4109  0.0891
12999TIP3   OH260411   5.138   4.038   1.014  0.3416 -0.0868  0.0841
12999TIP3    H160412   5.072   3.974   0.985  0.4596 -0.0605 -0.2531
12999TIP3    H260413   5.214   3.985   1.036  1.0005  0.0213 -1.7318
13000TIP3   OH260414   2.893   1.283  15.277  0.2716 -0.1563 -0.5277
13000TIP3    H160415   2.869   1.192  15.259  0.5002  0.0894 -2.3622
13000TIP3    H260416   2.988   1.286  15.263  0.0174  0.7076 -2.3707
13001TIP3   OH260417   6.369   3.336  12.104 -0.4950  0.6566 -0.0163
13001TIP3    H160418   6.357   3.400  12.174  1.0679  0.0782  0.8236
13001TIP3    H260419   6.430   3.377  12.043 -0.2353  0.3470  0.0322
13002TIP3   OH260420   6.697   0.957   6.620  0.3830 -0.0471  0.1005
13002TIP3    H160421   6.644   0.978   6.697 -2.1776 -1.1088 -1.2439
13002TIP3    H260422   6.666   1.017   6.552  1.1539 -0.4645 -0.6412
13003TIP3   OH260423   2.906   1.509  14.900  0.2379  0.6615 -0.0943
13003TIP3    H160424   2.974   1.539  14.840  0.0407  0.6786 -0.3134
13003TIP3    H260425   2.828   1.502  14.845  0.3182 -0.4280 -0.0977
13004TIP3   OH260426   5.736   5.492  11.725  0.3540  0.6521 -0.8544
13004TIP3    H160427   5.757   5.577  11.686  0.7418  1.1132  0.3149
13004TIP3    H260428   5.821   5.457  11.754  0.0753  0.3161 -0.4330
13005TIP3   OH260429   3.719   4.351  12.044  0.3004 -0.5906 -0.1184
13005TIP3    H160430   3.720   4.437  12.002 -1.8292 -0.0562  0.7851
13005TIP3    H260431   3.652   4.301  11.997 -0.7615 -0.6254  1.3445
13006TIP3   OH260432   1.183   0.382  10.544  0.2447  0.6179  0.7405
13006TIP3    H160433   1.142   0.307  10.587 -0.8363  0.2174 -0.8830
13006TIP3    H260434   1.233   0.344  10.472  3.2922  1.1388  2.4358
13007TIP3   OH260435   5.295   2.603   3.840  0.5665 -0.0631 -1.4496
13007TIP3    H160436   5.378   2.558   3.859  0.6106  0.3135 -0.7197
13007TIP3    H260437   5.315   2.696   3.849 -0.0121  0.0180 -0.9268
13008TIP3   OH260438   0.304   0.716   2.184 -0.1890 -0.5358 -0.7442
13008TIP3    H160439   0.373   0.721   2.118  1.3534 -0.1466  0.8217
13008TIP3    H260440   0.264   0.630   2.170  0.1495 -0.4873 -2.1185
13009TIP3   OH260441   3.794   1.621   1.205 -0.0716  0.3150 -0.2545
13009TIP3    H160442   3.710   1.590   1.241  0.3008  0.5833  0.8697
13009TIP3    H260443   3.860   1.584   1.264  0.5473  0.8586 -0.6052
13010TIP3   OH260444   1.820   0.398   3.014  0.0452  0.1812  0.5772
13010TIP3    H160445   1.854   0.317   2.977 -2.0652 -0.5789  0.1461
13010TIP3    H260446   1.866   0.409   3.097  1.3758 -0.6900 -0.0288
13011TIP3   OH260447   1.553   3.396  12.599 -0.6975  0.2731 -0.3096
13011TIP3    H160448   1.528   3.368  12.687 -1.9331 -2.5909 -1.4474
13011TIP3    H260449   1.649   3.400  12.601 -0.7072  0.2104  1.1307
13012TIP3   OH260450   2.154   5.545   0.144 -0.1921 -0.1954 -0.3182
13012TIP3    H160451   2.139   5.617   0.206  2.0906 -0.0291  0.1455
13012TIP3    H260452   2.170   5.469   0.199 -2.7455 -1.1674 -0.8151
13013TIP3   OH260453   3.653   3.661   5.934 -0.4988 -0.2800  0.0747
13013TIP3    H160454   3.562   3.690   5.943  0.0936  1.8225 -0.2338
13013TIP3    H260455   3.657   3.579   5.985 -2.4142 -0.1384  0.5244
13014TIP3   OH260456   3.338   5.063  12.104 -0.1570 -0.5559  0.0299
13014TIP3    H160457   3.327   5.004  12.030 -0.2498 -2.1673  1.2803
13014TIP3    H260458   3.426   5.044  12.137 -0.4138 -0.4392  0.8093
13015TIP3   OH260459   4.481   1.376  11.979 -0.1093 -0.6244  0.2583
13015TIP3    H160460   4.564   1.420  11.992  0.0314 -0.5823 -0.7644
13015TIP3    H260461   4.444   1.415  11.901 -0.9225 -0.9040  0.4881
13016TIP3   OH260462   4.931   3.056  16.104  0.8067  0.3749 -0.0884
13016TIP3    H160463   4.840   3.068  16.079  0.3538 -0.7081  0.9578
13016TIP3    H260464   4.942   3.112  16.182 -0.1260 -2.3671  2.1915
13017TIP3   OH260465   3.850   4.463   4.801  0.6399  0.5367 -0.2670
13017TIP3    H160466   3.834   4.400   4.871  0.7087  1.5097  0.6518
13017TIP3    H260467   3.802   4.428   4.726 -0.4417  0.0796  0.6114
13018TIP3   OH260468   5.744   2.389   5.246 -0.2385 -0.3665 -0.4502
13018TIP3    H160469   5.788   2.306   5.229  0.6963  0.0421 -0.1590
13018TIP3    H260470   5.808   2.439   5.297 -1.9650 -0.6689  2.2614
13019TIP3   OH260471   1.002   1.439  17.114  0.4627  0.0509 -0.4684
13019TIP3    H160472   1.074   1.387  17.078  0.7747 -0.4319  0.8294
13019TIP3    H260473   0.966   1.485  17.038  0.1905 -2.0123 -1.6793
13020TIP3   OH260474   5.447   2.208  12.071 -0.4416  0.0651  0.2199
13020TIP3    H160475   5.416   2.220  11.982 -1.0015 -1.6410  0.1396
13020TIP3    H260476   5.520   2.146  12.064 -0.8991 -0.5927  0.9740
13021TIP3   OH260477   6.630   3.821   0.915  0.0661  0.0408 -0.2071
13021TIP3    H160478   6.564   3.812   0.846  1.9950 -0.3345 -2.1129
13021TIP3    H260479   6.705   3.770   0.884  1.0881 -0.0151  2.1233
13022TIP3   OH260480   5.650   0.622   0.984 -0.0793  0.1163 -0.0709
13022TIP3    H160481   5.664   0.666   0.900  0.4253 -0.0994 -0.1036
13022TIP3    H260482   5.735   0.584   1.006 -0.3869 -0.4506  0.1806
13023TIP3   OH260483   0.888   1.619  11.885  0.0778 -0.3077  0.1107
13023TIP3    H160484   0.969   1.668  11.874  1.8116 -3.1304 -0.5278
13023TIP3    H260485   0.915   1.531  11.911 -2.7126 -1.6679 -1.0729
13024TIP3   OH260486   2.186   3.849   0.994 -0.0359  0.3168 -0.0692
13024TIP3    H160487   2.110   3.841   1.051 -0.0497  0.0858 -0.1188
13024TIP3    H260488   2.261   3.833   1.051 -0.1314 -2.7202 -0.5889
13025TIP3   OH260489   4.925   1.270   4.382  0.3669 -0.8402 -0.1145
13025TIP3    H160490   4.860   1.206   4.410  0.4770 -0.4633  1.0437
13025TIP3    H260491   4.882   1.354   4.393  0.2915 -0.6832 -1.4442
13026TIP3   OH260492   5.606   0.910   1.079  0.3124 -0.2052 -0.3299
13026TIP3    H160493   5.626   0.831   1.030  0.9557  0.1363 -0.6361
13026TIP3    H260494   5.677   0.917   1.144  0.4147  0.2519 -0.4827
13027TIP3   OH260495   6.221   4.150   4.609 -0.8381 -0.4700 -0.0767
13027TIP3    H160496   6.274   4.230   4.611 -1.4505  0.0260 -1.6981
13027TIP3    H260497   6.133   4.180   4.585 -1.3857 -1.5034  0.5719
13028TIP3   OH260498   1.141   2.438  15.574  0.1747  0.5741 -0.1779
13028TIP3    H160499   1.142   2.430  15.670 -0.7575  0.8157 -0.1423
13028TIP3    H260500   1.192   2.363  15.543 -0.2406  0.0134  0.4764
13029TIP3   OH260501   3.159   0.820   5.388 -0.0610 -0.2514 -0.1707
13029TIP3    H160502   3.234   0.849   5.336  0.8187 -1.7886  0.1927
13029TIP3    H260503   3.188   0.827   5.479 -0.4569 -0.5834 -0.0139
13030TIP3   OH260504   2.963   4.349   2.063 -0.0812  0.6418 -0.4458
13030TIP3    H160505   3.011   4.272   2.035 -0.2535  0.3436  0.0719
13030TIP3    H260506   2.939   4.393   1.981 -2.1420 -1.1531 -0.8949
13031TIP3   OH260507   4.186   1.239   3.081 -0.1654  0.1802  0.0808
13031TIP3    H160508   4.242   1.286   3.019 -0.4295 -0.6679 -0.8282
13031TIP3    H260509   4.177   1.299   3.155  0.1422  1.2290 -0.7071
13032TIP3   OH260510   3.699   1.261   1.124 -0.8333  0.4875 -0.6047
13032TIP3    H160511   3.615   1.249   1.081 -0.5717  2.0938 -1.6576
13032TIP3    H260512   3.689   1.343   1.173 -0.2845  0.0348  0.2877
13033TIP3   OH260513   0.460   1.552  17.035  0.2412  0.3009  0.2341
13033TIP3    H160514   0.495   1.610  16.967 -0.5477  1.6969  0.9764
13033TIP3    H260515   0.437   1.611  17.107 -0.9882 -0.8970  0.8510
13034TIP3   OH260516   0.615   0.928  13.304  0.1982 -0.4967 -0.2708
13034TIP3    H160517   0.708   0.939  13.326 -0.3191 -0.1729  1.8832
13034TIP3    H260518   0.593   0.841  13.336 -0.5634 -0.0635  0.3886
13035TIP3   OH260519   1.906   1.360   4.563  0.2794  0.9101  0.0628
13035TIP3    H160520   1.857   1.278   4.566  2.1553 -0.3511  4.3508
13035TIP3    H260521   1.970   1.347   4.492  1.2839 -1.9673  1.3250
13036TIP3   OH260522   0.945   5.799  10.929 -0.5654 -0.0594  0.4101
13036TIP3    H160523   0.950   5.871  10.865  2.2397 -0.4026  0.0944
13036TIP3    H260524   0.951   5.720  10.876 -2.6244 -0.5373  0.8363
13037TIP3   OH260525   5.942   1.027   0.186 -0.7534 -0.0246 -0.6441
13037TIP3    H160526   6.022   1.013   0.236 -0.8321 -0.1543 -0.5541
13037TIP3    H260527   5.881   0.962   0.219 -1.6741  1.5665  0.9741
13038TIP3   OH260528   3.873   5.121  13.050  0.2766 -0.6094 -0.2356
13038TIP3    H160529   3.850   5.129  12.957 -1.3275 -0.9359  0.0959
13038TIP3    H260530   3.964   5.094  13.050  0.1655 -1.0934 -1.7242
13039TIP3   OH260531   1.820   5.458  12.542  0.1728 -0.1028 -0.4218
13039TIP3    H160532   1.822   5.381  12.599 -0.4894 -0.1006 -0.3864
13039TIP3    H260533   1.900   5.505  12.562 -0.5156  0.4235  1.2510
13040TIP3   OH260534   5.708   2.277   3.448  0.2951 -0.0798 -0.0708
13040TIP3    H160535   5.659   2.237   3.518 -0.3640  0.1454 -0.3983
13040TIP3    H260536   5.748   2.204   3.401 -1.1083 -0.3939 -0.8232
13041TIP3   OH260537   4.355   0.947  15.414  0.1346  0.0735  0.3291
13041TIP3    H160538   4.448   0.950  15.393  0.3865 -1.8067  1.0416
13041TIP3    H260539   4.316   1.011  15.354  1.9187  1.3171  0.4050
13042TIP3   OH260540   5.459   3.859   4.573 -0.3944  0.2057 -0.0550
13042TIP3    H160541   5.390   3.794   4.563  1.4881 -2.3778  2.3427
13042TIP3    H260542   5.419   3.928   4.627 -0.8125 -2.0107  2.7083
13043TIP3   OH260543   0.839   0.328   3.245  0.0561 -0.3862 -0.0593
13043TIP3    H160544   0.768   0.267   3.225  2.0942 -2.4247 -1.5568
13043TIP3    H260545   0.862   0.366   3.160  0.1629  1.0071  0.5604
13044TIP3   OH260546   0.422   3.834  12.169  0.4426  0.2645  0.0282
13044TIP3    H160547   0.351   3.798  12.116  1.2758 -2.8745  0.8332
13044TIP3    H260548   0.398   3.813  12.259  1.4888  0.9262  0.4832
13045TIP3   OH260549   2.517   2.447  13.822  0.4800 -0.0308 -0.1527
13045TIP3    H160550   2.503   2.356  13.848 -0.7071 -0.2888 -1.5935
13045TIP3    H260551   2.602   2.446  13.779  0.8726 -0.2633  0.5955
13046TIP3   OH260552   6.133   4.788   3.651 -0.3173 -0.1436  0.5336
13046TIP3    H160553   6.085   4.726   3.597 -0.3330  0.7940 -0.5699
13046TIP3    H260554   6.071   4.858   3.670 -0.2690 -0.3924  1.6685
13047TIP3   OH260555   0.026   1.114   2.903  0.1692 -0.2359 -0.5063
13047TIP3    H160556  -0.035   1.053   2.863 -0.9027  1.8441 -2.2312
13047TIP3    H260557  -0.013   1.134   2.989 -1.7364  1.1310 -1.6134
13048TIP3   OH260558   3.281   6.234   0.252 -0.1064 -0.2387  0.5817
13048TIP3    H160559   3.300   6.322   0.220 -0.7957  0.3954  1.8554
13048TIP3    H260560   3.299   6.237   0.346 -0.6188 -1.3122  0.7395
13049TIP3   OH260561   5.104   1.521   0.756 -0.2353  0.5575  0.8561
13049TIP3    H160562   5.033   1.585   0.751 -0.7372 -0.0739 -0.8403
13049TIP3    H260563   5.061   1.440   0.782 -0.1747  0.1575 -0.2428
13050TIP3   OH260564   6.550   2.041  13.621 -0.1320 -0.1621  0.1075
13050TIP3    H160565   6.555   1.992  13.703  0.7673  2.2445  1.6067
13050TIP3    H260566   6.640   2.044  13.589  0.6909  3.5202  2.1101
13051TIP3   OH260567   0.785   6.339   1.539 -0.4143  0.4158 -0.9352
13051TIP3    H160568   0.864   6.363   1.491  0.2201 -1.8425 -1.1482
13051TIP3    H260569   0.716   6.341   1.473  0.0791 -0.6756 -1.5102
13052TIP3   OH260570   4.944   2.236  11.415 -0.4931  0.5653  0.0195
13052TIP3    H160571   4.888   2.227  11.492 -1.0457 -1.1905 -0.5507
13052TIP3    H260572   4.892   2.289  11.354 -0.4748  1.0811  0.4421
13053TIP3   OH260573   1.121   4.526   3.596 -0.1655  0.2087 -0.4636
13053TIP3    H160574   1.096   4.484   3.678  0.0423  1.7718  0.4462
13053TIP3    H260575   1.039   4.564   3.563  0.0817  1.2656  0.0727
13054TIP3   OH260576   4.540   4.987  16.668 -0.3323 -0.0272 -0.4078
13054TIP3    H160577   4.550   5.009  16.575  1.3008 -1.0418 -0.4959
13054TIP3    H260578   4.459   4.936  16.672 -0.2687 -0.2066 -1.3059
13055TIP3   OH260579   2.973   3.017   1.646 -0.9450 -0.0987  0.0265
13055TIP3    H160580   2.916   3.095   1.650  0.1168  0.7680 -0.9981
13055TIP3    H260581   2.956   2.980   1.559  0.1168  0.2391 -0.3391
13056TIP3   OH260582   1.363   5.279   5.930 -0.9173  0.4117 -0.0700
13056TIP3    H160583   1.445   5.231   5.917 -0.6101  0.5357  1.2688
13056TIP3    H260584   1.299   5.211   5.951 -0.6846  0.4959  0.9350
13057TIP3   OH260585   3.278   3.509  13.906 -0.2926 -0.1729 -0.2421
13057TIP3    H160586   3.236   3.464  13.979  1.2658 -1.5091 -0.1193
13057TIP3    H260587   3.346   3.562  13.946 -1.2785  1.3723 -0.5115
13058TIP3   OH260588   3.037   3.498  10.352 -0.1623  0.2179  0.4263
13058TIP3    H160589   2.978   3.424  10.368  0.0831 -0.2998 -0.8898
13058TIP3    H260590   2.982   3.564  10.310 -0.3450  0.7410  1.4553
13059TIP3   OH260591   5.279   4.650   2.312  0.0948  0.1719  0.2802
13059TIP3    H160592   5.283   4.734   2.265 -0.7151 -0.8457 -1.7117
13059TIP3    H260593   5.359   4.605   2.287 -0.0697 -0.1535  0.3381
13060TIP3   OH260594   3.260   2.610   0.457  0.0111  0.1493 -0.1873
13060TIP3    H160595   3.201   2.535   0.465  0.8771 -0.4926  0.4759
13060TIP3    H260596   3.223   2.662   0.386 -1.2874 -0.2787  0.1419
13061TIP3   OH260597   0.570   1.386   4.416  0.0839 -0.4185 -0.6351
13061TIP3    H160598   0.476   1.371   4.421  0.0290  0.2686  0.5726
13061TIP3    H260599   0.579   1.481   4.407  0.6927 -0.2811  1.0435
13062TIP3   OH260600   2.020   6.242   6.522  0.4122 -0.6669 -0.1232
13062TIP3    H160601   1.939   6.276   6.485  0.5822  0.3742  0.4448
13062TIP3    H260602   2.085   6.310   6.506  0.8860 -0.9459  0.5367
13063TIP3   OH260603   6.642   0.509  12.204 -0.7049  0.3417 -0.5155
13063TIP3    H160604   6.552   0.522  12.173 -1.1849  1.5650  1.1755
13063TIP3    H260605   6.647   0.564  12.283  1.7938  0.9519 -1.0325
13064TIP3   OH260606   1.653   1.187   3.607  0.0602  0.0683 -0.0779
13064TIP3    H160607   1.723   1.252   3.613  0.4895 -0.3983  0.0346
13064TIP3    H260608   1.683   1.114   3.660  0.1571 -0.7388 -1.1985
13065TIP3   OH260609   2.261   4.233  15.146 -0.2958  0.4587  0.2744
13065TIP3    H160610   2.285   4.194  15.230 -2.1144 -0.3570  0.4759
13065TIP3    H260611   2.226   4.319  15.169  0.4229  0.7798  0.1966
13066TIP3   OH260612   3.381   4.670   3.839  0.4973  0.0036 -0.1701
13066TIP3    H160613   3.375   4.668   3.744  0.2553  0.1215 -0.1578
13066TIP3    H260614   3.307   4.724   3.867  1.2238  0.9388  0.0207
13067TIP3   OH260615   1.564   0.819  16.179  0.1434  0.7657 -0.0052
13067TIP3    H160616   1.508   0.896  16.169 -1.2173 -0.0487  1.0157
13067TIP3    H260617   1.653   0.853  16.169 -0.4952  2.1394 -1.4160
13068TIP3   OH260618   4.478   5.043   5.289  0.3119  0.5998  0.2123
13068TIP3    H160619   4.401   5.078   5.244 -0.6681 -0.1068  1.2721
13068TIP3    H260620   4.463   4.949   5.293  0.4363  0.6119  1.7981
13069TIP3   OH260621   0.564   3.376  11.733  0.0094  0.5148 -0.2968
13069TIP3    H160622   0.597   3.287  11.733 -1.8460 -0.2016 -0.7230
13069TIP3    H260623   0.591   3.412  11.649 -1.6005 -0.5917 -1.3290
13070TIP3   OH260624   2.348   1.774   4.496  0.4675  0.3621  0.0976
13070TIP3    H160625   2.277   1.838   4.506 -0.4860 -0.7470  0.6775
13070TIP3    H260626   2.304   1.690   4.496  1.7539 -0.3292 -0.1171
13071TIP3   OH260627   1.744   4.932  11.024  0.8212  0.0297 -0.7512
13071TIP3    H160628   1.809   4.884  11.075  2.3893  0.9157 -1.8490
13071TIP3    H260629   1.702   4.865  10.969 -1.8986 -1.2114  2.5020
13072TIP3   OH260630   2.965   6.042  11.831  0.3012  0.3536 -0.5232
13072TIP3    H160631   2.955   6.135  11.853 -0.6918 -0.1099  1.1641
13072TIP3    H260632   2.886   6.020  11.782  1.0536  0.6319 -1.9085
13073TIP3   OH260633   1.061   5.564  13.766 -0.1362 -0.0855 -0.3011
13073TIP3    H160634   1.143   5.608  13.791 -0.5199  0.5971 -0.2022
13073TIP3    H260635   1.058   5.572  13.671 -0.8989  1.4173 -0.1842
13074TIP3   OH260636   1.367   4.961  12.751  0.9759  0.3677  0.5261
13074TIP3    H160637   1.365   4.934  12.659 -1.2217  1.1578  0.2733
13074TIP3    H260638   1.456   4.990  12.766  1.2429  0.7621 -1.5348
13075TIP3   OH260639   3.360   6.100   3.084  0.5492  0.2831 -0.1962
13075TIP3    H160640   3.272   6.129   3.062  0.2482 -0.8156 -0.4932
13075TIP3    H260641   3.414   6.180   3.079 -0.3981  0.9461 -0.0955
13076TIP3   OH260642   0.154   4.235  17.173  0.4631 -0.3956  0.7191
13076TIP3    H160643   0.143   4.289  17.094  2.0206 -0.0787  0.6935
13076TIP3    H260644   0.172   4.298  17.243 -0.3112 -0.7187  1.2226
13077TIP3   OH260645   0.119   5.100  14.214  0.2119 -0.0763 -0.6465
13077TIP3    H160646   0.203   5.067  14.247 -0.0369 -0.4998 -0.4413
13077TIP3    H260647   0.053   5.050  14.261 -0.1613  0.3130 -0.7516
13078TIP3   OH260648   4.054   2.577   6.085 -0.2251  0.5784  0.6444
13078TIP3    H160649   3.995   2.546   6.017 -0.4493  0.6562  0.8002
13078TIP3    H260650   4.041   2.516   6.158  1.8673 -1.0277 -0.2587
13079TIP3   OH260651   4.299   6.008   4.016 -0.8187  0.1388 -0.0336
13079TIP3    H160652   4.216   6.021   4.061 -0.1153 -0.4424  1.4999
13079TIP3    H260653   4.293   5.920   3.979 -1.1290  0.3460 -0.4792
13080TIP3   OH260654   2.519   4.836   1.236  0.3858 -0.6159 -0.0604
13080TIP3    H160655   2.574   4.866   1.308  0.3933  0.6210 -0.5575
13080TIP3    H260656   2.463   4.769   1.275 -0.5292  0.9331  1.4394
13081TIP3   OH260657   3.170   4.485   1.639 -0.1208  0.6248 -0.2843
13081TIP3    H160658   3.143   4.572   1.608  0.7011  0.9016 -0.2683
13081TIP3    H260659   3.108   4.425   1.599  0.1333  1.0980 -1.4316
13082TIP3   OH260660   6.207   4.058   3.625  0.3263 -0.1518  0.6343
13082TIP3    H160661   6.251   3.980   3.661 -0.8810 -0.9441  0.4552
13082TIP3    H260662   6.277   4.123   3.616  1.8362 -1.9190 -1.3244
13083TIP3   OH260663   1.043   3.339   2.264  0.0260  0.7853 -0.2460
13083TIP3    H160664   1.116   3.379   2.216  1.4047  1.1181  2.0114
13083TIP3    H260665   0.973   3.404   2.260  0.3576  1.1027 -1.1752
13084TIP3   OH260666   1.166   0.528  11.402  0.4718 -0.0215 -0.1688
13084TIP3    H160667   1.072   0.514  11.389  0.4359 -1.0899  1.0119
13084TIP3    H260668   1.187   0.604  11.349 -1.3135  0.9554  0.4441
13085TIP3   OH260669   0.689   4.232  11.972  0.5829 -0.3750 -0.5330
13085TIP3    H160670   0.764   4.226  12.031 -0.0970 -0.6748  0.3047
13085TIP3    H260671   0.614   4.205  12.024 -0.4969  2.1072 -0.6352
13086TIP3   OH260672   4.005   5.244  11.520  0.1860 -0.4330 -0.4784
13086TIP3    H160673   4.095   5.213  11.529  1.3002  1.8538 -2.5788
13086TIP3    H260674   3.965   5.225  11.605  2.4918 -1.8999  0.3929
13087TIP3   OH260675   1.959   3.914   3.594  0.8863 -0.3850 -0.0679
13087TIP3    H160676   1.882   3.928   3.649  0.2605 -0.3614 -0.9301
13087TIP3    H260677   1.991   4.002   3.575  1.8174 -0.4208  1.2165
13088TIP3   OH260678   5.263   6.697  15.373  0.4489  0.0675 -0.0040
13088TIP3    H160679   5.232   6.695  15.463 -1.6267 -0.0085 -0.6664
13088TIP3    H260680   5.231   6.614  15.335 -0.0421  0.7651 -1.1871
13089TIP3   OH260681   2.077   2.011  13.927  0.4038  0.6956  0.4986
13089TIP3    H160682   2.079   2.031  14.021  2.5451 -0.4249  0.7684
13089TIP3    H260683   2.042   1.922  13.922 -0.7708  1.1631  0.1026
13090TIP3   OH260684   2.844   2.537  11.525 -0.3732  0.3553 -1.0748
13090TIP3    H160685   2.779   2.500  11.584  0.3218  1.3844  0.4142
13090TIP3    H260686   2.928   2.503  11.557  0.1149  1.7506 -0.7619
13091TIP3   OH260687   5.006   3.646   1.088 -0.4705  0.2011 -0.1766
13091TIP3    H160688   5.084   3.665   1.141  0.4355 -1.1390 -0.9810
13091TIP3    H260689   4.992   3.552   1.099 -0.7518  0.0516 -1.6474
13092TIP3   OH260690   2.626   5.836  12.824  0.3080  0.6266  0.1120
13092TIP3    H160691   2.655   5.878  12.743  0.7787 -2.8146 -1.7055
13092TIP3    H260692   2.679   5.756  12.830 -2.6783 -1.4496  1.4437
13093TIP3   OH260693   4.400   5.994   3.586 -0.4683 -0.0258  0.1061
13093TIP3    H160694   4.320   6.044   3.571 -0.4693 -0.6455 -2.3086
13093TIP3    H260695   4.370   5.904   3.597 -0.2130 -0.0014  1.1346
13094TIP3   OH260696   5.654   2.274   2.258  0.0107  0.6011  0.0381
13094TIP3    H160697   5.687   2.203   2.204 -1.1759 -1.3194  1.7187
13094TIP3    H260698   5.720   2.285   2.326  0.4434  1.5270 -0.5029
13095TIP3   OH260699   3.447   4.069  13.462 -0.4075 -0.0596  0.0515
13095TIP3    H160700   3.462   4.092  13.371  0.7642 -0.2618  0.1761
13095TIP3    H260701   3.397   3.987  13.459 -0.7573  0.1736 -0.4048
13096TIP3   OH260702   5.192   2.909   4.812 -0.2589  0.6529 -0.6867
13096TIP3    H160703   5.271   2.948   4.774 -1.6051  1.7185 -2.6135
13096TIP3    H260704   5.219   2.823   4.842  2.4298  2.2630  2.0020
13097TIP3   OH260705   2.373   6.609   0.018  0.2089  0.1491 -0.7120
13097TIP3    H160706   2.290   6.629   0.060 -0.2091 -2.1818 -0.3001
13097TIP3    H260707   2.352   6.598  -0.075 -0.4267 -2.5680 -0.3131
13098TIP3   OH260708   2.187   3.743  17.273  0.0836  0.1806 -0.0453
13098TIP3    H160709   2.201   3.708  17.185  0.8010  0.8173 -0.2059
13098TIP3    H260710   2.257   3.808  17.283 -0.1423  0.2849  0.9029
13099TIP3   OH260711   1.438   0.447  14.465  0.2389 -0.1837 -0.0427
13099TIP3    H160712   1.527   0.415  14.452  0.4413  0.8196 -1.3360
13099TIP3    H260713   1.448   0.522  14.524  0.4309  0.6227 -1.0563
13100TIP3   OH260714   1.212   5.619   3.106 -0.3449 -0.0977 -0.2195
13100TIP3    H160715   1.146   5.687   3.113 -0.6927 -0.0945 -2.7133
13100TIP3    H260716   1.246   5.609   3.195  0.0365  3.5977  0.1837
13101TIP3   OH260717   4.237   5.467  16.838  0.1982 -0.0331  0.4738
13101TIP3    H160718   4.258   5.429  16.923  0.8606 -0.3383  0.1831
13101TIP3    H260719   4.182   5.401  16.795 -0.5769  0.3465  0.8561
13102TIP3   OH260720   2.297   4.846  11.829 -0.2530  0.2583 -0.1312
13102TIP3    H160721   2.334   4.873  11.914  1.5730  0.5242 -0.9489
13102TIP3    H260722   2.303   4.751  11.830  1.1084  0.3072 -0.4637
13103TIP3   OH260723   5.619   1.853  15.666 -0.0353 -0.1203 -0.2393
13103TIP3    H160724   5.656   1.917  15.727 -0.1662  0.5062 -0.8075
13103TIP3    H260725   5.667   1.772  15.685  0.3291  0.2110  0.2974
13104TIP3   OH260726   5.646   4.132  17.063 -0.0194 -0.4104 -0.0214
13104TIP3    H160727   5.722   4.188  17.075 -0.8207  0.4192  1.5693
13104TIP3    H260728   5.645   4.076  17.141 -1.0965 -0.3348  0.0295
13105TIP3   OH260729   6.270   0.634   1.826  0.8956 -0.2456 -0.2310
13105TIP3    H160730   6.250   0.650   1.734 -1.9306 -0.9829  0.1521
13105TIP3    H260731   6.270   0.539   1.835 -0.8313 -0.1948  0.8159
13106TIP3   OH260732   6.215   1.873  14.308 -0.7079 -0.3615 -0.2144
13106TIP3    H160733   6.204   1.911  14.220 -2.0289  2.0712  0.8795
13106TIP3    H260734   6.290   1.920  14.345 -0.0405 -1.5088 -0.0754
13107TIP3   OH260735   6.680   0.893  12.459 -0.0627 -0.0579  0.1769
13107TIP3    H160736   6.644   0.943  12.533 -1.4067 -1.7149  0.7261
13107TIP3    H260737   6.680   0.954  12.386 -2.2501  0.6229  0.6522
13108TIP3   OH260738   5.420   2.547  13.884 -0.2080 -0.6641  0.0646
13108TIP3    H160739   5.336   2.513  13.852 -0.6236 -0.6376  1.0829
13108TIP3    H260740   5.398   2.633  13.921 -0.1329 -1.4623  2.1132
13109TIP3   OH260741   3.627   3.949   4.583  0.1102 -0.1560  0.5726
13109TIP3    H160742   3.558   4.014   4.568 -0.5406 -0.8618  0.4872
13109TIP3    H260743   3.652   3.920   4.495  0.4899  0.0610  0.6053
13110TIP3   OH260744   1.869   2.127  16.171  0.0067  0.6024  0.0218
13110TIP3    H160745   1.790   2.110  16.119  0.6937  1.0625 -1.1946
13110TIP3    H260746   1.858   2.216  16.203 -0.2685  0.4305  0.4181
13111TIP3   OH260747   5.378   1.095  12.624  0.2743 -0.3339  0.7746
13111TIP3    H160748   5.372   1.002  12.641  0.7152 -0.6300 -0.5348
13111TIP3    H260749   5.472   1.111  12.612  0.3635  0.5726  2.4605
13112TIP3   OH260750   6.061   4.110  12.416 -0.1584 -0.0609  0.4012
13112TIP3    H160751   6.134   4.085  12.474  0.6039  0.4455 -0.3142
13112TIP3    H260752   6.032   4.027  12.378  1.0442 -0.1337 -0.4392
13113TIP3   OH260753   2.118   2.874   5.578  0.1431 -0.1159  0.2929
13113TIP3    H160754   2.122   2.800   5.639 -2.0057 -1.4904 -1.1010
13113TIP3    H260755   2.125   2.952   5.633  0.2668 -1.3230  2.0540
13114TIP3   OH260756   0.115   6.435  14.387  0.4855 -0.1329  0.3198
13114TIP3    H160757   0.061   6.357  14.371 -0.1585  0.9347 -3.9987
13114TIP3    H260758   0.205   6.401  14.388  0.1809 -1.0595 -0.8263
13115TIP3   OH260759   0.405   6.420  15.294  0.0103 -0.1445 -0.6682
13115TIP3    H160760   0.362   6.363  15.231 -0.1900  0.9557 -1.5593
13115TIP3    H260761   0.498   6.418  15.270  0.1722 -0.9234 -0.0191
13116TIP3   OH260762   2.207   2.414   2.748  0.0381  0.2882  0.0877
13116TIP3    H160763   2.248   2.426   2.833 -2.5190  0.1905  1.4124
13116TIP3    H260764   2.227   2.323   2.724  0.7364  0.3092  0.5543
13117TIP3   OH260765   1.573   4.251  12.438  0.1525 -0.1967 -0.4664
13117TIP3    H160766   1.510   4.186  12.469  0.7755 -0.3734  0.4389
13117TIP3    H260767   1.518   4.319  12.397 -0.6214 -0.4189  0.1739
13118TIP3   OH260768   0.124   4.609  12.385  0.1443 -0.6396  0.4265
13118TIP3    H160769   0.040   4.598  12.429 -0.1918  0.4124  0.0956
13118TIP3    H260770   0.184   4.637  12.454 -0.7104  2.4241  0.0820
13119TIP3   OH260771   2.568   6.497  12.100  0.3918  0.0474  0.0687
13119TIP3    H160772   2.640   6.548  12.063 -0.9615  1.0927 -1.2759
13119TIP3    H260773   2.522   6.462  12.023 -1.1407  0.3145  0.8264
13120TIP3   OH260774   2.107   0.167   1.751  0.3122  0.7175 -0.1675
13120TIP3    H160775   2.101   0.163   1.846  0.3630  2.0700 -0.0841
13120TIP3    H260776   2.189   0.214   1.734  0.4409  0.2442 -0.8809
13121TIP3   OH260777   3.103   1.050  15.707  0.5687 -0.0122 -0.0183
13121TIP3    H160778   3.184   1.008  15.734  2.3154  1.5241 -2.4999
13121TIP3    H260779   3.069   0.994  15.636  0.9393  0.7585 -0.8215
13122TIP3   OH260780   4.917   2.665  13.637 -0.3418  0.1258  0.2026
13122TIP3    H160781   4.873   2.669  13.721  1.0095 -0.7354  1.0015
13122TIP3    H260782   4.847   2.671  13.572 -1.5228 -0.3643  1.3916
13123TIP3   OH260783   5.543   5.613   0.166  0.2668  0.2089 -0.4401
13123TIP3    H160784   5.449   5.596   0.174 -0.1145  2.3045  0.1442
13123TIP3    H260785   5.579   5.589   0.252 -0.1414  1.6318  0.1420
13124TIP3   OH260786   5.634   1.779   1.437 -0.3249  0.0844  0.1562
13124TIP3    H160787   5.694   1.728   1.492  1.1061  1.2718 -0.2432
13124TIP3    H260788   5.655   1.751   1.348 -1.1074 -0.2387  0.0679
13125TIP3   OH260789   4.196   6.759  13.988  0.3096 -0.7026 -0.4020
13125TIP3    H160790   4.271   6.818  13.978  1.5876 -1.9809  1.1254
13125TIP3    H260791   4.176   6.731  13.898  1.2171  0.1991 -0.9052
13126TIP3   OH260792   5.251   6.456   4.109 -0.1519 -0.0878 -0.3551
13126TIP3    H160793   5.335   6.489   4.075 -0.2636 -1.8942 -2.6258
13126TIP3    H260794   5.217   6.528   4.162  2.3916  1.0462 -0.1010
13127TIP3   OH260795   6.284   4.127  16.639  0.4233 -0.2657  0.4242
13127TIP3    H160796   6.358   4.170  16.596  1.2744 -1.1895  0.9442
13127TIP3    H260797   6.229   4.098  16.566  0.1404  1.1124  0.0476
13128TIP3   OH260798   2.808   1.511   0.065  0.3924 -0.2748  0.7354
13128TIP3    H160799   2.812   1.478  -0.025  0.7471 -1.0562  1.0221
13128TIP3    H260800   2.743   1.581   0.062 -0.0654 -0.7097 -0.0020
13129TIP3   OH260801   6.060   4.371   3.216  0.3428  0.2501  0.0201
13129TIP3    H160802   6.109   4.440   3.260 -0.5163  0.6053  0.4304
13129TIP3    H260803   6.066   4.393   3.123 -0.2299  1.0905  0.1702
13130TIP3   OH260804   5.096   4.968   1.894 -0.2718  0.2911 -0.2001
13130TIP3    H160805   5.087   5.007   1.981 -1.1303  0.5124 -0.3810
13130TIP3    H260806   5.061   4.880   1.903 -1.0979  0.5755 -0.4954
13131TIP3   OH260807   0.429   6.042  12.665  0.7851 -1.0069  0.0014
13131TIP3    H160808   0.351   5.991  12.642 -0.8161  1.2049  0.1367
13131TIP3    H260809   0.453   6.011  12.752 -0.8884 -0.7565  0.5909
13132TIP3   OH260810   2.427   4.532  14.518  0.6138  0.5177  0.0909
13132TIP3    H160811   2.382   4.540  14.434  0.2740 -0.9543  0.1149
13132TIP3    H260812   2.390   4.602  14.572  0.5322  1.2142 -0.8390
13133TIP3   OH260813   0.530   3.611   3.478  0.4637  0.1677  0.5476
13133TIP3    H160814   0.542   3.617   3.383 -1.1992 -0.9628  0.2387
13133TIP3    H260815   0.618   3.627   3.514  1.4682 -1.0288 -1.2377
13134TIP3   OH260816   3.182   1.364   4.195  0.2973  0.3252 -0.0192
13134TIP3    H160817   3.156   1.274   4.214  2.1878 -0.2197  0.1873
13134TIP3    H260818   3.113   1.398   4.138 -0.8679 -0.9616  0.5579
13135TIP3   OH260819   4.456   4.128  11.162 -0.2191  0.1932  0.1449
13135TIP3    H160820   4.445   4.040  11.197  1.6917  0.5982  1.9389
13135TIP3    H260821   4.533   4.124  11.107 -0.0099  0.7725  0.3813
13136TIP3   OH260822   0.209   6.437   2.403 -0.2224 -0.3567 -0.0327
13136TIP3    H160823   0.239   6.355   2.444  0.0112 -0.8479 -1.1667
13136TIP3    H260824   0.139   6.469   2.461  0.5564 -0.6698  1.1243
13137TIP3   OH260825   1.612   3.888   6.630 -0.1033 -0.0966 -0.2578
13137TIP3    H160826   1.564   3.816   6.589  0.0129 -0.3102 -0.0205
13137TIP3    H260827   1.681   3.910   6.566  0.6591 -1.0495  0.2148
13138TIP3   OH260828   4.873   6.092   2.591  0.4947  0.2182  0.5512
13138TIP3    H160829   4.903   6.042   2.516  0.8488  1.2108  0.0091
13138TIP3    H260830   4.848   6.177   2.555 -1.3861  0.0201  1.2271
13139TIP3   OH260831   4.456   4.805   0.347 -0.0266 -0.0747 -0.2083
13139TIP3    H160832   4.486   4.855   0.423 -3.1683  3.3595 -0.9603
13139TIP3    H260833   4.526   4.815   0.282  0.6323  0.9953  0.6262
13140TIP3   OH260834   5.482   6.388   2.655  0.9228  0.1407  0.1413
13140TIP3    H160835   5.537   6.409   2.730  1.1179 -0.1238  0.0710
13140TIP3    H260836   5.404   6.442   2.667  1.0127  0.1998  0.4606
13141TIP3   OH260837   4.761   2.535   6.554  0.5849 -0.1059 -0.1873
13141TIP3    H160838   4.722   2.508   6.637  1.9569 -1.3313  0.1215
13141TIP3    H260839   4.694   2.517   6.488 -0.2652  0.2267  0.5691
13142TIP3   OH260840   1.000   0.989  10.997  0.2611 -0.3532  0.1342
13142TIP3    H160841   0.942   0.939  10.940  0.7227  0.0852 -0.7451
13142TIP3    H260842   1.057   1.037  10.937  1.8038 -1.0737  0.9697
13143TIP3   OH260843   0.047   3.537  13.393  0.3189  0.3827  0.3457
13143TIP3    H160844   0.118   3.602  13.391 -0.8590  1.6813 -0.4901
13143TIP3    H260845   0.093   3.453  13.396  1.9127  1.1603 -0.5630
13144TIP3   OH260846   5.947   3.176   0.886  0.1493  0.0089  0.1985
13144TIP3    H160847   5.950   3.200   0.793 -1.1055 -1.9495 -0.3897
13144TIP3    H260848   5.914   3.255   0.929  1.1084  1.0826 -0.9380
13145TIP3   OH260849   0.542   4.998   1.964  0.2911 -0.2363  0.0726
13145TIP3    H160850   0.471   5.055   1.934 -0.1450 -0.8269 -0.0504
13145TIP3    H260851   0.619   5.053   1.965  0.3012 -0.1486 -2.0133
13146TIP3   OH260852   0.911   5.238  11.360 -0.2333  0.1837 -0.3834
13146TIP3    H160853   0.986   5.218  11.416 -0.7152  2.0681  1.0674
13146TIP3    H260854   0.950   5.264  11.276  0.6867  0.1333  0.0161
13147TIP3   OH260855   3.962   5.632   0.330  0.2719  0.1489 -0.4918
13147TIP3    H160856   3.959   5.677   0.414 -1.1722  0.1023 -0.4987
13147TIP3    H260857   4.036   5.572   0.338  1.3179  1.4409  0.0466
13148TIP3   OH260858   2.636   2.312  12.422  0.3190 -0.2496 -0.0113
13148TIP3    H160859   2.694   2.237  12.435  0.5971 -0.3538 -1.6589
13148TIP3    H260860   2.549   2.280  12.446  0.5194 -0.9408 -0.1905
13149TIP3   OH260861   4.620   5.775   3.725 -0.1165  0.6654 -0.1722
13149TIP3    H160862   4.554   5.776   3.656 -0.4085  0.5018  0.1063
13149TIP3    H260863   4.584   5.718   3.792  0.9938 -0.6911 -0.6844
13150TIP3   OH260864   5.696   6.580  16.045  0.3049  0.0359  0.0900
13150TIP3    H160865   5.718   6.628  15.965  1.6886  1.9903  1.5571
13150TIP3    H260866   5.778   6.576  16.094 -0.4349 -1.4391  1.2757
13151TIP3   OH260867   5.416   0.641   4.765  0.0908 -0.4558 -0.0365
13151TIP3    H160868   5.470   0.564   4.750 -2.9944 -2.6060 -1.0991
13151TIP3    H260869   5.434   0.697   4.689  0.9591 -0.9996 -0.2512
13152TIP3   OH260870   2.576   3.178  16.949 -0.3139  0.5244  0.0917
13152TIP3    H160871   2.567   3.247  17.016  1.3713 -0.5284  1.4956
13152TIP3    H260872   2.642   3.119  16.985 -0.0983 -0.6445 -2.0875
13153TIP3   OH260873   6.608   6.573   6.049  0.4641  0.1841  0.0672
13153TIP3    H160874   6.679   6.538   6.102  0.1347  0.3051  0.5901
13153TIP3    H260875   6.542   6.602   6.112  0.1825  0.5692 -0.3960
13154TIP3   OH260876   1.925   2.476  12.041 -0.2128 -0.7979  0.5919
13154TIP3    H160877   1.993   2.498  11.978 -0.6873  0.1786  0.4167
13154TIP3    H260878   1.916   2.381  12.033  0.0485 -0.7450 -0.4810
13155TIP3   OH260879   1.501   1.957   1.651 -0.0981 -0.1573  0.1550
13155TIP3    H160880   1.449   1.929   1.576  0.5437 -1.8015  0.2837
13155TIP3    H260881   1.589   1.923   1.633  0.7332  1.7528  0.3862
13156TIP3   OH260882   4.505   2.197  10.940 -0.1484  0.4502  0.2862
13156TIP3    H160883   4.510   2.292  10.934  0.5432  0.4421  0.6342
13156TIP3    H260884   4.537   2.166  10.856 -1.7143  0.5380 -0.3721
13157TIP3   OH260885   1.310   2.199   1.704 -0.5348 -0.1193 -0.3669
13157TIP3    H160886   1.363   2.279   1.708  0.9227 -1.0799  2.5234
13157TIP3    H260887   1.311   2.174   1.612  0.5156  2.1836 -1.0567
13158TIP3   OH260888   3.055   3.597   4.806 -0.1259 -0.2495  0.2267
13158TIP3    H160889   3.134   3.589   4.859  0.6521 -1.3468 -1.0380
13158TIP3    H260890   3.082   3.574   4.718 -1.6249  0.4691 -0.4682
13159TIP3   OH260891   5.146   3.276   0.566 -0.1447 -0.3702  0.1136
13159TIP3    H160892   5.226   3.224   0.571  0.3986  0.2125 -1.6916
13159TIP3    H260893   5.161   3.350   0.625  0.3039 -0.6962  0.4134
13160TIP3   OH260894   6.243   6.195  11.998 -0.3842 -0.2412  0.0475
13160TIP3    H160895   6.335   6.169  12.006 -0.4343 -0.7876 -0.9423
13160TIP3    H260896   6.241   6.286  12.028  0.1454 -0.7459  1.7589
13161TIP3   OH260897   6.015   5.021  13.268  0.5204 -0.8046 -0.0058
13161TIP3    H160898   6.075   5.076  13.318  0.0992 -0.8811  0.5975
13161TIP3    H260899   5.968   4.971  13.334 -1.0968  0.1568 -0.3680
13162TIP3   OH260900   2.500   1.550  15.311 -0.7732  0.1031  0.0903
13162TIP3    H160901   2.587   1.518  15.285 -1.4264 -2.5645  0.8646
13162TIP3    H260902   2.466   1.593  15.233  0.4316 -0.6833 -0.9016
13163TIP3   OH260903   3.815   4.692  14.788  0.1372  0.0128  0.3584
13163TIP3    H160904   3.790   4.760  14.851  2.3079  2.0783 -0.8349
13163TIP3    H260905   3.898   4.657  14.822 -0.3374 -1.1985  0.3151
13164TIP3   OH260906   4.809   2.635   3.215  0.0267  0.2516  0.0640
13164TIP3    H160907   4.869   2.661   3.285  0.7168  0.4122 -0.5739
13164TIP3    H260908   4.862   2.640   3.135 -1.1148  1.4363 -0.6538
13165TIP3   OH260909   4.479   0.698  12.719 -0.6164 -0.4381 -0.1150
13165TIP3    H160910   4.406   0.690  12.659 -0.3828  0.1681 -0.4942
13165TIP3    H260911   4.548   0.643  12.682 -1.5856 -2.8098  1.4130
13166TIP3   OH260912   2.993   4.195   0.278  0.3030  0.2119  0.2941
13166TIP3    H160913   2.909   4.236   0.300  0.1855  0.1396 -0.0124
13166TIP3    H260914   3.058   4.262   0.298  0.1983  0.1765  0.7907
13167TIP3   OH260915   4.913   4.882   1.577 -0.2351  0.3687  0.5100
13167TIP3    H160916   4.953   4.797   1.593  0.5991  1.0546  2.4446
13167TIP3    H260917   4.966   4.943   1.628 -2.7467  1.5632  1.8570
13168TIP3   OH260918   6.559   3.699  13.064 -0.4475 -0.6307  0.2283
13168TIP3    H160919   6.610   3.630  13.021  0.9658  1.7675 -2.3194
13168TIP3    H260920   6.592   3.701  13.154  2.2053 -0.8359 -0.6606
13169TIP3   OH260921   2.562   3.089   2.237 -0.0022 -0.3889 -0.0721
13169TIP3    H160922   2.636   3.148   2.249  0.4061 -1.0307  0.6778
13169TIP3    H260923   2.601   3.010   2.199 -0.8036  0.4278 -2.7878
13170TIP3   OH260924   0.054   3.256   5.805  0.1033  0.3687  0.3757
13170TIP3    H160925  -0.028   3.250   5.756  1.4905 -3.4756 -1.8966
13170TIP3    H260926   0.034   3.212   5.889 -0.5050  0.7055  0.4129
13171TIP3   OH260927   4.961   6.439  14.432 -0.2905 -1.1197  0.0686
13171TIP3    H160928   4.999   6.387  14.362  0.4112  0.7261 -0.9813
13171TIP3    H260929   5.009   6.412  14.511  2.2050 -0.0097 -0.9512
13172TIP3   OH260930   3.876   3.856   5.564  0.6624  0.4934  0.1868
13172TIP3    H160931   3.843   3.932   5.517  1.1293 -0.2368 -1.3899
13172TIP3    H260932   3.942   3.819   5.505  0.8189 -0.8249  1.1571
13173TIP3   OH260933   3.070   6.411   1.450  0.0966  0.6680 -0.3101
13173TIP3    H160934   3.132   6.408   1.522 -0.1774  0.4308 -0.0820
13173TIP3    H260935   2.990   6.371   1.485  0.3112 -0.4847 -1.0781
13174TIP3   OH260936   3.196   4.918   4.616 -0.2841 -0.3961 -0.0506
13174TIP3    H160937   3.187   4.852   4.547 -1.6265  0.3066 -0.5804
13174TIP3    H260938   3.107   4.933   4.647  0.0104  1.0165  0.1980
13175TIP3   OH260939   2.422   1.931   2.514  0.0800 -0.3432 -0.1746
13175TIP3    H160940   2.346   1.919   2.571 -0.8781  1.2952 -1.0227
13175TIP3    H260941   2.435   1.845   2.473 -0.6908 -0.9082  0.7191
13176TIP3   OH260942   0.786   2.246  15.218  0.4242 -0.9594  0.4668
13176TIP3    H160943   0.792   2.288  15.304  1.5919 -1.4764  0.6538
13176TIP3    H260944   0.725   2.173  15.232  0.2036 -0.7321  0.7206
13177TIP3   OH260945   0.762   5.699  11.797 -0.0950  0.3857  0.3776
13177TIP3    H160946   0.849   5.736  11.813  0.0698  0.5774 -0.9142
13177TIP3    H260947   0.773   5.642  11.721 -1.0694  0.2865  0.2964
13178TIP3   OH260948   6.459   6.761  15.743  0.1291  0.3914 -0.5477
13178TIP3    H160949   6.525   6.829  15.751 -0.8774  1.5411 -1.5767
13178TIP3    H260950   6.376   6.808  15.738 -0.6114 -0.9075 -1.1996
13179TIP3   OH260951   2.737   1.164   0.840 -0.1419 -0.3165 -0.2836
13179TIP3    H160952   2.821   1.142   0.799 -0.4112 -0.6958 -0.6368
13179TIP3    H260953   2.734   1.260   0.838  1.8279 -0.0493  2.8752
13180TIP3   OH260954   4.955   0.787  10.420  0.3266  0.6792  0.3787
13180TIP3    H160955   4.884   0.749  10.367  0.1991 -0.6749  1.4720
13180TIP3    H260956   5.031   0.784  10.362  0.0940 -0.3620  0.0968
13181TIP3   OH260957   3.120   0.712   1.978 -0.5070 -0.2591 -0.0939
13181TIP3    H160958   3.184   0.777   1.949  0.8921 -1.2246  0.7242
13181TIP3    H260959   3.090   0.671   1.897  0.4861 -0.3019 -0.4602
13182TIP3   OH260960   4.641   5.555  15.847 -0.1069 -0.2460  0.4945
13182TIP3    H160961   4.718   5.537  15.793 -1.3160 -0.9283 -1.0945
13182TIP3    H260962   4.617   5.470  15.884 -1.6900 -0.6435 -1.2983
13183TIP3   OH260963   4.070   2.688  14.536 -0.0769 -0.0633 -0.1595
13183TIP3    H160964   3.979   2.695  14.563  0.0638 -0.8556  0.5663
13183TIP3    H260965   4.083   2.595  14.516  0.4034  0.1490 -0.8655
13184TIP3   OH260966   4.971   2.401  14.668 -0.2042  0.0707 -0.4730
13184TIP3    H160967   5.065   2.384  14.663 -0.2330 -0.5695  0.8534
13184TIP3    H260968   4.965   2.497  14.676  0.2947  0.1642 -1.1115
13185TIP3   OH260969   5.640   3.688   2.668 -0.2859  0.1839  0.1662
13185TIP3    H160970   5.579   3.761   2.657 -0.2191  0.2789  0.4120
13185TIP3    H260971   5.683   3.680   2.582 -1.8381 -0.9919 -0.5383
13186TIP3   OH260972   4.465   1.548   1.425 -0.5697  0.5184  0.6085
13186TIP3    H160973   4.382   1.556   1.473 -1.6859 -0.7137 -1.0350
13186TIP3    H260974   4.446   1.581   1.338  0.3247 -0.9055 -0.1557
13187TIP3   OH260975   3.230   4.398   3.169 -0.2604 -0.2147  0.2854
13187TIP3    H160976   3.146   4.405   3.214 -0.0725 -2.3276  1.0878
13187TIP3    H260977   3.214   4.338   3.096 -0.0399  1.4675 -1.2096
13188TIP3   OH260978   3.704   0.332   1.324  0.2089  0.4465  0.4574
13188TIP3    H160979   3.629   0.294   1.279  0.3092 -1.4701  1.7813
13188TIP3    H260980   3.704   0.424   1.298 -1.1662 -0.0371 -1.4352
13189TIP3   OH260981   5.350   5.228   4.935 -0.1062  0.3008 -0.0001
13189TIP3    H160982   5.326   5.136   4.942  0.1635  0.1166 -1.3113
13189TIP3    H260983   5.302   5.270   5.007  0.6255 -0.9973  1.3148
13190TIP3   OH260984   3.167   4.933   5.915 -0.2223  0.2983 -0.1880
13190TIP3    H160985   3.154   4.983   5.835  0.7208 -0.3630 -0.7805
13190TIP3    H260986   3.110   4.975   5.980  1.2977  2.8182 -0.3437
13191TIP3   OH260987   6.291   0.651  17.215 -0.3854  0.0548 -0.3852
13191TIP3    H160988   6.200   0.680  17.220 -0.0404  1.2254 -0.4358
13191TIP3    H260989   6.340   0.715  17.267  0.6335  0.5764 -1.8747
13192TIP3   OH260990   3.334   2.317  11.456  0.0610  0.2702  0.1423
13192TIP3    H160991   3.338   2.260  11.379  2.0537  0.3985  0.0934
13192TIP3    H260992   3.365   2.402  11.424 -2.2969  1.2750  0.3532
13193TIP3   OH260993   2.952   0.492   1.813  0.0682  0.9910 -0.6038
13193TIP3    H160994   2.890   0.527   1.877  0.5006  1.1912 -0.2880
13193TIP3    H260995   2.898   0.460   1.741 -0.5988 -1.5735  0.9303
13194TIP3   OH260996   4.210   6.113   5.044 -0.0646  0.1266 -0.2478
13194TIP3    H160997   4.259   6.196   5.043 -0.4232  0.3500  0.4617
13194TIP3    H260998   4.236   6.070   4.963  0.6814  0.6140 -0.2844
13195TIP3   OH260999   4.038   5.946  12.129 -0.5059  0.2614  0.0226
13195TIP3    H161000   3.954   5.912  12.097 -0.4739  0.5178 -0.3427
13195TIP3    H261001   4.014   6.011  12.195 -0.5644 -0.5498  0.8134
13196TIP3   OH261002   2.720   0.190   5.048  0.4863 -0.2365 -0.3584
13196TIP3    H161003   2.746   0.107   5.088  2.4872 -1.3668 -3.5697
13196TIP3    H261004   2.633   0.172   5.010  1.9999 -2.0049 -3.4032
13197TIP3   OH261005   0.602   0.455   4.941  0.2151  0.1955 -0.3165
13197TIP3    H161006   0.561   0.373   4.912  1.1700 -0.8048  1.0457
13197TIP3    H261007   0.670   0.471   4.876  0.1231 -0.1789 -0.5125
13198TIP3   OH261008   0.043   2.909  15.410  0.2095 -0.2222 -0.1789
13198TIP3    H161009   0.124   2.939  15.368  0.7112  0.7777  1.4179
13198TIP3    H261010  -0.021   2.977  15.390  0.7392  0.8157  1.5314
13199TIP3   OH261011   3.443   2.755   3.052 -0.1399 -0.1572  0.2332
13199TIP3    H161012   3.471   2.672   3.015  1.5519  0.6046 -0.3132
13199TIP3    H261013   3.457   2.746   3.146  0.3058 -0.4074  0.1470
13200TIP3   OH261014   2.838   3.536  14.006  0.2378 -0.0190  0.2527
13200TIP3    H161015   2.894   3.540  13.929  1.0383  0.9102  0.8560
13200TIP3    H261016   2.752   3.563  13.974  0.6804  0.8870 -0.2344
13201TIP3   OH261017   2.444   0.401   5.925  0.6075  0.1846 -0.3493
13201TIP3    H161018   2.495   0.348   5.987  1.2199  1.0850 -0.0701
13201TIP3    H261019   2.354   0.394   5.957  0.8996  0.5332  0.5824
13202TIP3   OH261020   6.749   1.241  15.735 -0.5114 -0.7363 -0.4659
13202TIP3    H161021   6.687   1.312  15.745 -0.5755 -0.9533  0.7347
13202TIP3    H261022   6.696   1.166  15.707 -0.1833  0.1463 -4.0133
13203TIP3   OH261023   4.433   0.388   0.940  0.0897  0.8270 -0.0809
13203TIP3    H161024   4.380   0.311   0.917 -1.9398  2.0635  0.1923
13203TIP3    H261025   4.484   0.359   1.016 -1.2917 -0.0328  0.5701
13204TIP3   OH261026   1.106   3.583  12.106  0.3721  0.4955 -0.4067
13204TIP3    H161027   1.111   3.497  12.147 -1.8381 -0.0419 -1.1347
13204TIP3    H261028   1.129   3.568  12.015 -0.9130  0.4650 -0.7437
13205TIP3   OH261029   2.795   6.046   1.444 -0.0065 -0.3116 -0.5091
13205TIP3    H161030   2.728   5.981   1.464  0.3914 -1.4345 -2.5311
13205TIP3    H261031   2.875   6.010   1.482 -0.1374 -0.0470  0.0231
13206TIP3   OH261032   0.491   2.202   4.650 -0.1108 -0.5371 -0.3096
13206TIP3    H161033   0.551   2.254   4.704  0.9548  0.0554 -2.0143
13206TIP3    H261034   0.456   2.137   4.711 -0.4333  1.2687  1.5647
13207TIP3   OH261035   3.421   3.701   0.267  0.2994  0.3337 -0.3855
13207TIP3    H161036   3.349   3.697   0.203  0.0942  0.3028 -0.1570
13207TIP3    H261037   3.376   3.707   0.351  0.5615  2.5455 -0.3571
13208TIP3   OH261038   5.000   0.853  12.627  0.0707 -0.2061  0.6326
13208TIP3    H161039   4.970   0.943  12.614 -0.5417 -0.4080  0.5699
13208TIP3    H261040   4.922   0.800  12.608  0.2384 -0.7120  1.3290
13209TIP3   OH261041   5.130   5.678  16.197  0.3581 -0.6202 -0.0817
13209TIP3    H161042   5.199   5.646  16.255 -0.1444 -0.2819  0.7154
13209TIP3    H261043   5.072   5.603  16.185  0.3729 -0.6434 -0.0096
13210TIP3   OH261044   5.317   2.801   5.979  0.0621 -0.2470  0.6009
13210TIP3    H161045   5.251   2.736   6.003 -0.1397 -0.7777 -1.2191
13210TIP3    H261046   5.269   2.883   5.974 -0.2374 -0.4320  0.3888
13211TIP3   OH261047   6.752   0.084   0.090 -0.3712  0.2693 -0.1672
13211TIP3    H161048   6.674   0.139   0.093  0.8222  2.1017 -0.6218
13211TIP3    H261049   6.806   0.124   0.021  0.0076 -2.3036 -1.4764
13212TIP3   OH261050   1.954   1.070   0.838 -0.0099  0.3968 -0.0522
13212TIP3    H161051   2.005   1.002   0.792  0.1302  1.1825 -1.1025
13212TIP3    H261052   1.991   1.073   0.926 -0.8301 -1.7286  0.4221
13213TIP3   OH261053   3.782   5.455   3.549 -0.6092 -0.1709 -0.2740
13213TIP3    H161054   3.804   5.458   3.642 -0.9160 -0.7549 -0.1803
13213TIP3    H261055   3.727   5.377   3.539 -1.1676  0.2759 -0.8154
13214TIP3   OH261056   5.257   1.620  11.048 -0.2861 -0.1033 -0.0646
13214TIP3    H161057   5.162   1.617  11.034 -0.4843 -2.2610  1.2952
13214TIP3    H261058   5.267   1.655  11.136  0.3254  1.7557 -0.8208
13215TIP3   OH261059   1.841   5.547  11.691  0.8276  0.9277  0.2504
13215TIP3    H161060   1.755   5.512  11.666  1.2610  1.1072 -1.6138
13215TIP3    H261061   1.821   5.632  11.730  0.1930  1.5143 -1.2610
13216TIP3   OH261062   3.683   4.048   4.870 -0.3091  0.5223 -0.0514
13216TIP3    H161063   3.613   4.022   4.930  0.3902  0.0974  0.6059
13216TIP3    H261064   3.653   4.018   4.784 -1.3838  1.2540  0.0450
13217TIP3   OH261065   6.013   2.297   6.163 -0.0911  0.4633 -0.6685
13217TIP3    H161066   5.925   2.287   6.127 -0.6900  0.9729  0.5682
13217TIP3    H261067   6.020   2.226   6.226 -0.2062  1.2826  0.2995
13218TIP3   OH261068   6.765   1.302   2.728 -0.5993 -0.0928  0.3356
13218TIP3    H161069   6.766   1.256   2.644 -2.2832 -0.6435  0.5759
13218TIP3    H261070   6.802   1.240   2.790 -2.5414 -1.1011  0.5942
13219TIP3   OH261071   0.266   3.011  15.297  0.5596  0.4363  0.0872
13219TIP3    H161072   0.239   3.080  15.236 -0.6700  0.3903  0.5446
13219TIP3    H261073   0.338   3.050  15.346  1.9312  0.2891 -1.7159
13220TIP3   OH261074   4.579   0.574   4.269  0.9452 -0.1966  0.3014
13220TIP3    H161075   4.490   0.598   4.241  1.5441  1.1001 -0.6013
13220TIP3    H261076   4.598   0.635   4.340  1.3044 -0.1260  0.1440
13221TIP3   OH261077   0.356   1.471   5.113  0.1853  0.0148 -0.0214
13221TIP3    H161078   0.449   1.489   5.096  0.4164 -1.2620 -0.2002
13221TIP3    H261079   0.317   1.461   5.027 -0.1942  0.7922  0.0436
13222TIP3   OH261080   1.299   4.491  16.540  0.4367  1.1030  0.1498
13222TIP3    H161081   1.375   4.449  16.579  0.7531 -0.2799 -1.7947
13222TIP3    H261082   1.257   4.538  16.612  1.5541 -0.4056  1.8638
13223TIP3   OH261083   3.984   0.987  13.446  0.3318 -0.3877 -0.4339
13223TIP3    H161084   4.005   1.008  13.355 -0.8726 -1.9263 -1.1081
13223TIP3    H261085   4.055   0.929  13.475  0.2690 -0.5895 -0.6825
13224TIP3   OH261086   5.500   1.241  11.268 -0.0209 -0.4264  0.1270
13224TIP3    H161087   5.500   1.335  11.251 -0.2953 -0.4837 -0.2047
13224TIP3    H261088   5.419   1.210  11.227  0.7280 -1.0270 -0.9417
13225TIP3   OH261089   4.606   4.107  12.531 -0.3953  0.5802 -0.3727
13225TIP3    H161090   4.632   4.027  12.577  0.3731  0.8542 -0.3157
13225TIP3    H261091   4.573   4.076  12.447  1.7925  0.2783 -1.2054
13226TIP3   OH261092   2.553   1.845   5.028 -0.0446  0.8465 -0.0166
13226TIP3    H161093   2.487   1.822   5.094 -0.4929  0.6543 -0.5268
13226TIP3    H261094   2.633   1.804   5.059 -0.2476  0.7733  0.4202
13227TIP3   OH261095   4.877   3.211   0.447  0.2373  0.3079  0.2926
13227TIP3    H161096   4.957   3.206   0.499 -0.3644  1.0195  1.3148
13227TIP3    H261097   4.843   3.299   0.463 -0.7462  0.0211 -0.1431
13228TIP3   OH261098   1.433   2.793   4.991 -0.0117 -0.0628 -0.0301
13228TIP3    H161099   1.379   2.752   5.058 -1.2016 -0.4681 -1.1838
13228TIP3    H261100   1.519   2.754   5.002  0.0935  0.5746  1.8351
13229TIP3   OH261101   5.107   4.788  15.819 -0.3460  0.9485  0.0168
13229TIP3    H161102   5.074   4.814  15.906  0.1893 -0.7438  0.7684
13229TIP3    H261103   5.051   4.715  15.793  1.2747 -0.4434  0.2637
13230TIP3   OH261104   1.114   2.133  16.445 -0.2520 -0.5865  0.2363
13230TIP3    H161105   1.141   2.176  16.526  0.7942 -0.5891 -0.0933
13230TIP3    H261106   1.128   2.200  16.377 -0.3050 -0.8579 -0.0452
13231TIP3   OH261107   2.350   5.829   3.838 -0.3015 -0.0963  0.4610
13231TIP3    H161108   2.432   5.786   3.864 -1.0107 -0.7676  1.6231
13231TIP3    H261109   2.306   5.764   3.783 -1.3411 -0.8809  2.1594
13232TIP3   OH261110   3.222   3.947  15.039  0.4468 -0.5378 -0.2488
13232TIP3    H161111   3.215   3.956  14.944 -2.1256 -0.4233 -0.1167
13232TIP3    H261112   3.190   3.859  15.057 -2.1077  0.4715  0.6760
13233TIP3   OH261113   1.287   6.274  15.217  0.1979 -0.2456 -0.1821
13233TIP3    H161114   1.225   6.346  15.229  0.0417  0.0323 -2.3100
13233TIP3    H261115   1.358   6.312  15.165 -0.9327 -2.0816 -3.3070
13234TIP3   OH261116   2.898   6.161  14.656 -0.2773  0.3711  0.2969
13234TIP3    H161117   2.881   6.125  14.569 -1.3687 -1.4134  1.1710
13234TIP3    H261118   2.992   6.153  14.668  0.0578  1.7819 -1.1617
13235TIP3   OH261119   2.549   2.380   5.893 -0.1922  0.1607  0.6316
13235TIP3    H161120   2.599   2.391   5.973 -0.3490 -0.6245  0.8496
13235TIP3    H261121   2.468   2.429   5.908 -0.9241 -1.2761  1.6064
13236TIP3   OH261122   0.137   3.771  16.656 -0.5926  0.0126  0.4510
13236TIP3    H161123   0.220   3.807  16.625  0.5887 -0.5823  2.6747
13236TIP3    H261124   0.149   3.676  16.649 -1.9453 -0.0772 -1.1777
13237TIP3   OH261125   5.477   4.823   4.162 -0.0873 -0.6143 -0.0387
13237TIP3    H161126   5.569   4.800   4.150  0.0854 -0.6534  1.1722
13237TIP3    H261127   5.464   4.820   4.257 -0.9534  0.8885 -0.0721
13238TIP3   OH261128   0.820   4.654   4.540  0.0963 -0.1973  0.6578
13238TIP3    H161129   0.827   4.574   4.488  0.2910  0.7105 -0.7633
13238TIP3    H261130   0.739   4.643   4.591 -0.4894 -0.8087 -0.3869
13239TIP3   OH261131   4.132   0.815  14.393  0.1666 -0.0371  0.1201
13239TIP3    H161132   4.111   0.858  14.310  0.3347 -0.8703 -0.3676
13239TIP3    H261133   4.225   0.831  14.406  0.1204  0.1708  0.1914
13240TIP3   OH261134   2.202   1.325  10.632  0.0319 -0.1286  0.0264
13240TIP3    H161135   2.263   1.301  10.701  0.6107  1.5349  0.1379
13240TIP3    H261136   2.115   1.318  10.672  0.3783  1.1657  1.0634
13241TIP3   OH261137   5.909   3.702  14.034  0.2161  0.3509  0.0400
13241TIP3    H161138   5.956   3.736  13.958  0.4971  0.1636  0.1282
13241TIP3    H261139   5.972   3.708  14.106 -0.0769  0.6115  0.2778
13242TIP3   OH261140   1.139   1.130   3.957  0.1173  0.3003 -0.2796
13242TIP3    H161141   1.107   1.207   3.911 -0.5614  0.1813 -0.0266
13242TIP3    H261142   1.214   1.161   4.008 -0.8272  1.0449  0.6889
13243TIP3   OH261143   3.885   5.427  16.271  0.0783 -0.1168 -0.2393
13243TIP3    H161144   3.804   5.476  16.287 -0.1201 -0.2186 -0.9009
13243TIP3    H261145   3.907   5.446  16.180  1.2931  0.6327  0.1859
13244TIP3   OH261146   2.185   4.809  12.468  0.1820  0.2763  0.2503
13244TIP3    H161147   2.147   4.829  12.554  2.2836  0.9849  1.0668
13244TIP3    H261148   2.248   4.740  12.485  0.6970  0.4936 -0.7107
13245TIP3   OH261149   3.713   4.017   3.545  0.5037  0.0389  0.2461
13245TIP3    H161150   3.704   4.041   3.453  0.3948  0.2061  0.2986
13245TIP3    H261151   3.735   3.924   3.544 -2.3080 -0.7358  0.1323
13246TIP3   OH261152   1.697   4.634  14.393  0.0872  0.0387  0.2240
13246TIP3    H161153   1.764   4.648  14.327  1.7862 -1.5350  1.5263
13246TIP3    H261154   1.726   4.685  14.469 -1.7570  1.6994 -0.0812
13247TIP3   OH261155   5.587   2.361  11.837 -0.0205 -0.3289  0.8896
13247TIP3    H161156   5.541   2.445  11.839 -0.5782 -0.6404  1.6310
13247TIP3    H261157   5.677   2.383  11.861 -0.2057  0.0392  1.2744
13248TIP3   OH261158   6.391   1.034   5.956 -0.0506 -0.5029 -0.3082
13248TIP3    H161159   6.473   1.065   5.918  0.0996 -0.2482  0.2244
13248TIP3    H261160   6.417   0.995   6.039 -0.7390  1.7647  1.0514
13249TIP3   OH261161   2.241   2.245   3.850  0.0484 -0.4910  0.0126
13249TIP3    H161162   2.298   2.225   3.924  0.0258  1.2354  0.5503
13249TIP3    H261163   2.247   2.340   3.841 -1.3375 -0.4806 -1.0826
13250TIP3   OH261164   0.706   0.724  15.364  0.1707 -0.3386 -0.1066
13250TIP3    H161165   0.631   0.726  15.304 -2.6099 -0.4011  3.0642
13250TIP3    H261166   0.759   0.650  15.334 -1.3318 -0.6918 -2.1323
13251TIP3   OH261167   4.688   4.084  14.273 -0.4969 -0.1866  0.3535
13251TIP3    H161168   4.730   4.165  14.299 -1.8102  0.6545 -0.0600
13251TIP3    H261169   4.742   4.015  14.312  1.5967  0.7835 -0.6755
13252TIP3   OH261170   1.565   5.401  16.387 -0.6477 -0.6364 -0.0732
13252TIP3    H161171   1.577   5.355  16.471  3.2240 -0.4461 -0.3637
13252TIP3    H261172   1.608   5.345  16.323 -2.0921  0.0508 -1.7040
13253TIP3   OH261173   5.362   5.886   3.082 -0.2020 -0.1768  0.1289
13253TIP3    H161174   5.274   5.891   3.042 -0.7489  0.6606  1.4022
13253TIP3    H261175   5.348   5.837   3.163  0.2215  1.2833  1.0966
13254TIP3   OH261176   0.460   4.171  16.624  0.4229 -0.1271  0.4463
13254TIP3    H161177   0.383   4.219  16.593 -0.8888 -1.5790  1.3348
13254TIP3    H261178   0.533   4.211  16.577 -0.9625  0.6785 -1.1461
13255TIP3   OH261179   3.371   3.142   4.004 -0.0030  0.3552  0.2092
13255TIP3    H161180   3.277   3.124   4.004  0.0463  0.0655 -0.4865
13255TIP3    H261181   3.378   3.230   3.966  0.0337  0.1996 -0.1488
13256TIP3   OH261182   3.006   1.247   5.595  0.3416 -0.3540  0.1229
13256TIP3    H161183   2.947   1.219   5.526  1.7363  0.4698 -1.4698
13256TIP3    H261184   3.045   1.328   5.562  2.5246 -0.9766  1.0108
13257TIP3   OH261185   0.392   3.897  13.571 -0.9771 -0.0589 -0.2103
13257TIP3    H161186   0.431   3.811  13.560  1.2084  1.1656 -3.8120
13257TIP3    H261187   0.349   3.894  13.656  2.1760 -3.4600  1.5242
13258TIP3   OH261188   3.080   1.883  14.182  0.1085  0.1739  0.0673
13258TIP3    H161189   3.170   1.912  14.167  0.7314 -1.4199  0.4909
13258TIP3    H261190   3.088   1.808  14.242 -1.4069 -0.6357 -0.6658
13259TIP3   OH261191   2.476   0.027   4.693  0.0145  0.1457  0.2987
13259TIP3    H161192   2.429  -0.044   4.738 -0.3582  0.2679  0.1075
13259TIP3    H261193   2.558  -0.013   4.665  1.6547  0.8049  3.6563
13260TIP3   OH261194   1.969   4.886   3.278 -0.7111 -0.5061  0.4120
13260TIP3    H161195   2.011   4.969   3.299  0.4518 -0.5630 -1.4188
13260TIP3    H261196   1.878   4.909   3.259 -0.3442  0.3950 -0.3156
13261TIP3   OH261197   0.148   3.415  11.104 -0.0635  0.2279 -0.2525
13261TIP3    H161198   0.103   3.333  11.123  1.5651 -0.4392  0.8873
13261TIP3    H261199   0.207   3.394  11.032  1.6572 -0.1255  1.1981
13262TIP3   OH261200   6.046   1.972  11.785  0.3054 -0.1540 -0.7632
13262TIP3    H161201   6.026   1.933  11.700  1.7235 -0.2271 -1.0783
13262TIP3    H261202   5.962   1.971  11.832 -0.8841  1.2729 -2.6903
13263TIP3   OH261203   3.853   4.033  15.993  0.4979  0.2702  0.0208
13263TIP3    H161204   3.857   4.086  15.913  0.4597 -0.5275 -0.5352
13263TIP3    H261205   3.943   4.034  16.027  0.6919 -0.0111 -0.4681
13264TIP3   OH261206   3.258   3.425   5.952 -0.0129 -0.0513  0.1493
13264TIP3    H161207   3.261   3.331   5.972  2.3563 -0.2574 -0.8033
13264TIP3    H261208   3.264   3.429   5.857 -0.8931  1.0739  0.1256
13265TIP3   OH261209   6.617   5.359  13.888  0.4182  0.6045 -0.4216
13265TIP3    H161210   6.696   5.365  13.943  1.2233  2.3871 -1.6746
13265TIP3    H261211   6.607   5.266  13.870  4.2990  0.4511 -2.9911
13266TIP3   OH261212   2.669   5.127  11.869 -0.0094 -0.4780  0.0376
13266TIP3    H161213   2.615   5.178  11.808 -0.3386 -0.8735 -0.0136
13266TIP3    H261214   2.725   5.074  11.813  0.4266 -0.0777  0.0911
13267TIP3   OH261215   5.946   0.523  11.858  0.4966 -0.3822  0.0253
13267TIP3    H161216   6.033   0.507  11.895  0.1106 -0.2697  1.0160
13267TIP3    H261217   5.895   0.556  11.932 -0.1632  0.3420 -0.7408
13268TIP3   OH261218   4.405   1.386  16.526 -0.1157  0.0108 -0.0587
13268TIP3    H161219   4.367   1.301  16.549 -0.0924 -0.4646 -1.6261
13268TIP3    H261220   4.496   1.367  16.505 -0.0623  0.4447 -0.2309
13269TIP3   OH261221   2.857   1.464  17.082  0.4169 -0.2158  0.3392
13269TIP3    H161222   2.853   1.506  16.996 -1.9351  0.3513  0.6406
13269TIP3    H261223   2.946   1.432  17.090  0.8593  0.2847 -2.0384
13270TIP3   OH261224   3.240   2.304  16.073  0.3136 -0.2006 -0.4910
13270TIP3    H161225   3.265   2.219  16.037  0.8596  0.0109 -0.6145
13270TIP3    H261226   3.320   2.339  16.112 -0.3891 -0.7164  1.5549
13271TIP3   OH261227   2.911   5.244  13.918  0.1230  0.4360 -0.5490
13271TIP3    H161228   2.917   5.324  13.866  0.4617  0.6985 -0.1056
13271TIP3    H261229   2.921   5.273  14.009 -1.4406  0.1179 -0.2412
13272TIP3   OH261230   4.351   2.926   3.124  0.2604 -0.2459  0.4887
13272TIP3    H161231   4.439   2.937   3.089  0.0293  0.7237  0.1874
13272TIP3    H261232   4.356   2.958   3.214  0.0099  0.7322  0.1732
13273TIP3   OH261233   3.601   1.888  13.613  0.2636  0.2165  0.1865
13273TIP3    H161234   3.575   1.811  13.561  1.1317 -0.7082  1.0848
13273TIP3    H261235   3.601   1.960  13.550 -0.2551 -0.5783 -0.7501
13274TIP3   OH261236   4.440   0.329  17.104  0.5095 -0.0276  0.5264
13274TIP3    H161237   4.506   0.274  17.062 -0.1342  0.1376 -0.7405
13274TIP3    H261238   4.430   0.292  17.191  0.9366 -1.1943  0.0969
13275TIP3   OH261239   4.098   3.061  17.131  0.2942  0.8108 -0.2838
13275TIP3    H161240   4.159   3.026  17.195 -1.4201  1.0864  1.6270
13275TIP3    H261241   4.132   3.148  17.110  1.9203 -0.0276 -1.3107
13276TIP3   OH261242   5.562   6.225  15.784  0.2606 -0.0949  0.1938
13276TIP3    H161243   5.542   6.257  15.871 -0.3666 -0.4152  0.1755
13276TIP3    H261244   5.481   6.235  15.735  0.1600 -1.2806  0.0689
13277TIP3   OH261245   5.300   2.325   2.372  0.1627 -0.2029  0.5704
13277TIP3    H161246   5.368   2.260   2.388  0.0103 -0.1945  1.2798
13277TIP3    H261247   5.347   2.401   2.338  0.4009 -0.5043  0.2222
13278TIP3   OH261248   6.346   0.783   4.736 -0.0160 -0.0691 -0.0991
13278TIP3    H161249   6.310   0.700   4.768 -0.0712  0.0993  0.2794
13278TIP3    H261250   6.383   0.824   4.814 -0.2168  0.3814 -0.2405
13279TIP3   OH261251   1.780   5.348   4.966  0.2185 -0.1018  0.4237
13279TIP3    H161252   1.782   5.430   4.916  2.3289 -1.3880 -1.8027
13279TIP3    H261253   1.687   5.334   4.984 -0.3492  1.9302 -0.5631
13280TIP3   OH261254   5.736   6.379  13.548  0.1327 -0.5907 -0.1457
13280TIP3    H161255   5.645   6.399  13.568 -0.1731 -2.4826  0.5425
13280TIP3    H261256   5.784   6.458  13.574 -1.1672 -0.0611  0.7522
13281TIP3   OH261257   0.065   4.722   0.058 -0.6025  0.4477 -0.1802
13281TIP3    H161258   0.086   4.648   0.001 -1.4265  1.2635 -1.6075
13281TIP3    H261259   0.096   4.798   0.009  0.3986  1.0598  1.3423
13282TIP3   OH261260   3.587   1.631  16.652 -0.2447 -0.3903 -0.1120
13282TIP3    H161261   3.610   1.664  16.565  0.4030  1.2338  0.6203
13282TIP3    H261262   3.666   1.586  16.682  0.3927  1.0939  0.5323
13283TIP3   OH261263   2.832   1.202  14.088 -0.7476  0.2677  0.7045
13283TIP3    H161264   2.778   1.185  14.010 -0.6872  0.7142  0.5608
13283TIP3    H261265   2.815   1.294  14.108  0.3711  0.5716  0.3372
13284TIP3   OH261266   5.455   6.507   6.078  0.0359 -0.8732 -0.8235
13284TIP3    H161267   5.474   6.439   6.013  1.2151 -1.9153  0.5675
13284TIP3    H261268   5.488   6.472   6.161  0.3437  1.2315  0.0124
13285TIP3   OH261269   2.243   1.583   5.126  0.1260  0.2162  0.3680
13285TIP3    H161270   2.189   1.562   5.202  0.2901  0.6759  0.6103
13285TIP3    H261271   2.184   1.577   5.052  0.1185 -0.9371  0.4479
13286TIP3   OH261272   4.582   2.946   3.691  0.6581  0.0804  0.6904
13286TIP3    H161273   4.633   3.018   3.729  0.1247  0.5141  0.5979
13286TIP3    H261274   4.647   2.880   3.668  1.0228 -0.1456  2.2385
13287TIP3   OH261275   1.092   4.467   3.856  0.2260 -0.1825 -0.1008
13287TIP3    H161276   1.146   4.389   3.874  0.1871 -0.0910  0.4317
13287TIP3    H261277   1.089   4.513   3.940 -1.0776 -0.4348  0.0157
13288TIP3   OH261278   6.613   4.487   3.039 -0.0036  0.1543 -0.1140
13288TIP3    H161279   6.586   4.415   2.981 -0.7031 -0.5913  1.0888
13288TIP3    H261280   6.708   4.482   3.040  0.0446  0.3799 -1.4263
13289TIP3   OH261281   4.515   0.779  17.179 -0.3915  0.3373  0.0631
13289TIP3    H161282   4.551   0.695  17.148  0.8187  0.2184  1.6345
13289TIP3    H261283   4.442   0.754  17.234 -0.8577  0.4032 -0.5161
13290TIP3   OH261284   1.960   5.428  14.304 -0.3251 -0.0809 -0.0655
13290TIP3    H161285   1.877   5.396  14.270 -0.9279  1.5119 -0.1853
13290TIP3    H261286   1.968   5.517  14.268  0.2874  0.6710  1.8221
13291TIP3   OH261287   0.720   0.753   2.783  0.0211  0.1059 -0.5279
13291TIP3    H161288   0.659   0.763   2.710 -1.9266  1.4419  1.1745
13291TIP3    H261289   0.760   0.839   2.792  0.3801 -0.1002 -0.1160
13292TIP3   OH261290   6.354   5.611   2.175  0.1487 -0.1713 -0.2538
13292TIP3    H161291   6.274   5.562   2.195 -0.1593  0.5935  0.4584
13292TIP3    H261292   6.410   5.597   2.251 -0.0726  0.8364  0.1006
13293TIP3   OH261293   3.538   6.222  13.515 -0.2194  0.2414  0.3092
13293TIP3    H161294   3.536   6.127  13.500 -2.2378  0.3432 -0.3049
13293TIP3    H261295   3.453   6.253  13.486  0.7196  2.4028 -0.3554
13294TIP3   OH261296   3.658   4.086   6.631 -0.2793 -0.6405 -0.5259
13294TIP3    H161297   3.710   4.006   6.641 -0.7874 -1.4810 -3.5610
13294TIP3    H261298   3.723   4.156   6.622  0.1881 -0.8949  0.6379
13295TIP3   OH261299   5.996   2.683   6.420 -0.2060 -0.0957 -0.6448
13295TIP3    H161300   5.999   2.605   6.475 -0.5363  2.4481  3.3259
13295TIP3    H261301   6.088   2.698   6.396  0.2137 -0.3585  0.7066
13296TIP3   OH261302   2.954   2.329   5.887  0.2569 -0.4703 -0.2568
13296TIP3    H161303   3.021   2.343   5.820  1.9794  1.2142  1.6555
13296TIP3    H261304   2.873   2.315   5.838  0.8987  3.1044 -2.7566
13297TIP3   OH261305   4.975   4.173  16.091 -0.5159  0.6903  0.3631
13297TIP3    H161306   4.964   4.268  16.089 -0.6809  0.6536 -0.7410
13297TIP3    H261307   4.886   4.138  16.083 -0.6477  0.4189  2.3427
13298TIP3   OH261308   3.313   1.513  17.216 -0.0799 -0.1993  0.5484
13298TIP3    H161309   3.369   1.448  17.174  1.1772  1.6011 -0.7168
13298TIP3    H261310   3.373   1.566  17.268 -0.2986  2.4343 -1.6609
13299TIP3   OH261311   4.087   4.613   3.633  0.3321 -0.7408 -0.1748
13299TIP3    H161312   4.113   4.600   3.725 -0.0423 -3.2602 -0.3560
13299TIP3    H261313   4.050   4.701   3.632 -0.1848 -0.8421  2.2371
13300TIP3   OH261314   1.040   0.364  15.540 -0.0422  0.1916  0.0628
13300TIP3    H161315   1.133   0.342  15.548  0.1969 -0.8878 -3.5943
13300TIP3    H261316   1.038   0.460  15.546  2.1077  0.7071 -3.8761
13301TIP3   OH261317   0.445   4.475   1.596  0.1265  0.4653 -0.1791
13301TIP3    H161318   0.354   4.445   1.605 -0.1520  1.1435 -0.6475
13301TIP3    H261319   0.493   4.397   1.568 -0.7139  0.5617 -2.0883
13302TIP3   OH261320   4.764   3.176  16.316 -0.1680 -0.4891  0.8876
13302TIP3    H161321   4.779   3.249  16.256 -2.0144 -0.0416  0.9359
13302TIP3    H261322   4.844   3.172  16.369  0.1926  1.1361  0.5098
13303TIP3   OH261323   1.809   3.140  14.068  0.1105 -0.7574 -0.3070
13303TIP3    H161324   1.871   3.174  14.004  1.3030 -1.3589  0.4860
13303TIP3    H261325   1.849   3.059  14.100 -1.0294 -1.0984  0.3339
13304TIP3   OH261326   6.708   5.678  13.924  1.1580  0.4081 -0.1142
13304TIP3    H161327   6.677   5.600  13.878  0.9739  0.3199  0.1567
13304TIP3    H261328   6.770   5.719  13.864 -0.5964  1.4173 -1.3165
13305TIP3   OH261329   4.188   5.680  16.669 -0.2205  0.3487 -0.2665
13305TIP3    H161330   4.223   5.597  16.699 -0.8259  0.0018 -0.5027
13305TIP3    H261331   4.122   5.704  16.734 -0.5037  0.3184 -0.5368
13306TIP3   OH261332   3.780   3.092  14.019  0.0438 -0.1129  0.4867
13306TIP3    H161333   3.865   3.064  14.054 -0.0998  1.0909  1.9029
13306TIP3    H261334   3.761   3.174  14.064 -2.3917 -0.8904  1.0703
13307TIP3   OH261335   4.811   5.157   5.626  0.2136  0.2510  0.4688
13307TIP3    H161336   4.888   5.213   5.624  0.8608 -0.6103 -1.4268
13307TIP3    H261337   4.747   5.203   5.572 -0.0159  0.1880  0.6859
13308TIP3   OH261338   5.272   3.956  17.263 -0.0606  0.4935 -0.1098
13308TIP3    H161339   5.268   3.862  17.245 -0.6169  0.3914  0.4880
13308TIP3    H261340   5.334   3.964  17.336 -0.4980  0.5089  0.2700
13309TIP3   OH261341   1.759   6.584  15.776  0.4624 -0.3740  0.5904
13309TIP3    H161342   1.778   6.678  15.769  1.4981 -0.6573 -1.0468
13309TIP3    H261343   1.663   6.579  15.773  0.4150  0.5936 -0.3089
13310TIP3   OH261344   3.772   4.535  13.167 -0.2719 -0.0585  0.4221
13310TIP3    H161345   3.826   4.545  13.088 -0.3418 -0.2423  0.3525
13310TIP3    H261346   3.822   4.474  13.222  1.7253  2.8810  2.1897
13311TIP3   OH261347   4.564   4.742  13.362 -0.0433 -0.2688  0.4308
13311TIP3    H161348   4.657   4.725  13.376  0.0672  0.6197  0.8234
13311TIP3    H261349   4.559   4.778  13.274 -0.1556 -1.3084 -0.0037
13312TIP3   OH261350   4.245   4.538   2.274  0.4328 -0.1789 -0.9207
13312TIP3    H161351   4.332   4.564   2.243  0.7104  0.1132  0.0902
13312TIP3    H261352   4.234   4.449   2.241  0.3681  0.3938 -2.5648
13313TIP3   OH261353   2.706   6.768   2.262 -0.3393  1.1822  0.0569
13313TIP3    H161354   2.677   6.860   2.263  0.2999  1.3812  0.5343
13313TIP3    H261355   2.796   6.772   2.229 -0.0415  0.8028  0.8167
13314TIP3   OH261356   0.884   4.500  11.601  0.2040 -0.1108  0.1633
13314TIP3    H161357   0.830   4.553  11.660  0.5760 -0.1462  0.5417
13314TIP3    H261358   0.956   4.557  11.577  0.7500 -0.5274  0.7854
13315TIP3   OH261359   4.308   1.212   4.300 -0.3826  0.0056  0.2214
13315TIP3    H161360   4.217   1.187   4.287 -1.0240  0.3073  3.4203
13315TIP3    H261361   4.355   1.129   4.304 -0.5801 -0.1730 -0.8109
13316TIP3   OH261362   1.490   4.479   5.439 -0.4930  0.5176  0.3397
13316TIP3    H161363   1.493   4.491   5.344  2.0970  0.1633  0.2976
13316TIP3    H261364   1.504   4.567   5.474  0.8057  0.3442  0.3143
13317TIP3   OH261365   0.145   6.448   5.278 -0.6177 -0.0853 -0.0106
13317TIP3    H161366   0.239   6.439   5.263 -0.4770  0.2264  0.6558
13317TIP3    H261367   0.112   6.358   5.278 -0.1831 -0.2494  0.5954
13318TIP3   OH261368   4.965   5.374  11.569 -0.0222  0.5113 -0.8633
13318TIP3    H161369   4.997   5.345  11.484  1.3977 -1.7158  0.3421
13318TIP3    H261370   5.044   5.382  11.623 -1.0576 -0.0910  0.7910
13319TIP3   OH261371   2.060   4.188   2.884  0.2125 -0.5639 -0.7349
13319TIP3    H161372   1.977   4.227   2.910 -0.3309 -1.4890 -1.0122
13319TIP3    H261373   2.093   4.145   2.962 -0.9473 -2.5273 -1.2601
13320TIP3   OH261374   5.953   0.704   2.527 -0.1876  0.0439  0.0616
13320TIP3    H161375   5.868   0.661   2.519  0.8760 -2.4186  1.0257
13320TIP3    H261376   5.933   0.797   2.524 -2.7898 -0.4569 -0.8346
13321TIP3   OH261377   0.748   4.802  15.997 -0.5649  0.4196 -0.0808
13321TIP3    H161378   0.838   4.772  16.006 -0.8100  0.0209  1.2584
13321TIP3    H261379   0.703   4.729  15.953 -0.3421  0.4093 -0.2906
13322TIP3   OH261380   3.783   1.495  16.500  0.0703  0.4145 -0.7523
13322TIP3    H161381   3.873   1.471  16.480 -0.1420  0.1675 -1.4711
13322TIP3    H261382   3.732   1.419  16.474 -0.3532  0.5942 -0.4536
13323TIP3   OH261383   6.547   4.095   2.571 -0.0546 -0.6779 -0.2525
13323TIP3    H161384   6.506   4.069   2.654  1.7553 -1.0430  0.5822
13323TIP3    H261385   6.535   4.019   2.514 -0.9873 -0.5696 -0.2195
13324TIP3   OH261386   0.736   6.349  12.334 -0.3328  0.4492  0.4471
13324TIP3    H161387   0.709   6.330  12.424  0.4234  0.8136  0.7570
13324TIP3    H261388   0.675   6.298  12.280  0.7894 -1.8483  1.2030
13325TIP3   OH261389   6.693   2.015  15.041 -0.0036  0.1022  0.0264
13325TIP3    H161390   6.716   1.980  15.127  0.7610  1.3671  0.3663
13325TIP3    H261391   6.602   2.044  15.051 -0.0650 -0.1757  0.2751
13326TIP3   OH261392   5.219   2.291   5.674  0.1985 -0.0986 -0.2556
13326TIP3    H161393   5.265   2.244   5.743  1.3472  0.7089 -0.4379
13326TIP3    H261394   5.220   2.231   5.599  2.4372  0.4734 -0.7673
13327TIP3   OH261395   4.793   1.474  10.777 -0.0002  0.3709  0.0435
13327TIP3    H161396   4.762   1.561  10.753 -0.6805  0.6587  1.8077
13327TIP3    H261397   4.727   1.414  10.743 -0.0810  0.6274 -0.2529
13328TIP3   OH261398   2.571   3.399  16.394  0.2701 -0.1899  0.0236
13328TIP3    H161399   2.590   3.318  16.442 -1.8772 -0.5862  0.3080
13328TIP3    H261400   2.614   3.387  16.309  0.9186 -1.1442  0.4691
13329TIP3   OH261401   2.683   1.318   5.197 -0.4917 -0.4181 -0.0687
13329TIP3    H161402   2.662   1.402   5.237 -1.8182 -1.0745  0.7008
13329TIP3    H261403   2.775   1.324   5.174 -0.9284  1.8004 -1.4719
13330TIP3   OH261404   4.370   4.718  13.954 -0.1492  0.8565  0.2806
13330TIP3    H161405   4.325   4.655  14.011 -0.7928  1.8114  0.8448
13330TIP3    H261406   4.407   4.664  13.884  0.3055 -0.3044  1.3631
13331TIP3   OH261407   1.409   3.082  16.119 -0.4099  0.5018  0.3751
13331TIP3    H161408   1.349   3.071  16.193  0.8346  0.3966  1.4082
13331TIP3    H261409   1.396   3.173  16.091 -1.5502  0.2675  0.1118
13332TIP3   OH261410   5.767   6.737   5.117 -0.0851 -0.1817 -0.1590
13332TIP3    H161411   5.711   6.704   5.188 -0.9109  0.5428 -0.4656
13332TIP3    H261412   5.799   6.821   5.149  0.3300 -0.3033 -0.2502
13333TIP3   OH261413   2.065   3.508   2.873  0.1566  0.1068 -0.1709
13333TIP3    H161414   2.063   3.544   2.785  1.7967 -2.3142 -1.3053
13333TIP3    H261415   2.128   3.436   2.868 -0.8902 -1.1387  2.5847
13334TIP3   OH261416   0.687   0.394   5.488 -0.1218 -0.1252 -0.3402
13334TIP3    H161417   0.696   0.299   5.496  0.9702  0.1353  2.7146
13334TIP3    H261418   0.776   0.427   5.481 -0.0292  0.8346  3.1447
13335TIP3   OH261419   6.376   5.340  16.913 -0.1150  0.2008  0.3459
13335TIP3    H161420   6.284   5.359  16.897 -0.0563 -0.8055 -1.4796
13335TIP3    H261421   6.424   5.405  16.862  0.2507  1.3296  2.0418
13336TIP3   OH261422   5.571   4.663   2.217  0.6741  0.4579  0.5719
13336TIP3    H161423   5.617   4.711   2.287  1.8683  0.1056  0.0570
13336TIP3    H261424   5.546   4.580   2.257  3.1236 -0.5991  0.0968
13337TIP3   OH261425   0.990   3.566   1.613  0.4209 -0.0016 -0.3680
13337TIP3    H161426   0.922   3.516   1.658  0.2735  0.5238  0.0033
13337TIP3    H261427   0.964   3.657   1.625  2.3879  0.3618  1.7901
13338TIP3   OH261428   5.126   0.515   0.336  0.1411 -0.3899 -0.4052
13338TIP3    H161429   5.207   0.508   0.387  0.2943 -0.2382 -0.6277
13338TIP3    H261430   5.119   0.431   0.291 -1.4974 -1.7334  2.0572
13339TIP3   OH261431   4.366   0.271   4.221  0.2061  0.2225 -0.1651
13339TIP3    H161432   4.339   0.180   4.225 -0.7082  0.4626 -0.4758
13339TIP3    H261433   4.301   0.318   4.274  0.1006  0.7966 -0.7801
13340TIP3   OH261434   1.453   5.681   0.105 -0.1388 -0.1877  0.2766
13340TIP3    H161435   1.513   5.705   0.175 -0.4812 -2.1982  1.3345
13340TIP3    H261436   1.406   5.604   0.138 -1.5917 -0.1265 -1.4619
13341TIP3   OH261437   5.165   3.209   7.015  0.6369 -0.1963 -0.0734
13341TIP3    H161438   5.213   3.146   6.961  0.6659  1.2411 -1.8061
13341TIP3    H261439   5.099   3.157   7.060  0.8313 -1.5068 -1.2423
13342TIP3   OH261440   3.431   5.795   5.177  0.2391 -0.5792 -0.2445
13342TIP3    H161441   3.485   5.865   5.138  0.8825 -0.9772 -0.0860
13342TIP3    H261442   3.408   5.739   5.103  0.7764 -0.8842 -0.1877
13343TIP3   OH261443   5.004   2.839   0.060  0.2345 -0.0841  0.7211
13343TIP3    H161444   5.077   2.879   0.013 -0.5890  0.3587 -0.2025
13343TIP3    H261445   4.926   2.873   0.017 -0.5571  0.2262  2.3134
13344TIP3   OH261446   5.750   5.272  14.381  0.6437 -0.2800 -0.1295
13344TIP3    H161447   5.762   5.301  14.291 -0.4095 -1.1923 -0.5893
13344TIP3    H261448   5.779   5.180  14.381 -1.3708 -0.9603 -0.0893
13345TIP3   OH261449   2.050   4.602   2.900  0.1963  0.2260 -0.2213
13345TIP3    H161450   1.993   4.673   2.870  1.2556  0.8532 -0.8552
13345TIP3    H261451   2.056   4.543   2.825 -2.1394 -1.5609  0.8994
13346TIP3   OH261452   2.541   0.793   1.614 -0.2749 -0.0374 -0.3304
13346TIP3    H161453   2.479   0.820   1.682  0.1469 -1.8190  0.8328
13346TIP3    H261454   2.571   0.707   1.641  0.6445 -0.4109 -2.3151
13347TIP3   OH261455   4.990   6.021   5.366  0.1441  0.2449  0.6182
13347TIP3    H161456   5.040   6.081   5.421 -0.4628  1.9152 -0.5923
13347TIP3    H261457   4.898   6.043   5.382 -0.0994 -0.4473  0.2482
13348TIP3   OH261458   5.413   6.465  11.642  0.2879  0.1922  0.3390
13348TIP3    H161459   5.415   6.374  11.611 -1.1992  0.0916  0.4938
13348TIP3    H261460   5.493   6.473  11.693  0.9092 -0.7526 -0.4297
13349TIP3   OH261461   0.885   0.210  14.518 -0.2819  0.0700 -0.4664
13349TIP3    H161462   0.866   0.172  14.432 -1.1177 -1.2031  0.2396
13349TIP3    H261463   0.964   0.165  14.548  0.8437  1.5353 -1.1412
13350TIP3   OH261464   2.474   2.113   2.300  1.1554 -0.1131  0.2767
13350TIP3    H161465   2.465   2.059   2.378 -0.2454  0.4837  0.5683
13350TIP3    H261466   2.560   2.154   2.308  0.5697  0.8606  2.1281
13351TIP3   OH261467   6.245   3.885   4.679 -0.2586  0.4353 -0.5858
13351TIP3    H161468   6.230   3.849   4.767  0.2231  0.0523 -0.6551
13351TIP3    H261469   6.220   3.977   4.686 -0.4632  0.3481 -0.1131
13352TIP3   OH261470   1.974   1.042   1.589  1.1151 -0.8539  0.3734
13352TIP3    H161471   1.993   1.134   1.567  0.5367 -0.6449  0.7191
13352TIP3    H261472   1.953   1.044   1.682 -0.7207 -1.0252 -0.0019
13353TIP3   OH261473   3.088   0.640  13.837  0.2180 -0.0689 -0.2306
13353TIP3    H161474   3.155   0.641  13.769  2.3462  0.1706  1.7224
13353TIP3    H261475   3.123   0.698  13.905 -2.1845  0.3559  0.7399
13354TIP3   OH261476   2.538   1.035  14.705 -0.2609 -0.5751  0.3367
13354TIP3    H161477   2.479   0.960  14.700 -0.6881 -0.3507  1.5501
13354TIP3    H261478   2.547   1.052  14.799  0.5675  0.3145  0.1152
13355TIP3   OH261479   5.696   4.085   3.992  0.1245  1.0158  0.3334
13355TIP3    H161480   5.649   4.094   3.909  1.4531  1.5545 -0.3850
13355TIP3    H261481   5.646   4.020   4.041 -0.3429  0.2266 -1.1434
13356TIP3   OH261482   4.323   5.805  11.839  0.3946  0.2471 -0.5955
13356TIP3    H161483   4.401   5.846  11.803  0.3088  1.0111  0.0624
13356TIP3    H261484   4.287   5.752  11.767 -0.1643  2.2759 -1.8761
13357TIP3   OH261485   0.521   0.120  14.119  0.1342  0.3764 -0.0876
13357TIP3    H161486   0.490   0.112  14.029 -1.9501 -2.5877  0.7607
13357TIP3    H261487   0.458   0.180  14.160 -1.7732 -1.8270  0.4139
13358TIP3   OH261488   0.557   3.211  12.527 -0.2088  0.0186  0.8535
13358TIP3    H161489   0.484   3.161  12.563 -1.0519  1.7898  1.7389
13358TIP3    H261490   0.611   3.234  12.604 -0.4457  1.3746  0.6364
13359TIP3   OH261491   2.484   5.704  16.911  0.1457 -0.4634  0.0100
13359TIP3    H161492   2.452   5.757  16.984  3.4409  2.0214 -0.1081
13359TIP3    H261493   2.530   5.631  16.953 -0.7395 -0.8738  0.2908
13360TIP3   OH261494   0.706   5.223   4.127  0.2952 -0.0256  0.1587
13360TIP3    H161495   0.757   5.156   4.082  2.1322  1.9789 -0.9037
13360TIP3    H261496   0.771   5.280   4.167 -1.0383  2.6216 -1.2167
13361TIP3   OH261497   6.219   4.128   6.574 -0.0221  0.1235 -0.8644
13361TIP3    H161498   6.168   4.200   6.535  1.6143  0.9930 -1.4936
13361TIP3    H261499   6.267   4.168   6.646 -2.3787 -1.3066  1.7016
13362TIP3   OH261500   0.963   4.080  12.210  0.1009 -0.1704 -0.0542
13362TIP3    H161501   1.012   4.009  12.167  1.5730  1.0119 -0.4125
13362TIP3    H261502   1.031   4.138  12.244 -1.0741  0.2742  1.6046
13363TIP3   OH261503   1.213   2.989  12.171 -0.2994  0.3291 -0.1565
13363TIP3    H161504   1.136   2.947  12.132 -1.2020  2.0616 -0.3154
13363TIP3    H261505   1.252   3.039  12.099  1.3526 -0.9457 -0.2263
13364TIP3   OH261506   4.146   2.180   4.755 -0.6437 -0.5473  0.0756
13364TIP3    H161507   4.216   2.210   4.696  0.7112 -0.7509  1.5195
13364TIP3    H261508   4.188   2.113   4.809 -1.7363 -0.1261  1.4943
13365TIP3   OH261509   0.180   0.964  13.052  0.1356  0.5794  0.3676
13365TIP3    H161510   0.156   0.931  12.965  0.0761 -0.0991  0.6321
13365TIP3    H261511   0.178   1.059  13.043  1.9328  0.5421 -0.8705
13366TIP3   OH261512   2.756   0.423   5.225  0.1864  0.4126 -0.0851
13366TIP3    H161513   2.698   0.377   5.286 -1.0517  2.3329  0.2688
13366TIP3    H261514   2.772   0.359   5.156 -1.6546 -0.5069  0.2530
13367TIP3   OH261515   4.331   0.335  16.602 -0.4293 -0.8287  0.5891
13367TIP3    H161516   4.373   0.376  16.678 -1.1200  1.1536 -0.0373
13367TIP3    H261517   4.279   0.405  16.562  0.2971 -1.6625 -2.0195
13368TIP3   OH261518   1.907   6.182   3.920 -0.5727 -0.6588 -0.2462
13368TIP3    H161519   1.890   6.107   3.863  1.2696 -1.9206  0.7513
13368TIP3    H261520   1.942   6.249   3.862  1.2101 -1.9007 -0.7215
13369TIP3   OH261521   4.886   2.593  10.653 -0.2582  0.1496  0.1436
13369TIP3    H161522   4.946   2.668  10.654  0.4601 -0.3713 -1.5802
13369TIP3    H261523   4.941   2.518  10.629 -0.9465 -0.9813  1.8895
13370TIP3   OH261524   4.720   3.773   1.635  0.3612 -0.4670 -0.3003
13370TIP3    H161525   4.801   3.741   1.675 -0.9297 -1.6168  1.5558
13370TIP3    H261526   4.659   3.700   1.644 -0.6798  0.0805 -2.3993
13371TIP3   OH261527   5.106   3.688  16.663  0.5814  0.1868 -0.1167
13371TIP3    H161528   5.175   3.705  16.598  1.2272 -1.3766  0.1335
13371TIP3    H261529   5.148   3.635  16.730 -0.0776  1.7589  1.6319
13372TIP3   OH261530   5.822   4.926   5.965 -0.4615 -0.2201  0.8666
13372TIP3    H161531   5.752   4.987   5.990 -0.4163  0.0462  0.3535
13372TIP3    H261532   5.777   4.843   5.951 -0.6264 -0.1326  0.8715
13373TIP3   OH261533   5.131   1.671  10.522  0.3478  0.0371  0.3270
13373TIP3    H161534   5.070   1.666  10.449  0.1847 -1.0380  0.5189
13373TIP3    H261535   5.076   1.655  10.599  0.4104  1.7404  0.7484
13374TIP3   OH261536   1.249   0.037   3.560 -0.1453 -0.0317  0.1108
13374TIP3    H161537   1.223   0.128   3.574  1.2511  0.8874 -2.4844
13374TIP3    H261538   1.177  -0.001   3.510 -0.4116 -0.1603  0.5853
13375TIP3   OH261539   1.755   5.399  15.122  0.3112  0.5551 -0.3953
13375TIP3    H161540   1.743   5.452  15.201  2.0455 -0.6371  0.7303
13375TIP3    H261541   1.751   5.309  15.152 -3.1198 -0.1298 -2.3553
13376TIP3   OH261542   2.618   6.548  15.336 -0.1144 -0.2979 -0.1525
13376TIP3    H161543   2.704   6.508  15.320 -0.7668 -1.6893 -0.3355
13376TIP3    H261544   2.560   6.505  15.274 -0.8616  1.0115 -0.3961
13377TIP3   OH261545   5.196   0.832  10.906  0.3051 -0.6912  0.1248
13377TIP3    H161546   5.257   0.763  10.932 -2.3456 -3.0500  0.5856
13377TIP3    H261547   5.169   0.808  10.817  0.8986  0.9970 -0.5498
13378TIP3   OH261548   4.181   4.589   1.273 -0.6145 -0.3175  0.1723
13378TIP3    H161549   4.179   4.676   1.236 -0.6102 -0.3968 -0.0136
13378TIP3    H261550   4.176   4.530   1.198  0.4246 -0.4899  0.2205
13379TIP3   OH261551   6.041   5.011  16.310 -0.4348  0.0070 -0.3675
13379TIP3    H161552   6.120   5.001  16.364 -1.0139  1.2011  0.7498
13379TIP3    H261553   5.971   4.974  16.364 -0.7021 -0.7407 -1.2139
13380TIP3   OH261554   2.020   1.178   2.862 -0.1991 -0.1154 -0.0282
13380TIP3    H161555   1.996   1.225   2.782  3.0695  1.3850 -0.2823
13380TIP3    H261556   1.981   1.229   2.933 -0.2872  0.4973 -0.5150
13381TIP3   OH261557   3.332   3.660   0.739 -0.3063 -0.2550  0.2779
13381TIP3    H161558   3.265   3.699   0.793 -0.9610 -0.5715 -0.2889
13381TIP3    H261559   3.383   3.734   0.705 -0.3285 -0.0214  0.7524
13382TIP3   OH261560   3.036   3.623   3.855  0.0562 -0.3356 -0.1368
13382TIP3    H161561   3.054   3.551   3.794 -1.6630 -0.0807 -1.0259
13382TIP3    H261562   3.049   3.702   3.803 -1.5486 -0.1154 -0.2572
13383TIP3   OH261563   0.098   2.919   4.900 -0.4233 -0.3532 -0.2427
13383TIP3    H161564   0.008   2.893   4.880 -0.5700  0.6882 -1.0564
13383TIP3    H261565   0.149   2.839   4.891 -1.2719 -0.9736  0.2945
13384TIP3   OH261566   5.102   0.214  13.038 -0.1793 -0.1793  0.7534
13384TIP3    H161567   5.081   0.235  13.129 -1.2330 -1.6892  0.9036
13384TIP3    H261568   5.197   0.224  13.032 -0.2566  1.3856  1.6016
13385TIP3   OH261569   0.137   5.744  12.921 -0.1681  0.0364  0.4533
13385TIP3    H161570   0.077   5.732  12.995 -0.5182 -0.9914  0.0245
13385TIP3    H261571   0.119   5.832  12.889 -2.2764 -0.6197 -0.3540
13386TIP3   OH261572   4.820   1.047  10.819 -0.4045  0.1751  0.4955
13386TIP3    H161573   4.755   1.059  10.750  1.3590  1.4325 -1.0423
13386TIP3    H261574   4.786   0.975  10.872 -1.7809 -0.9591 -1.7777
13387TIP3   OH261575   1.303   2.487   4.920 -0.2174  0.6369  0.2067
13387TIP3    H161576   1.267   2.475   5.008 -1.6944  0.8237 -0.3451
13387TIP3    H261577   1.397   2.502   4.934 -0.1259 -0.9162  1.6291
13388TIP3   OH261578   2.975   4.151  15.501 -0.1574  0.6813 -0.0990
13388TIP3    H161579   3.030   4.074  15.486 -1.0192  0.0959 -0.3347
13388TIP3    H261580   2.950   4.179  15.413  0.5818  1.5631 -0.0413
13389TIP3   OH261581   3.839   1.122   5.237  0.0587 -0.0870 -0.7683
13389TIP3    H161582   3.815   1.209   5.270  1.1088  0.1256 -0.5299
13389TIP3    H261583   3.933   1.116   5.253 -0.1018 -1.4924 -0.2849
13390TIP3   OH261584   0.221   4.508  12.916 -0.6422 -0.3551 -0.2401
13390TIP3    H161585   0.266   4.445  12.859 -0.2417  0.5005 -0.8928
13390TIP3    H261586   0.135   4.469  12.931 -0.5413 -0.8807 -0.9435
13391TIP3   OH261587   0.082   0.299   0.936  0.1599  0.4085  0.0554
13391TIP3    H161588   0.021   0.342   0.996 -1.2730 -0.6534 -0.5854
13391TIP3    H261589   0.123   0.231   0.989  0.0889  0.5008  0.2324
13392TIP3   OH261590   0.123   1.351  13.278 -0.1067  0.0382 -0.3784
13392TIP3    H161591   0.038   1.387  13.252  0.8403  2.6001 -0.2310
13392TIP3    H261592   0.133   1.378  13.369  0.1103 -1.8571  0.2000
13393TIP3   OH261593   6.584   6.510  14.765  0.0922  0.1743 -0.5283
13393TIP3    H161594   6.665   6.518  14.814  0.0477  0.3429 -0.4802
13393TIP3    H261595   6.521   6.563  14.815 -0.1967 -0.4312 -0.2417
13394TIP3   OH261596   4.209   3.253  14.060 -0.0043  0.4388  0.3939
13394TIP3    H161597   4.181   3.315  13.992  0.2779 -0.1324 -0.2570
13394TIP3    H261598   4.128   3.229  14.105 -0.2781  0.3851 -0.1200
13395TIP3   OH261599   2.986   4.763  16.608  0.0462 -1.1688 -0.6651
13395TIP3    H161600   3.052   4.832  16.617  1.1634 -2.2815  0.0070
13395TIP3    H261601   2.987   4.740  16.515 -0.9136  0.2398 -1.0505
13396TIP3   OH261602   3.768   3.593   5.300 -0.2968 -0.3862 -0.2699
13396TIP3    H161603   3.827   3.546   5.359 -1.4474 -2.0025 -0.3425
13396TIP3    H261604   3.817   3.671   5.276  1.2417 -0.9586  0.7798
13397TIP3   OH261605   1.785   6.477  16.023 -0.2739  0.2593  0.0218
13397TIP3    H161606   1.879   6.466  16.039  0.1823  0.1725 -2.3386
13397TIP3    H261607   1.780   6.532  15.945 -2.0117 -3.0652 -2.4907
13398TIP3   OH261608   2.142   2.447  15.195  0.0279  0.1832  0.5508
13398TIP3    H161609   2.085   2.390  15.144  0.5053 -0.4379  0.6996
13398TIP3    H261610   2.163   2.396  15.273  2.4813 -0.4794 -0.4603
13399TIP3   OH261611   5.318   2.311   0.729  0.0737 -0.6793  0.1228
13399TIP3    H161612   5.258   2.386   0.724  0.2525 -0.5605 -0.2950
13399TIP3    H261613   5.388   2.333   0.667  0.8886 -0.5136  1.0819
13400TIP3   OH261614   5.224   4.541   5.937  0.2731  0.2450  0.4684
13400TIP3    H161615   5.252   4.509   6.022  0.2054  1.9871  1.1910
13400TIP3    H261616   5.138   4.581   5.954 -0.8355 -1.3914 -0.8995
13401TIP3   OH261617   1.938   5.001   5.400 -0.2266  0.3928 -0.1530
13401TIP3    H161618   1.908   5.091   5.415  1.7622  1.3593 -1.6106
13401TIP3    H261619   1.914   4.955   5.481 -3.9189  1.4216 -0.4545
13402TIP3   OH261620   0.504   1.332   5.739  0.3160  0.0276  0.7001
13402TIP3    H161621   0.524   1.400   5.675  0.3299  0.0647  0.7434
13402TIP3    H261622   0.446   1.375   5.802 -0.2716 -0.2078  0.3251
13403TIP3   OH261623   1.090   4.977   1.758  0.0867 -0.0318 -0.0069
13403TIP3    H161624   1.051   4.891   1.769 -0.9748  0.5520  1.0251
13403TIP3    H261625   1.100   4.987   1.663 -0.2952 -1.0639 -0.1668
13404TIP3   OH261626   0.787   1.282   0.279  0.2163  0.9887  0.0395
13404TIP3    H161627   0.861   1.257   0.224  0.9620  3.2041 -0.0263
13404TIP3    H261628   0.825   1.294   0.367 -0.2066  1.3821  0.1719
13405TIP3   OH261629   3.495   5.926   6.339 -0.3776 -0.1354  0.3530
13405TIP3    H161630   3.430   5.968   6.396 -1.1962 -1.3173  0.3307
13405TIP3    H261631   3.579   5.943   6.380 -0.9568 -1.0392  1.9963
13406TIP3   OH261632   0.886   0.830  14.242 -0.0010  0.1144  0.4384
13406TIP3    H161633   0.914   0.921  14.248 -0.5033  0.3517 -0.5740
13406TIP3    H261634   0.962   0.779  14.270  0.5577  0.8132  0.2231
13407TIP3   OH261635   1.721   1.217  15.770 -0.3225 -0.1722  0.4322
13407TIP3    H161636   1.776   1.233  15.846 -1.5801  0.2941  1.2920
13407TIP3    H261637   1.636   1.256  15.794 -0.7802 -0.1265 -1.1604
13408TIP3   OH261638   1.186   4.204  15.504  0.7885 -0.5291  0.1847
13408TIP3    H161639   1.198   4.218  15.598 -0.0847  2.4228 -0.0593
13408TIP3    H261640   1.265   4.241  15.464  1.8349 -3.0487 -0.2603
13409TIP3   OH261641   5.591   1.184   3.760  0.2974 -0.1820 -0.1263
13409TIP3    H161642   5.651   1.175   3.834 -0.1151 -1.2628  0.0842
13409TIP3    H261643   5.546   1.100   3.755 -1.7544  0.8428  0.1845
13410TIP3   OH261644   6.131   5.400   4.136  0.1945  0.2837  0.3732
13410TIP3    H161645   6.100   5.309   4.142 -0.7052  0.6561  1.8930
13410TIP3    H261646   6.100   5.441   4.217  0.5210  1.9782 -0.3280
13411TIP3   OH261647   0.528   6.384   0.557  0.3743  0.1742  0.1609
13411TIP3    H161648   0.545   6.394   0.651 -1.8621  0.1137  0.6283
13411TIP3    H261649   0.532   6.290   0.542 -0.9835  0.0318  0.5916
13412TIP3   OH261650   2.550   1.707   6.078  0.1613  0.5574  0.4261
13412TIP3    H161651   2.585   1.619   6.094 -0.4326  0.1262 -0.5458
13412TIP3    H261652   2.456   1.698   6.092  0.2408  1.3727  1.6273
13413TIP3   OH261653   1.409   0.885  14.858 -0.6343 -0.2870 -0.1541
13413TIP3    H161654   1.404   0.922  14.770  1.8979  0.6936  0.0401
13413TIP3    H261655   1.503   0.877  14.876 -1.0736 -1.9325  1.8791
13414TIP3   OH261656   6.208   5.787  13.486 -0.0946 -0.3192  0.0582
13414TIP3    H161657   6.123   5.817  13.454  0.0771  1.2193  0.9653
13414TIP3    H261658   6.214   5.822  13.574  2.4142  1.5296 -0.7396
13415TIP3   OH261659   2.349   4.340   2.952 -0.0188 -0.0354  0.3295
13415TIP3    H161660   2.297   4.262   2.930  1.1154 -0.9053  0.6653
13415TIP3    H261661   2.300   4.382   3.023 -0.9308 -0.1200 -0.2322
13416TIP3   OH261662   2.083   4.074   4.684  0.1208  0.4033  0.1058
13416TIP3    H161663   2.051   4.112   4.766 -0.6174 -0.3604  0.1917
13416TIP3    H261664   2.178   4.078   4.691  0.0670  0.3984  0.9853
13417TIP3   OH261665   1.298   0.116  12.627  0.2794  0.5722 -0.2780
13417TIP3    H161666   1.345   0.043  12.588  0.7559  0.5641  0.2953
13417TIP3    H261667   1.252   0.157  12.554  1.2371  0.6225 -0.8665
13418TIP3   OH261668   4.780   5.827   3.962 -0.1147  0.3535 -0.3056
13418TIP3    H161669   4.714   5.826   4.032 -0.4069 -1.8332 -0.5431
13418TIP3    H261670   4.732   5.800   3.884  1.2044 -2.4895 -0.2610
13419TIP3   OH261671   5.920   1.771  16.068  0.4291  0.2196 -0.1174
13419TIP3    H161672   5.884   1.811  16.147  2.3650 -1.4834  1.7517
13419TIP3    H261673   5.853   1.709  16.039 -0.4119  1.0671 -0.0294
13420TIP3   OH261674   1.900   3.396  15.376 -1.3029  0.0853 -0.6179
13420TIP3    H161675   1.958   3.355  15.313 -0.7576  1.7969 -1.2705
13420TIP3    H261676   1.945   3.386  15.460  0.6195  2.4411 -1.2614
13421TIP3   OH261677   0.992   0.100  13.074  0.0539  0.2458  0.0249
13421TIP3    H161678   0.917   0.149  13.041  0.0185  0.8667  0.9827
13421TIP3    H261679   1.010   0.035  13.006 -1.5363 -0.1201 -0.0963
13422TIP3   OH261680   2.395   0.008   1.871 -0.7651  0.0631  0.3731
13422TIP3    H161681   2.345  -0.038   1.938  1.5759  1.7324  3.5273
13422TIP3    H261682   2.397   0.099   1.900 -2.0785  1.5969 -3.6430
13423TIP3   OH261683   0.075   5.970   0.578 -0.2454 -0.0288  0.9674
13423TIP3    H161684   0.128   6.050   0.576 -0.6232  0.2158  0.4559
13423TIP3    H261685   0.133   5.902   0.545 -0.6273  0.4848 -0.8927
13424TIP3   OH261686   3.853   4.035   3.979  0.4941  0.5262  0.5344
13424TIP3    H161687   3.796   4.103   3.943  1.1837  0.5837 -0.4808
13424TIP3    H261688   3.868   3.975   3.906  1.4672  0.3387  0.8755
13425TIP3   OH261689   1.574   1.903  14.619 -0.0486 -0.6111  0.7489
13425TIP3    H161690   1.550   1.994  14.635 -0.3531 -0.5063 -0.2844
13425TIP3    H261691   1.636   1.882  14.690  0.0938  0.4167  0.9403
13426TIP3   OH261692   5.729   3.720  15.992 -0.6188  0.5253 -0.5982
13426TIP3    H161693   5.684   3.753  16.069 -0.7690 -0.5183 -0.2167
13426TIP3    H261694   5.662   3.670  15.945 -0.7440  1.7923 -1.8443
13427TIP3   OH261695   3.398   1.713   2.771  0.1765 -0.3096 -0.7744
13427TIP3    H161696   3.393   1.630   2.819 -0.0010  1.5866  2.8665
13427TIP3    H261697   3.492   1.729   2.762  0.2133 -0.5016 -0.7442
13428TIP3   OH261698   2.261   5.663  10.561  0.0640 -0.4082 -0.2538
13428TIP3    H161699   2.220   5.745  10.533 -0.9021 -1.0351 -0.7632
13428TIP3    H261700   2.250   5.604  10.486  1.7945 -0.6687 -0.3484
13429TIP3   OH261701   0.518   5.670  17.150 -0.0331  0.1540 -0.1379
13429TIP3    H161702   0.557   5.600  17.097 -1.3700 -2.1683  1.7473
13429TIP3    H261703   0.586   5.693  17.214  0.1564  0.0559 -0.3048
13430TIP3   OH261704   4.956   6.362  12.049 -0.4209  0.1954  0.0832
13430TIP3    H161705   5.028   6.385  12.108 -1.0314  0.3100  0.8047
13430TIP3    H261706   4.994   6.364  11.962 -0.0061  2.1675  0.2810
13431TIP3   OH261707   2.415   4.519  11.490 -0.0374  1.0259  0.3589
13431TIP3    H161708   2.383   4.609  11.483  0.1510  1.1350  0.8669
13431TIP3    H261709   2.339   4.468  11.519 -0.2853  0.9214 -0.4345
13432TIP3   OH261710   1.603   5.370  15.575  0.2044  0.1866  0.3010
13432TIP3    H161711   1.679   5.424  15.550  0.8093 -1.0599 -0.6913
13432TIP3    H261712   1.529   5.412  15.532  0.4782  0.8575  0.4611
13433TIP3   OH261713   5.371   0.474   1.329 -0.0029 -0.1877  0.4379
13433TIP3    H161714   5.286   0.448   1.295 -0.7019  0.6865  1.4389
13433TIP3    H261715   5.434   0.422   1.280 -1.1087 -0.7930 -0.3733
13434TIP3   OH261716   3.099   0.499  14.606  1.1680  0.3232  0.0412
13434TIP3    H161717   3.165   0.501  14.675  0.6195 -2.1676  0.7689
13434TIP3    H261718   3.102   0.409  14.573 -1.6824  0.1546 -0.0223
13435TIP3   OH261719   1.221   2.656   5.286 -0.5536 -0.2643  0.2329
13435TIP3    H161720   1.316   2.669   5.297 -0.4233 -1.3564  0.5609
13435TIP3    H261721   1.182   2.738   5.315  0.3462  0.6689 -1.0631
13436TIP3   OH261722   1.100   4.046   5.484 -0.1242  0.1835  0.2909
13436TIP3    H161723   1.158   4.096   5.427  0.1441 -0.6106 -0.1443
13436TIP3    H261724   1.131   3.956   5.477 -0.2808  0.0251  1.4608
13437TIP3   OH261725   1.470   1.331  15.008 -0.5072  0.0558  0.0251
13437TIP3    H161726   1.471   1.329  14.912  0.3265 -0.7799  0.0320
13437TIP3    H261727   1.381   1.355  15.031 -0.6498  0.5302 -0.9629
13438TIP3   OH261728   5.745   1.426  10.205  0.1701 -0.3259 -0.1955
13438TIP3    H161729   5.764   1.419  10.111 -0.6521 -1.5189 -0.2957
13438TIP3    H261730   5.828   1.456  10.244  0.0665  1.8925 -1.4692
13439TIP3   OH261731   6.099   2.345  16.034 -0.9366 -0.5638  0.3219
13439TIP3    H161732   6.159   2.304  15.973  2.2587  0.3109  2.6452
13439TIP3    H261733   6.069   2.424  15.989  0.0702 -0.7584 -0.7267
13440TIP3   OH261734   4.175   2.136   5.255  0.5628 -0.2523 -0.0199
13440TIP3    H161735   4.261   2.103   5.280 -0.4842 -0.5677  4.0352
13440TIP3    H261736   4.184   2.231   5.254  1.0753 -0.3003 -0.0430
13441TIP3   OH261737   1.440   1.840  17.058 -0.3386  0.4168 -0.3781
13441TIP3    H161738   1.469   1.819  16.970  2.0415  0.2333  0.3830
13441TIP3    H261739   1.456   1.760  17.109  0.6229  1.2634  0.7081
13442TIP3   OH261740   5.402   0.852  12.118  0.6851  0.5518 -0.3905
13442TIP3    H161741   5.456   0.834  12.195 -0.7484  1.1859  0.8177
13442TIP3    H261742   5.346   0.775  12.110 -0.4591  1.2751  0.3775
13443TIP3   OH261743   4.377   3.507  16.454 -0.1865 -0.2876 -0.4544
13443TIP3    H161744   4.471   3.519  16.441 -0.0494  0.2807  0.8882
13443TIP3    H261745   4.355   3.430  16.401  0.7891  0.2759 -1.7257
13444TIP3   OH261746   4.506   5.573  16.820 -0.4846  0.4870  0.0347
13444TIP3    H161747   4.429   5.534  16.778 -0.4613 -0.3453  0.7415
13444TIP3    H261748   4.569   5.500  16.827  0.5060  1.2188 -0.8226
13445TIP3   OH261749   2.666   1.424  11.025 -0.1211  0.2207 -0.3079
13445TIP3    H161750   2.641   1.446  10.935 -0.1685  1.9552  0.0829
13445TIP3    H261751   2.752   1.382  11.016 -0.1369  0.3451 -1.1710
13446TIP3   OH261752   4.345   6.661   0.544 -0.5562 -0.1685  0.0312
13446TIP3    H161753   4.338   6.568   0.525  0.4538 -0.1252 -0.6318
13446TIP3    H261754   4.310   6.670   0.633  1.3387 -1.5234  0.9746
13447TIP3   OH261755   1.909   5.229  11.237  0.0263  0.2090  0.4328
13447TIP3    H161756   1.839   5.181  11.281 -0.3709  0.5640  0.1882
13447TIP3    H261757   1.907   5.198  11.146  2.3924 -2.3210  1.1217
13448TIP3   OH261758   1.352   4.842  15.616  0.0484  0.7901 -0.2434
13448TIP3    H161759   1.396   4.926  15.609  2.0050 -0.2847 -1.7042
13448TIP3    H261760   1.310   4.829  15.531  1.6205 -0.6459 -0.8380
13449TIP3   OH261761   6.570   0.673   2.048 -0.0637  1.0749 -0.2786
13449TIP3    H161762   6.583   0.665   2.142  0.2952  2.0622 -0.2318
13449TIP3    H261763   6.484   0.713   2.039 -0.6984 -0.2731 -0.4257
13450TIP3   OH261764   4.123   1.674  16.471  0.1256 -0.1430  0.3317
13450TIP3    H161765   4.114   1.611  16.399 -0.9655  0.0930  0.2505
13450TIP3    H261766   4.033   1.693  16.498  0.5111 -0.1743  1.7247
13451TIP3   OH261767   4.368   2.526  11.254 -0.2189 -0.3691  0.4806
13451TIP3    H161768   4.449   2.577  11.265  0.0889 -1.0454  1.5374
13451TIP3    H261769   4.330   2.559  11.173  0.2395  1.1704  0.8452
13452TIP3   OH261770   3.983   4.302   0.299 -0.0617 -0.5107  0.0542
13452TIP3    H161771   3.906   4.252   0.327 -0.1480  0.0125  0.7842
13452TIP3    H261772   3.984   4.293   0.204 -2.3273  1.2934 -0.2381
13453TIP3   OH261773   4.788   6.291   0.896  0.3097  0.3951  0.0166
13453TIP3    H161774   4.761   6.272   0.986 -0.2409  1.5116  0.1043
13453TIP3    H261775   4.713   6.337   0.858  0.6919  0.2864 -0.8911
13454TIP3   OH261776   1.621   5.527   4.379 -0.1902  0.3915  0.5636
13454TIP3    H161777   1.558   5.598   4.394 -2.0306 -1.0060 -0.1096
13454TIP3    H261778   1.569   5.448   4.385  1.6566 -0.8839  0.5167
13455TIP3   OH261779   6.642   0.605   0.859  0.2121 -0.2420 -0.2212
13455TIP3    H161780   6.648   0.557   0.942  0.2096  0.4499  0.1894
13455TIP3    H261781   6.726   0.589   0.816  1.0971  1.0884  0.8805
13456TIP3   OH261782   1.538   1.130   4.355 -0.2817 -1.0115  0.2310
13456TIP3    H161783   1.520   1.165   4.268  3.1622  0.9758  0.1204
13456TIP3    H261784   1.455   1.140   4.402 -1.8266 -0.7462 -2.3374
13457TIP3   OH261785   6.125   1.805   3.855  0.1433  0.3426 -0.5761
13457TIP3    H161786   6.049   1.747   3.843  1.2446 -2.5308  3.7912
13457TIP3    H261787   6.201   1.751   3.836  1.2329 -0.1123  3.8388
13458TIP3   OH261788   4.450   3.635   4.556 -0.1709  0.5301 -0.0426
13458TIP3    H161789   4.498   3.568   4.605  0.8132  1.6905  0.6445
13458TIP3    H261790   4.517   3.676   4.501 -0.8660  0.6085 -0.8358
13459TIP3   OH261791   1.767   6.093   4.786 -0.3654 -0.3253 -0.0845
13459TIP3    H161792   1.823   6.035   4.837  0.6458  0.2251 -0.5391
13459TIP3    H261793   1.822   6.169   4.766 -0.8962 -0.2896 -1.5337
13460TIP3   OH261794   1.386   4.313   1.192  0.2006 -1.1593  0.2249
13460TIP3    H161795   1.398   4.393   1.140 -1.6200 -0.5292  0.6856
13460TIP3    H261796   1.458   4.316   1.256  0.7492 -0.4172 -0.3967
13461TIP3   OH261797   1.176   3.629   0.867  0.0954  0.2451  0.0400
13461TIP3    H161798   1.258   3.580   0.857 -0.7331 -1.8785  2.5461
13461TIP3    H261799   1.112   3.577   0.818 -0.2965  0.2246  0.5671
13462TIP3   OH261800   4.958   2.160  13.687  0.1519 -0.0069  0.4256
13462TIP3    H161801   4.947   2.085  13.745  0.9752  0.0869  0.7185
13462TIP3    H261802   5.040   2.201  13.716  0.3670  0.2759 -0.5407
13463TIP3   OH261803   4.183   2.922  16.334  0.0673  0.6929 -0.1451
13463TIP3    H161804   4.113   2.982  16.307 -2.4000 -0.0375  3.9325
13463TIP3    H261805   4.144   2.835  16.326  1.5122  0.0432 -0.3349
13464TIP3   OH261806   4.819   2.675  16.901  0.6149  0.1475 -0.1028
13464TIP3    H161807   4.890   2.740  16.905 -0.3316  1.2504 -0.5976
13464TIP3    H261808   4.809   2.658  16.808 -1.3445  1.8354 -0.2590
13465TIP3   OH261809   6.774   1.103  14.382  0.0064 -0.5421 -0.2320
13465TIP3    H161810   6.857   1.084  14.339 -0.6929 -1.1583 -1.3188
13465TIP3    H261811   6.788   1.190  14.421  0.5081  0.2595 -2.0916
13466TIP3   OH261812   5.560   1.950  13.218 -0.5063  0.1222 -0.1461
13466TIP3    H161813   5.553   2.045  13.226  0.5537  0.3455 -1.5584
13466TIP3    H261814   5.612   1.936  13.139  0.7777 -1.6151  0.9385
13467TIP3   OH261815   0.076   3.191  16.487 -0.4961  0.2301 -0.2966
13467TIP3    H161816   0.001   3.217  16.434  0.0222  0.1379 -1.1019
13467TIP3    H261817   0.081   3.096  16.478 -0.7785  0.1405  0.4386
13468TIP3   OH261818   6.164   1.818  15.989 -0.0630 -0.1392  0.4819
13468TIP3    H161819   6.174   1.770  15.907 -1.1186  0.2870  0.0939
13468TIP3    H261820   6.069   1.819  16.005  0.0060  1.0911  0.9157
13469TIP3   OH261821   4.547   2.287   0.356 -0.2486  0.3855  0.6245
13469TIP3    H161822   4.539   2.256   0.446 -0.2814 -0.4690  0.3287
13469TIP3    H261823   4.618   2.236   0.319 -0.9472 -0.0456 -0.1573
13470TIP3   OH261824   3.673   4.985   1.414 -0.1891  0.3328  0.4580
13470TIP3    H161825   3.631   4.922   1.473 -1.5520  1.5090  0.8087
13470TIP3    H261826   3.606   5.052   1.401  0.8652  1.1725 -0.7336
13471TIP3   OH261827   4.834   6.118   0.118  0.2336 -0.7046 -0.5854
13471TIP3    H161828   4.864   6.207   0.139 -0.1869 -0.1625 -2.1077
13471TIP3    H261829   4.741   6.118   0.142  0.4668 -1.0612  0.3329
13472TIP3   OH261830   5.467   4.790  13.417  0.3934 -0.7505 -0.0324
13472TIP3    H161831   5.556   4.756  13.413  0.2495 -1.3001  0.9689
13472TIP3    H261832   5.472   4.861  13.481  0.1086 -0.7974  0.0405
13473TIP3   OH261833   5.803   6.171  16.172 -0.3127 -0.0612  0.2982
13473TIP3    H161834   5.865   6.128  16.231 -2.7514 -3.0002  0.9630
13473TIP3    H261835   5.737   6.208  16.231 -1.7490 -1.3035 -0.4916
13474TIP3   OH261836   3.505   5.542   3.792  0.1577 -0.6576  0.2728
13474TIP3    H161837   3.557   5.617   3.764 -2.1424  1.1273  0.4473
13474TIP3    H261838   3.529   5.529   3.884  0.2360  0.1862  0.3799
13475TIP3   OH261839   1.127   2.387  15.204 -0.0392 -0.1950  0.0518
13475TIP3    H161840   1.066   2.323  15.169 -0.4046 -1.5994  2.9903
13475TIP3    H261841   1.078   2.469  15.205 -0.4250 -0.3740 -1.3555
13476TIP3   OH261842   5.751   3.793   1.931 -0.1519 -0.1266  0.6116
13476TIP3    H161843   5.687   3.783   2.001 -2.0233 -3.2484 -1.3024
13476TIP3    H261844   5.829   3.748   1.963 -1.0272 -1.6263  0.7228
13477TIP3   OH261845   6.598   2.397   5.644  0.1925  0.7466  0.3779
13477TIP3    H161846   6.686   2.373   5.671 -0.1610 -1.3070 -0.1146
13477TIP3    H261847   6.543   2.382   5.721 -0.3930 -2.5602 -0.5136
13478TIP3   OH261848   6.500   3.325   4.364  0.0805 -0.3612  0.3600
13478TIP3    H161849   6.578   3.271   4.372  0.9769  0.4676 -1.9190
13478TIP3    H261850   6.431   3.265   4.337  0.9360 -0.5399 -1.6111
13479TIP3   OH261851   0.387   2.970  15.840  0.1041  0.3215 -0.1514
13479TIP3    H161852   0.316   2.975  15.904  2.4716 -1.2640  2.8724
13479TIP3    H261853   0.351   2.916  15.770 -1.7938 -0.1564  1.1029
13480TIP3   OH261854   0.864   1.832  12.727 -0.2493  0.1946 -0.1050
13480TIP3    H161855   0.835   1.742  12.713 -1.7720  0.6901 -0.3576
13480TIP3    H261856   0.784   1.884  12.717  0.6229  1.5803 -0.0690
13481TIP3   OH261857   1.993   6.157   2.627 -0.3799 -0.1482  0.3834
13481TIP3    H161858   1.999   6.063   2.645 -0.3351 -0.0490  0.9025
13481TIP3    H261859   2.082   6.190   2.641  0.6224 -0.6332 -3.5367
13482TIP3   OH261860   5.406   1.378  11.829  0.3994  0.0892 -0.2571
13482TIP3    H161861   5.483   1.363  11.884  1.9849 -0.1579 -2.3766
13482TIP3    H261862   5.417   1.316  11.756 -1.0970  1.0215 -1.3345
13483TIP3   OH261863   5.074   1.747  13.211 -0.4838  0.0055 -0.2718
13483TIP3    H161864   5.023   1.799  13.273  2.1744  1.8575  0.5451
13483TIP3    H261865   5.115   1.812  13.154  0.6989 -1.3910 -1.0854
13484TIP3   OH261866   2.378   2.865  16.037  0.0365 -0.3211 -1.0116
13484TIP3    H161867   2.311   2.926  16.070 -1.8838 -3.1128  0.6676
13484TIP3    H261868   2.357   2.854  15.945 -0.2843  0.6363 -1.0710
13485TIP3   OH261869   6.499   6.177  16.802 -0.4855  0.4110 -0.0745
13485TIP3    H161870   6.476   6.086  16.787 -1.2781 -0.0842  3.3807
13485TIP3    H261871   6.423   6.227  16.771 -0.5336 -0.1479 -0.8878
13486TIP3   OH261872   2.875   2.813   2.297 -0.0193  0.0834 -0.7194
13486TIP3    H161873   2.834   2.820   2.382 -0.2917  1.0290 -0.9126
13486TIP3    H261874   2.854   2.725   2.266 -0.5897  0.0186 -0.1530
13487TIP3   OH261875   6.144   5.107  14.657  0.1478  0.0850 -0.3024
13487TIP3    H161876   6.101   5.171  14.601 -0.5622 -0.2713 -0.1891
13487TIP3    H261877   6.237   5.127  14.651 -0.0150  0.7362 -0.7425
13488TIP3   OH261878   4.308   1.150   4.698  0.1965 -0.8058 -0.1582
13488TIP3    H161879   4.342   1.217   4.758 -0.4280  0.2417 -0.9212
13488TIP3    H261880   4.273   1.082   4.755  1.8852 -1.0497  0.6350
13489TIP3   OH261881   5.772   1.026  13.128 -0.3350  0.2569  0.6478
13489TIP3    H161882   5.821   0.944  13.134 -1.7758 -0.5928  1.4505
13489TIP3    H261883   5.838   1.095  13.135  0.9973 -0.8179 -0.8437
13490TIP3   OH261884   1.269   3.542  11.017 -0.4036  0.1250  0.2184
13490TIP3    H161885   1.286   3.597  10.940 -0.9869  0.0052 -0.0027
13490TIP3    H261886   1.355   3.527  11.055 -0.2178  1.1265  0.2350
13491TIP3   OH261887   5.257   3.839  14.497 -0.2572  0.3332  0.8546
13491TIP3    H161888   5.221   3.785  14.427  1.1916  0.3944  0.0079
13491TIP3    H261889   5.348   3.809  14.506  1.7043  4.4960 -1.8368
13492TIP3   OH261890   3.670   2.350  16.393  0.3822  0.7697  0.0497
13492TIP3    H161891   3.620   2.410  16.449  3.2101  3.1515  0.2770
13492TIP3    H261892   3.760   2.357  16.425  1.3090 -1.5595 -1.7465
13493TIP3   OH261893   6.380   0.204   4.492 -0.5389 -0.0940 -0.0208
13493TIP3    H161894   6.456   0.162   4.453  0.2800  1.1211  0.2340
13493TIP3    H261895   6.349   0.141   4.558  0.8400 -0.1760  0.5663
13494TIP3   OH261896   1.557   3.568  16.042 -0.2999 -0.0511  0.5810
13494TIP3    H161897   1.576   3.514  15.966 -0.8704 -0.2007  0.5415
13494TIP3    H261898   1.538   3.505  16.112  0.9467  0.0644  1.0581
13495TIP3   OH261899   5.999   4.057  14.189  0.7492 -0.5449 -0.0098
13495TIP3    H161900   5.912   4.020  14.174  0.4040 -0.3215  1.3387
13495TIP3    H261901   6.013   4.114  14.113 -1.4713  1.5514  1.0133
13496TIP3   OH261902   0.319   3.563  11.611  0.1488  0.4567  0.0224
13496TIP3    H161903   0.261   3.534  11.681 -1.5732  0.8535 -1.1799
13496TIP3    H261904   0.271   3.545  11.531  2.1744 -0.2102 -1.0994
13497TIP3   OH261905   5.229   2.746   2.743 -0.8218 -0.2012 -0.0307
13497TIP3    H161906   5.186   2.830   2.725 -1.4765 -0.5598 -0.1674
13497TIP3    H261907   5.315   2.754   2.702 -0.3752  0.8904  1.0618
13498TIP3   OH261908   0.801   3.715  14.717 -0.7503  0.4785 -0.2989
13498TIP3    H161909   0.826   3.704  14.626 -1.1603  0.2525 -0.3871
13498TIP3    H261910   0.706   3.718  14.716 -0.7364  2.6081 -0.1146
13499TIP3   OH261911   1.284   5.831   4.880 -0.0150 -0.4541 -0.6684
13499TIP3    H161912   1.293   5.853   4.973 -1.1628  0.4999 -0.7582
13499TIP3    H261913   1.359   5.873   4.838 -0.5871  0.8702 -0.4294
13500TIP3   OH261914   0.804   3.077  13.200  0.3416 -0.2600 -0.0306
13500TIP3    H161915   0.788   2.984  13.180  0.6074 -1.0214  2.8439
13500TIP3    H261916   0.895   3.092  13.175  1.1847 -1.6221  1.9549
13501TIP3   OH261917   4.639   1.093  13.215  0.9330 -0.4909  0.0267
13501TIP3    H161918   4.664   1.156  13.147 -0.1843 -0.5924 -0.5005
13501TIP3    H261919   4.698   1.111  13.288  0.6749  1.1396 -0.1361
13502TIP3   OH261920   3.257   6.242   5.217  0.1485 -0.1328 -0.2305
13502TIP3    H161921   3.282   6.175   5.280 -2.0290 -1.6280 -0.8218
13502TIP3    H261922   3.274   6.325   5.261  3.0816 -1.0056  0.4707
13503TIP3   OH261923   0.755   0.478   3.560 -0.1535  0.1030  0.1894
13503TIP3    H161924   0.751   0.425   3.480 -1.6780  0.3405  0.0792
13503TIP3    H261925   0.734   0.567   3.532  0.6511  0.4538  0.6539
13504TIP3   OH261926   6.670   6.141  17.043 -0.1436  0.0404  0.1347
13504TIP3    H161927   6.665   6.230  17.077  0.7273  0.1194  0.0944
13504TIP3    H261928   6.633   6.145  16.955 -1.5983  0.0189  0.7283
13505TIP3   OH261929   3.742   5.916   3.448 -0.1736 -0.3987 -0.0199
13505TIP3    H161930   3.826   5.879   3.476  0.8958 -0.4704 -2.9476
13505TIP3    H261931   3.685   5.841   3.437 -0.5187 -0.3898  1.5811
13506TIP3   OH261932   1.962   1.906   0.485 -0.2108  0.2295  0.5731
13506TIP3    H161933   1.888   1.966   0.475 -0.9489 -0.4184  1.9418
13506TIP3    H261934   1.977   1.872   0.396 -1.4835  0.4362  0.2628
13507TIP3   OH261935   4.763   1.339  14.342 -0.0414  0.1104 -0.0573
13507TIP3    H161936   4.685   1.333  14.286  0.6880 -3.1573 -0.9114
13507TIP3    H261937   4.788   1.431  14.338 -2.7158  0.8920 -1.3069
13508TIP3   OH261938   3.948   5.756  15.301 -0.7014  0.1730  0.7441
13508TIP3    H161939   3.979   5.807  15.375 -1.9416  0.5456  1.0302
13508TIP3    H261940   3.978   5.805  15.224 -0.5610  0.4984  1.0052
13509TIP3   OH261941   3.861   0.912  16.836 -0.2176  0.4248  0.3333
13509TIP3    H161942   3.871   0.945  16.925 -2.0178  1.2302  0.2716
13509TIP3    H261943   3.802   0.974  16.793  2.1392  1.2197 -2.0721
13510TIP3   OH261944   4.159   1.680  15.587  0.6177 -0.0747 -0.1110
13510TIP3    H161945   4.132   1.606  15.642  3.0258 -0.2352  1.0032
13510TIP3    H261946   4.103   1.674  15.510 -1.8973 -0.7122  1.6409
13511TIP3   OH261947   2.557   4.978  11.351  0.2614 -0.4365 -0.4891
13511TIP3    H161948   2.487   4.957  11.414 -0.3777  1.8460 -0.3682
13511TIP3    H261949   2.634   4.933  11.386 -0.7295 -1.5594  0.3479
13512TIP3   OH261950   3.416   1.970   4.456  0.0554  0.0375  0.1186
13512TIP3    H161951   3.326   2.000   4.459  0.0663  0.0040  1.0850
13512TIP3    H261952   3.462   2.036   4.404 -0.9259 -1.0793 -2.3249
13513TIP3   OH261953   6.116   1.929   3.143  0.3528 -0.4647  0.5178
13513TIP3    H161954   6.206   1.896   3.144  0.3707 -0.4206  0.3445
13513TIP3    H261955   6.067   1.866   3.196  0.0581 -1.7457 -1.2095
13514TIP3   OH261956   1.426   5.108  14.419  0.0719 -0.5358  0.0077
13514TIP3    H161957   1.426   5.052  14.341 -0.1518  1.9710 -1.9319
13514TIP3    H261958   1.334   5.118  14.441  0.1080 -0.8642  0.3128
13515TIP3   OH261959   0.579   5.376   6.459 -0.5567 -0.3206 -0.1525
13515TIP3    H161960   0.649   5.323   6.420 -0.0979  0.0614  0.1439
13515TIP3    H261961   0.503   5.318   6.460 -0.0078 -1.0481  0.3600
13516TIP3   OH261962   6.122   4.559  16.166 -0.2666  0.2691 -0.1019
13516TIP3    H161963   6.088   4.633  16.117 -0.8915 -0.2472 -0.4528
13516TIP3    H261964   6.142   4.595  16.253  0.2103  1.0270 -0.5107
13517TIP3   OH261965   2.786   5.077  15.824 -0.1421  0.1365  0.8175
13517TIP3    H161966   2.766   5.092  15.732 -0.4917 -0.0400  0.8619
13517TIP3    H261967   2.780   5.164  15.864 -0.5883  0.1229  0.7838
13518TIP3   OH261968   1.552   1.456   2.518  0.0043 -0.5787  0.5170
13518TIP3    H161969   1.618   1.473   2.585  0.3209  0.1440  0.0378
13518TIP3    H261970   1.581   1.375   2.475  0.7559 -0.0961  0.1023
13519TIP3   OH261971   0.641   5.679  14.768  1.0732 -0.4889 -0.4575
13519TIP3    H161972   0.605   5.707  14.683 -1.5993  2.2711  1.3963
13519TIP3    H261973   0.583   5.608  14.796  1.4272 -0.7946 -0.4776
13520TIP3   OH261974   2.992   3.681  13.489 -0.2541  0.3003 -0.4962
13520TIP3    H161975   3.016   3.771  13.509 -1.9189  0.4056  1.2917
13520TIP3    H261976   2.905   3.669  13.529  0.1181 -2.2373 -0.2470
13521TIP3   OH261977   0.431   0.761  14.246 -0.1938  0.2160 -0.4112
13521TIP3    H161978   0.358   0.709  14.214 -0.0934  1.0588 -2.1257
13521TIP3    H261979   0.495   0.759  14.175  0.5605  1.2121  0.2049
13522TIP3   OH261980   6.261   0.402   0.075 -0.0690  0.3254 -0.2886
13522TIP3    H161981   6.247   0.474   0.013 -0.6943  1.1208  0.7480
13522TIP3    H261982   6.173   0.378   0.104  0.2513  0.4703  0.8412
13523TIP3   OH261983   0.088   0.894  16.895 -0.5130  0.0097 -0.1035
13523TIP3    H161984   0.060   0.983  16.871 -0.1365  0.8019  2.1408
13523TIP3    H261985   0.032   0.870  16.968  1.0363 -0.5627  0.9498
13524TIP3   OH261986   4.994   4.302  13.162 -0.0225  0.4049 -0.2387
13524TIP3    H161987   5.005   4.224  13.217  1.4952  1.4902  1.0647
13524TIP3    H261988   5.034   4.278  13.078  2.4692  0.4780  0.8586
13525TIP3   OH261989   4.772   0.034  16.818  0.0967 -0.0211 -0.6219
13525TIP3    H161990   4.817   0.111  16.782 -0.7737  0.6854 -0.2393
13525TIP3    H261991   4.761  -0.024  16.742 -1.0753  1.1425 -1.4102
13526TIP3   OH261992   4.430   6.639  14.793 -0.0762 -0.5827 -0.3583
13526TIP3    H161993   4.412   6.690  14.714 -0.3647  0.9930  0.6794
13526TIP3    H261994   4.518   6.604  14.780 -0.5919 -1.4356 -1.8962
13527TIP3   OH261995   3.329   4.930   0.955  0.3066  0.1017  0.3163
13527TIP3    H161996   3.353   4.931   1.048  1.0225 -1.3809  0.1854
13527TIP3    H261997   3.324   4.837   0.933  0.5576  0.4269 -1.2373
13528TIP3   OH261998   1.804   0.599   2.064  0.4861 -0.0358 -0.2757
13528TIP3    H161999   1.752   0.637   2.134  1.1903 -1.0273  0.8078
13528TIP3    H262000   1.890   0.641   2.072  0.0037  1.4108 -1.9000
13529TIP3   OH262001   5.374   1.005   3.404  0.2864 -0.3946 -0.1745
13529TIP3    H162002   5.364   0.919   3.444  4.5389 -1.5198 -1.0055
13529TIP3    H262003   5.374   0.989   3.310  2.9713  0.0906 -0.3305
13530TIP3   OH262004   5.202   5.227   4.666 -0.5807 -0.5332 -0.2036
13530TIP3    H162005   5.138   5.157   4.676 -0.7058 -0.1075  2.7361
13530TIP3    H262006   5.276   5.200   4.720  0.0904  0.8173 -0.3990
13531TIP3   OH262007   0.329   1.613   3.294  0.2107 -0.3633 -0.6332
13531TIP3    H162008   0.339   1.532   3.344 -0.6143 -0.8732 -1.2553
13531TIP3    H262009   0.281   1.586   3.215  0.4916  0.6192 -1.1524
13532TIP3   OH262010   0.087   6.141  16.153  0.0350  0.3357 -0.3784
13532TIP3    H162011   0.083   6.046  16.144  1.7284  0.0733  1.1414
13532TIP3    H262012   0.021   6.173  16.092  0.4542 -1.7517 -2.0566
13533TIP3   OH262013   1.822   5.863  15.124 -0.0833 -0.0708 -0.7028
13533TIP3    H162014   1.858   5.776  15.107  1.4386  0.1843  0.9321
13533TIP3    H262015   1.819   5.870  15.219 -2.4576  0.8072 -0.7683
13534TIP3   OH262016   3.418   6.002   0.596  0.3406 -0.1996 -0.3036
13534TIP3    H162017   3.460   6.087   0.607  1.2476 -0.8877  2.0469
13534TIP3    H262018   3.337   6.008   0.647  0.8201 -0.9956  0.5703
13535TIP3   OH262019   1.826   5.218   4.377  0.2205 -0.1999 -0.8721
13535TIP3    H162020   1.806   5.138   4.328  0.1779 -0.9767  0.3809
13535TIP3    H262021   1.873   5.273   4.314 -0.9106 -0.6450 -2.1672
13536TIP3   OH262022   3.687   2.750   0.987 -1.0478 -0.0043  0.4061
13536TIP3    H162023   3.646   2.707   0.912 -0.4840  1.3254 -0.7186
13536TIP3    H262024   3.735   2.679   1.031 -1.3013 -0.8022 -0.5466
13537TIP3   OH262025   2.321   1.360  11.391 -0.0037  0.0368 -0.0688
13537TIP3    H162026   2.397   1.375  11.336 -0.4717 -0.3822 -0.8448
13537TIP3    H262027   2.253   1.328  11.331 -0.4458 -0.6807  0.7901
13538TIP3   OH262028   4.036   1.200  11.494 -0.6772  0.3686  0.1611
13538TIP3    H162029   3.996   1.196  11.407  0.3223  1.2230 -0.3667
13538TIP3    H262030   3.963   1.189  11.555 -1.1785 -2.1503 -0.7740
13539TIP3   OH262031   2.228   6.062  14.834  0.6200 -0.6096  0.0807
13539TIP3    H162032   2.299   6.098  14.888  0.4082 -1.7649  1.1766
13539TIP3    H262033   2.159   6.042  14.896 -0.2727 -0.4816 -0.8470
13540TIP3   OH262034   0.998   0.032   3.055 -0.5318  0.3007  0.4904
13540TIP3    H162035   1.036  -0.005   2.974 -0.4860  0.5184  0.4119
13540TIP3    H262036   0.909   0.055   3.031 -0.2966  1.0275  0.3006
13541TIP3   OH262037   4.668   6.650   4.611 -0.1865 -0.2878  0.0097
13541TIP3    H162038   4.648   6.685   4.698 -1.0507  0.8003 -0.5898
13541TIP3    H262039   4.586   6.610   4.582  0.2511 -1.1227 -0.0934
13542TIP3   OH262040   5.027   2.342  15.036 -0.0904 -0.1911 -0.2875
13542TIP3    H162041   5.081   2.411  15.073 -0.3249  0.1592 -0.5898
13542TIP3    H262042   5.078   2.262  15.048  0.8820  0.2418 -1.3336
13543TIP3   OH262043   2.486   5.271  16.211 -0.1896 -0.5093 -0.5880
13543TIP3    H162044   2.413   5.274  16.149 -0.3035 -5.1078 -1.0426
13543TIP3    H262045   2.495   5.178  16.233  2.3303  0.4257  3.4205
13544TIP3   OH262046   6.612   3.541   4.671 -0.4177  0.3749  0.1829
13544TIP3    H162047   6.569   3.460   4.697 -0.2114 -0.0664 -0.7878
13544TIP3    H262048   6.705   3.526   4.688 -0.4045  0.5023  0.2265
13545TIP3   OH262049   6.395   5.004   4.019 -0.1430 -0.2181  0.1433
13545TIP3    H162050   6.378   5.021   3.926  1.5196  0.2245 -0.1192
13545TIP3    H262051   6.338   5.065   4.065 -0.8806 -0.3382 -0.5821
13546TIP3   OH262052   3.743   1.017  12.592  0.3622 -0.0334 -0.5993
13546TIP3    H162053   3.785   1.096  12.625 -0.9501  0.0663  0.9373
13546TIP3    H262054   3.814   0.952  12.587  0.6887 -0.0271  2.3769
13547TIP3   OH262055   5.796   6.011   5.833 -0.3838  0.1994 -0.2219
13547TIP3    H162056   5.720   6.069   5.839 -0.5107  0.0727 -0.5478
13547TIP3    H262057   5.777   5.941   5.895 -0.6020  0.0960 -0.4007
13548TIP3   OH262058   3.894   5.808  14.081  0.4918  0.4719  0.1084
13548TIP3    H162059   3.931   5.876  14.138 -0.7818  1.5706 -0.3068
13548TIP3    H262060   3.815   5.849  14.044 -2.3129 -2.3016  2.4485
13549TIP3   OH262061   2.045   6.026  15.033  0.1391 -0.7180  0.0058
13549TIP3    H162062   1.957   5.996  15.056  0.9547 -0.1736  4.7790
13549TIP3    H262063   2.103   5.978  15.091  2.6875  1.4163 -0.5834
13550TIP3   OH262064   0.003   0.856  15.413  0.7861  0.0299  0.1377
13550TIP3    H162065  -0.069   0.798  15.439 -0.8989  1.8376 -0.2736
13550TIP3    H262066   0.080   0.819  15.456 -0.0703 -2.8264 -0.5834
13551TIP3   OH262067   5.513   2.090  11.616  0.5047 -0.3404  0.5054
13551TIP3    H162068   5.513   2.186  11.612  4.0797 -0.1707  1.2252
13551TIP3    H262069   5.543   2.063  11.529  1.0150 -0.6855  0.7798
13552TIP3   OH262070   2.078   1.153  10.951  0.6011 -0.4383 -0.2337
13552TIP3    H162071   2.132   1.081  10.918  1.1591 -0.6503  1.0650
13552TIP3    H262072   2.009   1.163  10.886  0.1911 -2.5179 -0.2048
13553TIP3   OH262073   3.052   3.773   3.625  0.0688  0.5873 -0.7471
13553TIP3    H162074   3.097   3.718   3.561 -1.1870 -0.4079 -0.8002
13553TIP3    H262075   3.118   3.837   3.651  1.2172 -0.2357 -1.5255
13554TIP3   OH262076   3.453   4.014  11.198 -0.0902  0.1096  0.3567
13554TIP3    H162077   3.407   4.097  11.212 -0.2931 -0.0510  0.6498
13554TIP3    H262078   3.476   4.014  11.105 -1.4639 -0.2136 -0.0069
13555TIP3   OH262079   3.084   2.786   4.072  0.2644 -0.3903  0.2915
13555TIP3    H162080   3.036   2.730   4.133 -4.9949  3.6167  0.4633
13555TIP3    H262081   3.133   2.846   4.128 -0.1365 -0.1727  0.4151
13556TIP3   OH262082   2.896   3.865   4.499 -0.3991  0.3237  0.5624
13556TIP3    H162083   2.955   3.861   4.424 -1.1951  1.8454 -0.1885
13556TIP3    H262084   2.867   3.775   4.512 -0.7633  0.1159 -1.4143
13557TIP3   OH262085   4.448   0.225   5.234  0.8449  0.0761  0.0156
13557TIP3    H162086   4.505   0.283   5.183 -0.6049  0.8532 -0.7750
13557TIP3    H262087   4.394   0.181   5.168  0.5488 -0.6860  0.7473
13558TIP3   OH262088   4.646   4.130  12.936  0.4420  0.9584  0.7199
13558TIP3    H162089   4.698   4.203  12.900  1.1422 -0.2563 -0.8865
13558TIP3    H262090   4.682   4.053  12.892 -1.7159 -0.1089  0.7452
13559TIP3   OH262091   5.346   2.267  16.764  0.7215 -0.0016  0.0373
13559TIP3    H162092   5.287   2.225  16.826 -0.8678  1.0498 -0.6923
13559TIP3    H262093   5.430   2.224  16.778 -0.0400 -1.0846  1.5898
13560TIP3   OH262094   0.233   1.944  14.473 -0.5438  0.0736  0.2152
13560TIP3    H162095   0.240   1.934  14.379  3.0740  1.2675  0.2219
13560TIP3    H262096   0.283   1.870  14.509  1.9280  1.9724  0.9563
13561TIP3   OH262097   5.453   2.692   1.791  0.0561  0.1700 -0.0102
13561TIP3    H162098   5.527   2.748   1.817 -0.4245  0.9215 -0.2200
13561TIP3    H262099   5.387   2.708   1.859 -0.0913 -0.1293 -0.0845
13562TIP3   OH262100   5.889   3.565   3.728  0.1623  0.6682  0.2822
13562TIP3    H162101   5.867   3.486   3.678 -1.2591  0.3754  1.3035
13562TIP3    H262102   5.982   3.579   3.711  0.3334 -0.9521 -0.2973
13563TIP3   OH262103   2.392   0.064  15.613  0.2827 -0.4222  0.3836
13563TIP3    H162104   2.446   0.047  15.536 -0.5894 -1.8562  0.0348
13563TIP3    H262105   2.347  -0.019  15.629 -0.5716  0.2462  1.6292
13564TIP3   OH262106   5.035   5.505  12.351  0.7536 -0.2114  0.4660
13564TIP3    H162107   4.975   5.479  12.281  1.2229  1.2329 -0.5046
13564TIP3    H262108   5.111   5.448  12.340  0.4868 -0.5406  0.3128
13565TIP3   OH262109   5.472   3.154   1.335  0.0248 -0.0282 -0.1728
13565TIP3    H162110   5.549   3.098   1.327  1.0451  1.5569 -2.7322
13565TIP3    H262111   5.421   3.137   1.255  1.7060  4.3041 -2.5286
13566TIP3   OH262112   6.276   5.616   1.047 -0.2753  0.1802  0.3781
13566TIP3    H162113   6.305   5.592   1.135 -0.9042  2.3286  1.2385
13566TIP3    H262114   6.358   5.627   0.997  0.0497 -2.9667  0.0569
13567TIP3   OH262115   0.813   2.802  13.139 -0.0651  0.1402  0.6816
13567TIP3    H162116   0.739   2.750  13.109  0.8685  0.4494 -2.6150
13567TIP3    H262117   0.879   2.737  13.165 -0.0486 -0.2983 -0.3780
13568TIP3   OH262118   5.062   1.578  15.191 -0.1391  0.5503  0.2015
13568TIP3    H162119   5.024   1.509  15.137  0.8000  0.2532 -0.1090
13568TIP3    H262120   5.126   1.621  15.134  0.6168  0.4574  0.9428
13569TIP3   OH262121   0.748   0.098   3.001  0.0069  0.8158  0.6144
13569TIP3    H162122   0.720   0.016   2.959 -1.1664  0.7916  1.4011
13569TIP3    H262123   0.672   0.126   3.053  1.2950  0.9983  2.4980
13570TIP3   OH262124   4.842   2.347   3.276 -0.6362 -0.2791 -0.7161
13570TIP3    H162125   4.822   2.436   3.247 -0.5090 -0.0260 -0.0679
13570TIP3    H262126   4.794   2.338   3.359 -4.1835 -2.3476 -2.7751
13571TIP3   OH262127   0.396   6.059  12.371  0.1832  0.0870  0.3401
13571TIP3    H162128   0.389   5.967  12.346  2.9053  0.0293 -0.6143
13571TIP3    H262129   0.453   6.059  12.448 -0.4695  0.9267  0.8343
13572TIP3   OH262130   2.695   2.903  16.361  0.6179  0.1569 -0.0361
13572TIP3    H162131   2.610   2.901  16.405  1.1450  1.0829  1.0573
13572TIP3    H262132   2.674   2.886  16.269 -0.6928 -0.1193  0.2879
13573TIP3   OH262133   3.821   4.520  15.219  0.1855 -0.1057  1.1753
13573TIP3    H162134   3.838   4.519  15.313 -3.1433  1.9613  1.9417
13573TIP3    H262135   3.737   4.477  15.209 -0.1625  0.8904 -0.6797
13574TIP3   OH262136   1.962   0.733  15.036 -0.0423 -0.2331 -0.4511
13574TIP3    H162137   1.871   0.708  15.027 -0.3176 -0.3462  1.9816
13574TIP3    H262138   1.981   0.784  14.957 -3.2267  2.7736  0.4512
13575TIP3   OH262139   1.335   5.154   2.967  0.1306  0.5065  0.5335
13575TIP3    H162140   1.374   5.214   2.903 -1.8100  1.1419 -0.1150
13575TIP3    H262141   1.242   5.176   2.968 -0.2582 -0.9687  1.9911
13576TIP3   OH262142   1.162   3.783  13.719 -0.8641 -0.4545 -0.5479
13576TIP3    H162143   1.252   3.763  13.694 -0.7891 -0.1112 -0.5619
13576TIP3    H262144   1.132   3.843  13.652 -1.0536 -0.4521 -0.4606
13577TIP3   OH262145   5.883   3.335  14.168  0.7267 -0.1803  0.1769
13577TIP3    H162146   5.799   3.359  14.128  0.5863  1.3108  1.2985
13577TIP3    H262147   5.937   3.306  14.095 -0.7719 -1.2398 -0.5632
13578TIP3   OH262148   4.031   1.259   3.956 -0.5109  0.1282  0.2808
13578TIP3    H162149   4.051   1.272   3.863 -0.9738 -4.2324 -0.6468
13578TIP3    H262150   3.947   1.213   3.956  0.5152 -1.9932  2.6618
13579TIP3   OH262151   6.538   4.836  13.099 -0.9414 -0.4133 -0.8734
13579TIP3    H162152   6.566   4.758  13.146 -0.9651  0.1213  0.0404
13579TIP3    H262153   6.507   4.896  13.167 -1.5509  0.1395 -1.6191
13580TIP3   OH262154   4.969   1.975  12.690 -0.4272  0.6281 -0.6852
13580TIP3    H162155   4.921   2.057  12.678 -0.7113  0.6808  0.6236
13580TIP3    H262156   5.058   2.002  12.713 -0.0038  0.5342 -2.1052
13581TIP3   OH262157   3.802   2.726   3.577  0.0496  0.3323  0.1308
13581TIP3    H162158   3.816   2.733   3.672 -1.9994 -1.0633  0.6069
13581TIP3    H262159   3.846   2.645   3.552  0.3024  0.5275 -0.0670
13582TIP3   OH262160   0.922   0.940   1.623  0.2336 -0.1067 -0.6968
13582TIP3    H162161   0.904   0.964   1.532  0.0347  1.5548 -0.2505
13582TIP3    H262162   0.865   0.997   1.675 -0.3672 -1.7016  0.4557
13583TIP3   OH262163   0.238   5.987  11.954  0.3019  0.1486  0.3788
13583TIP3    H162164   0.200   5.902  11.975 -0.6041  0.3164 -0.4694
13583TIP3    H262165   0.174   6.027  11.895  0.2876  1.7782  1.4423
13584TIP3   OH262166   0.502   4.631  12.466 -0.0269 -0.6135 -0.2607
13584TIP3    H162167   0.444   4.602  12.537  0.4190 -1.0236 -0.0577
13584TIP3    H262168   0.482   4.573  12.393  0.3581 -0.9649 -0.0862
13585TIP3   OH262169   1.401   5.123   0.481  0.8498  0.0156 -0.6161
13585TIP3    H162170   1.401   5.041   0.433  0.8329 -0.4922  0.2233
13585TIP3    H262171   1.431   5.099   0.569 -2.8250  0.1568  0.8429
13586TIP3   OH262172   1.645   6.256   0.170  0.2634 -0.1015  0.0284
13586TIP3    H162173   1.678   6.346   0.165 -0.0832  0.0009 -0.4757
13586TIP3    H262174   1.711   6.204   0.125 -0.4910  0.1732 -1.4481
13587TIP3   OH262175   4.210   0.965  12.741 -0.0468  0.5448  0.3002
13587TIP3    H162176   4.213   1.049  12.694  1.1426  0.0326 -0.6215
13587TIP3    H262177   4.290   0.964  12.793  1.8148 -1.3628 -2.2887
13588TIP3   OH262178   4.803   0.632   6.057  0.4462 -0.0050  0.1147
13588TIP3    H162179   4.842   0.641   5.970 -0.1667 -1.0636 -0.2900
13588TIP3    H262180   4.756   0.714   6.071  1.5318  0.6615 -0.0346
13589TIP3   OH262181   5.050   1.867   6.371  0.8846  0.4318 -0.4222
13589TIP3    H162182   5.064   1.806   6.444 -1.0405 -1.8192 -1.7756
13589TIP3    H262183   5.135   1.908   6.356  1.5824  0.2096  2.3709
13590TIP3   OH262184   2.105   3.012  17.272 -0.2799  0.2233 -0.3993
13590TIP3    H162185   2.054   2.932  17.260 -0.1246  0.0948 -0.1841
13590TIP3    H262186   2.087   3.040  17.361 -0.7654  0.7286 -0.6506
13591TIP3   OH262187   5.713   3.876   4.504  0.1729 -0.0775 -0.3280
13591TIP3    H162188   5.619   3.866   4.521  0.1467 -0.2353 -0.5610
13591TIP3    H262189   5.745   3.928   4.578 -0.0051 -0.4398  0.0123
13592TIP3   OH262190   0.670   0.897   0.406  0.2897 -0.2957 -0.3535
13592TIP3    H162191   0.713   0.823   0.363  0.8836 -0.0423 -0.2078
13592TIP3    H262192   0.686   0.882   0.499  0.9831  0.3586 -0.3594
13593TIP3   OH262193   2.821   0.163  15.635 -0.0870  0.1174 -0.2485
13593TIP3    H162194   2.799   0.168  15.728 -2.1733  0.3950 -0.7001
13593TIP3    H262195   2.747   0.204  15.591  0.9091  0.0755 -2.0429
13594TIP3   OH262196   5.353   3.643  16.137  0.0833  0.1228  0.2427
13594TIP3    H162197   5.266   3.684  16.147  0.3749  0.3867  2.2083
13594TIP3    H262198   5.412   3.717  16.123  0.0440 -0.0393 -0.8525
13595TIP3   OH262199   3.231   6.734   3.721 -0.2979  0.6151 -0.1810
13595TIP3    H162200   3.156   6.682   3.751  0.1675 -0.0504 -0.1616
13595TIP3    H262201   3.239   6.714   3.628  1.4632 -1.3996  0.3297
13596TIP3   OH262202   6.258   2.068  13.231 -0.0079 -0.2867 -0.2478
13596TIP3    H162203   6.229   2.157  13.211 -0.6775 -0.6441 -0.9051
13596TIP3    H262204   6.178   2.021  13.254  0.7152  0.4316  5.0484
13597TIP3   OH262205   1.079   5.235   0.072 -0.2920 -0.2603  0.3327
13597TIP3    H162206   1.096   5.279   0.155  3.0333 -1.7167  0.6000
13597TIP3    H262207   1.133   5.284   0.009 -0.1942 -1.1402 -0.2783
13598TIP3   OH262208   1.937   0.363   0.733  0.1350 -0.1018 -0.3464
13598TIP3    H162209   2.000   0.435   0.724  0.0296  0.0020 -0.2623
13598TIP3    H262210   1.989   0.283   0.723  0.3169 -0.0201 -0.0447
13599TIP3   OH262211   5.232   2.436   3.331  0.6010 -0.7056 -0.6127
13599TIP3    H162212   5.262   2.523   3.305  0.4893 -0.8398 -1.1971
13599TIP3    H262213   5.266   2.425   3.420  1.2846 -0.3861 -0.8298
13600TIP3   OH262214   1.834   0.975   6.158 -0.2154 -0.3326  0.4819
13600TIP3    H162215   1.829   1.022   6.242 -0.7626 -0.8601  0.7532
13600TIP3    H262216   1.746   0.983   6.121  0.7765  2.7327 -1.6571
13601TIP3   OH262217   4.143   4.660  12.615  0.1482  0.1596  0.3197
13601TIP3    H162218   4.107   4.749  12.625 -1.0506 -0.2298 -0.2721
13601TIP3    H262219   4.107   4.630  12.532 -0.3994 -1.2949  1.0474
13602TIP3   OH262220   1.973   4.233   2.231 -1.3193 -0.2227 -0.1121
13602TIP3    H162221   2.019   4.262   2.153 -1.0293  0.4911  0.3134
13602TIP3    H262222   1.917   4.308   2.255 -1.0806 -0.2648  0.6077
13603TIP3   OH262223   1.561   2.483   1.337  0.6115  0.4046  0.1819
13603TIP3    H162224   1.595   2.397   1.363 -1.5789 -0.4399  0.4630
13603TIP3    H262225   1.568   2.484   1.242 -3.1468 -1.9467 -0.3092
13604TIP3   OH262226   1.156   5.333   2.166  0.0551 -0.4336 -0.4557
13604TIP3    H162227   1.205   5.259   2.200  1.8167  0.8909  0.0192
13604TIP3    H262228   1.216   5.377   2.105 -0.1951  1.6596  0.7033
13605TIP3   OH262229   4.572   3.000   2.954 -0.1304  0.9964 -0.3509
13605TIP3    H162230   4.504   3.059   2.920 -0.1592  1.2083  0.0627
13605TIP3    H262231   4.624   3.056   3.012 -0.9128  0.3305  1.0363
13606TIP3   OH262232   5.859   5.635   2.637 -0.0510  0.2485  0.1169
13606TIP3    H162233   5.840   5.617   2.729  2.8512  0.2442  0.8292
13606TIP3    H262234   5.910   5.716   2.639  0.6465 -0.1261 -1.4061
13607TIP3   OH262235   2.863   1.708  16.378 -0.2143 -1.1450 -0.5019
13607TIP3    H162236   2.932   1.659  16.333  0.5558 -1.6251  1.1279
13607TIP3    H262237   2.905   1.738  16.459 -1.1005  0.9850 -0.7772
13608TIP3   OH262238   1.871   6.004   3.471 -0.1428  0.4205 -0.1331
13608TIP3    H162239   1.956   5.963   3.455  1.1856  2.8126  0.3536
13608TIP3    H262240   1.814   5.968   3.403  1.3535 -0.9193 -0.7400
13609TIP3   OH262241   5.004   6.020   5.701  0.7334 -0.6490 -1.0126
13609TIP3    H162242   5.067   6.073   5.652  1.1758  0.3125  0.5357
13609TIP3    H262243   5.056   5.948   5.736  1.2280  0.6289  1.0156
13610TIP3   OH262244   3.738   5.023  15.212 -0.5066  0.1099 -0.0467
13610TIP3    H162245   3.722   4.931  15.192 -1.5814  0.3952 -0.5884
13610TIP3    H262246   3.727   5.068  15.127 -0.1518  0.7467  0.2382
13611TIP3   OH262247   3.875   2.420   0.699  0.1007  0.2855  0.2407
13611TIP3    H162248   3.812   2.388   0.635 -1.5711  0.2199  1.8276
13611TIP3    H262249   3.948   2.357   0.695 -0.7502 -0.6820 -0.3828
13612TIP3   OH262250   2.904   6.400   4.514 -0.2749 -0.8283 -0.0140
13612TIP3    H162251   2.963   6.352   4.572  0.5011 -0.8147 -0.7761
13612TIP3    H262252   2.955   6.474   4.481 -0.6459 -0.9125 -0.8258
13613TIP3   OH262253   2.607   5.118   5.483  0.2327  0.5823  0.1632
13613TIP3    H162254   2.688   5.159   5.514  0.1989  0.8326 -0.0706
13613TIP3    H262255   2.570   5.183   5.423 -0.9112  1.1318  1.4141
13614TIP3   OH262256   0.229   1.596   1.287 -0.1353  0.5642  0.2050
13614TIP3    H162257   0.188   1.531   1.345  1.2189 -1.0003 -0.5007
13614TIP3    H262258   0.275   1.543   1.222 -0.6938  2.2726 -1.6507
13615TIP3   OH262259   1.502   5.869   0.535  0.1487 -0.2510 -0.5248
13615TIP3    H162260   1.442   5.897   0.604  1.1357 -0.1409  0.3334
13615TIP3    H262261   1.473   5.915   0.457 -0.4358  0.3647  0.0449
13616TIP3   OH262262   3.225   5.378   4.625 -0.9579 -0.0434  0.1331
13616TIP3    H162263   3.189   5.315   4.688 -1.3974 -1.0846 -1.1021
13616TIP3    H262264   3.148   5.419   4.585 -0.7387 -0.3103 -0.5905
13617TIP3   OH262265   2.656   4.298  13.827  0.1003 -0.2780  0.0244
13617TIP3    H162266   2.653   4.294  13.922  0.5618 -2.1689  0.0019
13617TIP3    H262267   2.577   4.252  13.798 -0.0838  0.3580 -0.5147
13618TIP3   OH262268   0.247   6.612  15.882  0.1311  0.3789  0.0783
13618TIP3    H162269   0.159   6.602  15.845 -1.1391  1.5096  2.6058
13618TIP3    H262270   0.257   6.536  15.940  0.0299  1.2270  1.2287
13619TIP3   OH262271   2.924   4.871   1.567 -0.3912  0.1119 -0.2781
13619TIP3    H162272   3.016   4.887   1.588  0.1842 -0.2526 -2.3244
13619TIP3    H262273   2.889   4.826   1.644  1.7992 -2.0261 -0.4294
13620TIP3   OH262274   5.430   6.489   5.354  0.2466 -0.3773  0.1948
13620TIP3    H162275   5.339   6.466   5.373 -0.4618  1.6770 -0.4666
13620TIP3    H262276   5.464   6.413   5.307 -1.7902 -0.3769 -1.4222
13621TIP3   OH262277   3.449   0.699  11.588  0.2292  0.0869 -0.1188
13621TIP3    H162278   3.520   0.655  11.634  0.8549  0.6019 -0.5765
13621TIP3    H262279   3.448   0.659  11.501  0.9609  1.0980 -0.6240
13622TIP3   OH262280   4.048   0.821  13.836 -0.5196 -0.1162  0.6196
13622TIP3    H162281   3.966   0.798  13.793 -0.4713  0.6879  0.0797
13622TIP3    H262282   4.042   0.915  13.852  0.1052 -0.1313  0.9942
13623TIP3   OH262283   6.328   3.789  13.217 -0.5055 -0.3072 -0.3511
13623TIP3    H162284   6.355   3.727  13.285 -1.1011 -1.4747 -1.1417
13623TIP3    H262285   6.408   3.807  13.168  0.2887  1.7595  1.5178
13624TIP3   OH262286   3.087   3.415  17.183  0.1772 -0.1192  0.0280
13624TIP3    H162287   3.128   3.333  17.211 -0.4660 -0.1076  1.0441
13624TIP3    H262288   3.005   3.419  17.231 -0.1852  0.7302 -0.6365
13625TIP3   OH262289   1.570   3.282   2.699 -0.0949  0.1495 -0.4983
13625TIP3    H162290   1.646   3.281   2.757 -1.9951  1.2884  2.2191
13625TIP3    H262291   1.592   3.346   2.632  0.7851  1.5697  1.0831
13626TIP3   OH262292   0.199   1.462  14.141 -0.4224  0.0639  0.0864
13626TIP3    H162293   0.120   1.408  14.136  0.3182 -1.2135  1.1702
13626TIP3    H262294   0.169   1.546  14.175 -1.3158 -0.4096  0.5023
13627TIP3   OH262295   3.050   0.164  11.736 -0.1617  0.0406  0.0466
13627TIP3    H162296   2.962   0.201  11.738 -0.6063 -0.9739  1.2949
13627TIP3    H262297   3.094   0.209  11.664 -2.5773 -1.4523 -2.5642
13628TIP3   OH262298   1.096   0.935   0.663 -0.0709 -0.7258 -0.4367
13628TIP3    H162299   1.191   0.940   0.665 -0.0909  0.8167 -1.6287
13628TIP3    H262300   1.070   0.987   0.587 -1.9075 -0.3849  0.3564
13629TIP3   OH262301   3.756   6.761   2.894  0.1531 -0.5517  0.0456
13629TIP3    H162302   3.739   6.843   2.941  0.9532 -0.3683  0.0316
13629TIP3    H262303   3.845   6.770   2.862  0.1933 -1.3727 -0.0913
13630TIP3   OH262304   1.306   4.692  14.358  0.2492 -0.1964 -0.0071
13630TIP3    H162305   1.338   4.705  14.447  0.4215 -0.4300 -0.0357
13630TIP3    H262306   1.292   4.598  14.351  1.3048 -0.3193 -0.5931
13631TIP3   OH262307   6.716   1.182  15.992 -0.3516 -0.3623  0.0937
13631TIP3    H162308   6.727   1.093  15.958  0.2460  0.2785 -1.4810
13631TIP3    H262309   6.751   1.239  15.924 -0.5428  1.0941  1.1461
13632TIP3   OH262310   4.852   5.844   3.597 -0.0720 -0.2768 -0.2248
13632TIP3    H162311   4.821   5.906   3.531 -2.2629 -1.0827 -0.0237
13632TIP3    H262312   4.773   5.812   3.640  1.2321 -0.3900  2.2759
13633TIP3   OH262313   5.660   1.572  13.135 -0.4676  0.4205  0.3588
13633TIP3    H162314   5.706   1.572  13.051  1.0852 -1.0949  1.1564
13633TIP3    H262315   5.720   1.616  13.195  1.6099 -4.1639  2.1291
13634TIP3   OH262316   5.196   2.461  15.211  0.6840  0.2694 -0.3008
13634TIP3    H162317   5.168   2.410  15.287 -0.8066  0.4741 -0.6706
13634TIP3    H262318   5.212   2.549  15.246 -1.3719  0.7337 -0.3999
13635TIP3   OH262319   1.849   6.691  17.036  0.1724  0.3276 -0.4580
13635TIP3    H162320   1.774   6.751  17.045  0.4076  0.4948  0.5749
13635TIP3    H262321   1.915   6.728  17.095  1.0184  0.1001 -1.2520
13636TIP3   OH262322   4.289   2.487   4.863  0.1757  0.5827 -0.2539
13636TIP3    H162323   4.228   2.553   4.895 -0.5312 -0.4587  0.5989
13636TIP3    H262324   4.235   2.410   4.846  1.1465 -0.1557 -0.1018
13637TIP3   OH262325   1.111   0.140   0.438 -0.3858 -0.1095  0.0801
13637TIP3    H162326   1.090   0.233   0.430 -1.5060 -0.4181 -0.9092
13637TIP3    H262327   1.196   0.131   0.394  0.3867  0.6460  1.3681
13638TIP3   OH262328   6.168   2.625   0.590  0.1756  0.1758  0.1521
13638TIP3    H162329   6.211   2.557   0.642  1.2738  0.5489 -0.2482
13638TIP3    H262330   6.159   2.586   0.503 -2.1408 -0.6526  0.6784
13639TIP3   OH262331   5.354   1.047   5.948  0.2109 -0.6215  0.0350
13639TIP3    H162332   5.341   0.955   5.924  2.8206 -1.3918  1.1628
13639TIP3    H262333   5.331   1.096   5.869  1.7123 -2.4931 -1.6789
13640TIP3   OH262334   0.747   4.666   2.757 -0.8922  0.5098 -0.4595
13640TIP3    H162335   0.686   4.645   2.686  1.2628 -0.5959 -2.1119
13640TIP3    H262336   0.721   4.607   2.828 -0.2924 -1.8002 -2.0121
13641TIP3   OH262337   2.643   2.732   5.235 -1.0617 -0.1232  0.3398
13641TIP3    H162338   2.668   2.724   5.143 -1.5846 -0.1363  0.1940
13641TIP3    H262339   2.716   2.694   5.284  0.1005  1.5816  0.0337
13642TIP3   OH262340   5.350   1.445  17.241  0.1127 -0.7602  0.3145
13642TIP3    H162341   5.395   1.488  17.314 -0.5940 -0.3138  0.4898
13642TIP3    H262342   5.268   1.412  17.279 -0.9830  0.8045 -0.6022
13643TIP3   OH262343   0.442   1.819   5.169 -0.2275 -0.4267 -0.7934
13643TIP3    H162344   0.483   1.901   5.198 -0.2776 -0.2787 -1.1388
13643TIP3    H262345   0.514   1.767   5.133 -0.1825 -0.5694 -0.5026
13644TIP3   OH262346   5.496   6.123   3.000  0.2591  0.1392  0.8265
13644TIP3    H162347   5.555   6.138   3.073  1.4237 -2.0304  0.4194
13644TIP3    H262348   5.468   6.032   3.011  2.5096 -1.1916 -2.7433
13645TIP3   OH262349   4.770   4.473   5.003 -0.5298  0.1680  0.8830
13645TIP3    H162350   4.828   4.465   4.927 -1.6393  1.2954 -0.1083
13645TIP3    H262351   4.682   4.462   4.968 -1.0038 -0.5010  2.2173
13646TIP3   OH262352   5.642   0.533  17.067  0.0809  0.2515 -0.4774
13646TIP3    H162353   5.705   0.560  17.000  1.5023 -2.3461 -0.3248
13646TIP3    H262354   5.612   0.446  17.038 -0.6127 -0.1758  1.3579
13647TIP3   OH262355   2.642   2.415   1.132  0.1349  0.7213 -0.3802
13647TIP3    H162356   2.684   2.350   1.075 -2.4653  0.1320 -1.7683
13647TIP3    H262357   2.590   2.468   1.073 -1.5962  0.9880  1.3051
13648TIP3   OH262358   2.528   5.410  11.235 -0.0854 -0.0977  0.3967
13648TIP3    H162359   2.484   5.417  11.150  0.3698 -0.2430  0.1410
13648TIP3    H262360   2.492   5.330  11.274  0.2918 -0.4825 -0.0216
13649TIP3   OH262361   1.243   5.434  10.776 -0.2148 -0.5461  0.1172
13649TIP3    H162362   1.214   5.344  10.787 -0.0215 -0.5997  0.1918
13649TIP3    H262363   1.163   5.483  10.760 -0.6943 -0.3066  2.7063
13650TIP3   OH262364   4.481   4.801   1.900 -0.3403 -0.4059  0.2246
13650TIP3    H162365   4.388   4.819   1.884 -0.5778 -0.2260  1.6404
13650TIP3    H262366   4.524   4.824   1.818 -1.4932 -0.0707 -0.3187
13651TIP3   OH262367   6.594   0.877  16.052 -0.8134  0.0031  0.0514
13651TIP3    H162368   6.594   0.811  15.982  0.3631  0.4628 -0.4154
13651TIP3    H262369   6.574   0.828  16.131  2.6993 -1.5274  0.1729
13652TIP3   OH262370   4.422   3.344   0.608  0.4701  0.1160 -0.2374
13652TIP3    H162371   4.377   3.375   0.529  1.5594 -0.2172 -1.0055
13652TIP3    H262372   4.445   3.254   0.589 -1.7395 -0.9386  1.5859
13653TIP3   OH262373   1.545   0.606  15.016 -0.3151 -0.4884 -0.2649
13653TIP3    H162374   1.468   0.630  15.068  0.2634 -0.5143  0.6213
13653TIP3    H262375   1.602   0.683  15.021 -0.4312 -0.3192 -1.2392
13654TIP3   OH262376   1.802   5.789   1.080  0.1803 -0.2589  0.3181
13654TIP3    H162377   1.770   5.861   1.026  0.3585 -0.1493  0.3576
13654TIP3    H262378   1.892   5.813   1.102  0.2121 -0.4511  0.4049
13655TIP3   OH262379   4.374   1.418   4.779  0.3635 -0.1354 -0.6160
13655TIP3    H162380   4.311   1.458   4.719 -0.1065 -0.4611 -0.3492
13655TIP3    H262381   4.456   1.414   4.730 -0.0083 -0.3630 -1.2191
13656TIP3   OH262382   2.446   0.810   3.053  0.2153  0.7899 -0.4978
13656TIP3    H162383   2.504   0.844   3.121 -1.2882  0.4565  1.0106
13656TIP3    H262384   2.505   0.770   2.989  1.6861  1.3067  0.4831
13657TIP3   OH262385   5.637   6.201  10.761 -0.1108 -0.6599  0.3659
13657TIP3    H162386   5.542   6.196  10.754 -0.0851 -0.7987  0.0985
13657TIP3    H262387   5.665   6.111  10.778 -0.0106 -0.6571  0.2185
13658TIP3   OH262388   0.653   4.016   0.649  0.0527  0.0974  0.3714
13658TIP3    H162389   0.710   4.062   0.710  1.7234 -1.2329 -0.0894
13658TIP3    H262390   0.704   4.009   0.568 -0.8729 -0.8783 -0.1673
13659TIP3   OH262391   1.793   1.049   1.350  0.0944 -0.2899  0.2433
13659TIP3    H162392   1.821   1.057   1.442 -0.3906 -0.1386  0.3802
13659TIP3    H262393   1.789   1.139   1.319  2.1578 -0.4081 -0.5214
13660TIP3   OH262394   1.742   3.365  12.940  0.1526 -0.7000 -0.6165
13660TIP3    H162395   1.743   3.281  12.986  0.9862 -1.6845 -2.3237
13660TIP3    H262396   1.650   3.383  12.925 -0.1159 -0.5642  1.0118
13661TIP3   OH262397   5.787   5.306   2.247  0.0210 -0.4421  0.1666
13661TIP3    H162398   5.737   5.231   2.216 -3.1603 -0.0217  3.5302
13661TIP3    H262399   5.749   5.381   2.203 -1.0659 -0.3128  1.2727
13662TIP3   OH262400   3.637   3.247  16.966 -0.0672 -0.0381  0.0924
13662TIP3    H162401   3.669   3.227  17.054 -0.5645 -1.4453 -0.0178
13662TIP3    H262402   3.646   3.341  16.958  3.6388 -0.2529  0.1981
13663TIP3   OH262403   5.037   3.354  15.730 -0.2847 -0.1363  0.9706
13663TIP3    H162404   5.089   3.278  15.705 -1.6309 -0.8332  0.1664
13663TIP3    H262405   5.069   3.377  15.817  0.4561 -1.3551  1.0433
13664TIP3   OH262406   4.403   5.970   5.307 -0.2231 -0.0756  0.3080
13664TIP3    H162407   4.387   5.883   5.270 -1.3221  0.6395 -1.0031
13664TIP3    H262408   4.401   5.956   5.402  0.3010 -1.5849  0.1252
13665TIP3   OH262409   6.733   2.296   1.768 -0.2993  0.5584 -0.1997
13665TIP3    H162410   6.752   2.218   1.715 -0.9562  0.8283 -0.8409
13665TIP3    H262411   6.642   2.284   1.796  0.1154  0.2846  1.1101
13666TIP3   OH262412   3.593   4.743   1.557  0.0145 -0.7245 -0.2337
13666TIP3    H162413   3.553   4.656   1.546  0.1564 -1.0256  1.3533
13666TIP3    H262414   3.543   4.783   1.628  0.1955  0.3480 -0.7084
13667TIP3   OH262415   5.203   2.428   4.295 -0.8470 -0.0207  0.2923
13667TIP3    H162416   5.232   2.337   4.305 -0.0492  0.3274  1.3667
13667TIP3    H262417   5.258   2.463   4.225 -1.0145 -0.3061  0.0168
13668TIP3   OH262418   1.504   1.964   2.048  0.4860  0.5943 -0.0494
13668TIP3    H162419   1.449   1.908   2.102  0.8388  1.1946  0.9681
13668TIP3    H262420   1.557   1.903   1.997 -0.2704  0.0112 -0.1531
13669TIP3   OH262421   1.031   5.961   2.434 -0.4766  0.1753 -0.0047
13669TIP3    H162422   1.010   6.025   2.366 -1.3755 -2.0488 -1.9447
13669TIP3    H262423   1.126   5.952   2.431 -0.6108 -1.1581 -2.3032
13670TIP3   OH262424   6.675   2.009  15.730 -0.1863  0.6282  0.0122
13670TIP3    H162425   6.607   2.071  15.702  0.2582  1.3906  0.5728
13670TIP3    H262426   6.654   1.991  15.822  0.0766  0.4716  0.0410
13671TIP3   OH262427   5.444   2.713   4.961  0.1248 -0.3272 -0.1333
13671TIP3    H162428   5.483   2.782   5.014  0.0534 -0.6438  0.3388
13671TIP3    H262429   5.409   2.758   4.884 -2.4416  0.6064  1.4537
13672TIP3   OH262430   6.614   1.104   5.821 -0.1587 -0.3025 -0.1794
13672TIP3    H162431   6.691   1.090   5.876  1.4991  0.2456 -2.2362
13672TIP3    H262432   6.628   1.049   5.745 -1.0936  0.9194 -1.2798
13673TIP3   OH262433   3.641   0.287   2.561 -0.1430  0.0326 -0.2428
13673TIP3    H162434   3.569   0.241   2.517 -0.6350  0.1242  0.4480
13673TIP3    H262435   3.603   0.318   2.643  0.7530 -0.1084  0.2347
13674TIP3   OH262436   3.992   4.969   2.315  0.5113 -0.9098 -0.2609
13674TIP3    H162437   4.025   4.879   2.306  1.4816 -0.5386 -0.5260
13674TIP3    H262438   4.051   5.010   2.378  1.4691  0.1872 -1.7951
13675TIP3   OH262439   4.726   0.544  11.472  0.1445 -0.1497  0.6211
13675TIP3    H162440   4.715   0.547  11.567 -1.0293  0.2060  0.4965
13675TIP3    H262441   4.667   0.474  11.443  0.2481 -0.0365  0.1214
13676TIP3   OH262442   6.564   0.138  13.606  0.0428  0.2077 -0.1462
13676TIP3    H162443   6.497   0.070  13.602  1.6660 -1.4325 -1.4373
13676TIP3    H262444   6.607   0.123  13.690  0.7546 -0.7897 -0.6620
13677TIP3   OH262445   2.057   6.452  11.475 -0.3953 -0.6981  0.2270
13677TIP3    H162446   1.975   6.446  11.425 -0.9769  0.4249  0.9758
13677TIP3    H262447   2.104   6.524  11.434 -0.4426 -0.4000  0.6967
13678TIP3   OH262448   0.131   3.266  13.362  0.4266 -0.4854 -0.2157
13678TIP3    H162449   0.058   3.204  13.357  1.9883 -2.4186 -0.3335
13678TIP3    H262450   0.168   3.266  13.274 -0.0345  1.3280 -0.4532
13679TIP3   OH262451   2.941   0.113   0.451 -0.2598 -0.0355  0.4819
13679TIP3    H162452   3.018   0.163   0.424  0.1260 -0.2577  1.1451
13679TIP3    H262453   2.963   0.081   0.538 -0.9306 -0.4780  0.4936
13680TIP3   OH262454   1.456   4.375  11.817 -0.4022 -0.1112  0.0664
13680TIP3    H162455   1.380   4.431  11.801 -1.1763 -1.2788 -0.5465
13680TIP3    H262456   1.522   4.406  11.756 -1.3391 -0.7848 -1.3632
13681TIP3   OH262457   2.807   3.428   3.550  0.2943 -0.0008 -0.0554
13681TIP3    H162458   2.857   3.467   3.478 -1.0802 -0.4052 -1.2684
13681TIP3    H262459   2.862   3.355   3.579  0.5496 -0.2789 -1.1879
13682TIP3   OH262460   2.555   1.057  14.413 -0.3806 -0.2704 -0.0132
13682TIP3    H162461   2.567   1.034  14.505 -0.1866 -1.8101 -0.3842
13682TIP3    H262462   2.642   1.051  14.375 -0.6489 -1.0220 -0.5546
13683TIP3   OH262463   4.024   6.490   1.078  0.0567  0.8753 -0.2374
13683TIP3    H162464   3.985   6.520   1.160 -1.3168  0.4256 -0.7133
13683TIP3    H262465   4.104   6.543   1.070  0.3350  0.7753  1.4815
13684TIP3   OH262466   5.346   6.659   5.141  0.1687  0.0063 -0.8660
13684TIP3    H162467   5.352   6.599   5.215  2.1417  2.2963  0.9874
13684TIP3    H262468   5.401   6.618   5.073 -1.0401 -1.7381 -0.8619
13685TIP3   OH262469   1.394   2.949  11.343  0.5645 -0.6599  0.0679
13685TIP3    H162470   1.358   2.894  11.412 -0.0342  0.3521  0.5951
13685TIP3    H262471   1.371   2.905  11.262  0.5297 -1.4346  0.4953
13686TIP3   OH262472   2.084   4.904   0.703 -0.0485  0.4502  0.1776
13686TIP3    H162473   2.055   4.835   0.762 -1.1581  1.1568  0.4795
13686TIP3    H262474   2.159   4.866   0.657 -0.4815 -0.8532  0.5174
13687TIP3   OH262475   5.489   5.560   2.851  0.0080 -0.0972 -0.3713
13687TIP3    H162476   5.533   5.643   2.832  0.0930  0.5460  2.2467
13687TIP3    H262477   5.409   5.586   2.898  0.2475 -1.4999  0.8744
13688TIP3   OH262478   2.573   1.780   2.301  0.1588 -0.0221 -0.5957
13688TIP3    H162479   2.526   1.839   2.242 -0.4469  1.8870  1.6176
13688TIP3    H262480   2.558   1.693   2.265 -1.7582  0.8803 -2.1948
13689TIP3   OH262481   3.196   0.217   4.480  0.3479 -0.5844 -0.3869
13689TIP3    H162482   3.246   0.291   4.515  0.4087 -1.1901  0.8879
13689TIP3    H262483   3.128   0.257   4.426 -0.0609  0.4644  0.8512
13690TIP3   OH262484   1.703   1.853  15.660  0.4714 -0.3277  0.2914
13690TIP3    H162485   1.618   1.864  15.703 -0.0237 -0.3843 -0.6460
13690TIP3    H262486   1.717   1.758  15.658  0.3247 -0.3444  0.0131
13691TIP3   OH262487   3.912   3.225  16.543  0.0370  0.3334  0.0035
13691TIP3    H162488   3.887   3.177  16.464  1.3839 -0.0677 -0.2078
13691TIP3    H262489   4.003   3.199  16.559  0.8103  2.6950 -0.0579
13692TIP3   OH262490   3.398   2.166   0.157 -0.4320 -0.3840  0.0222
13692TIP3    H162491   3.474   2.212   0.122  0.7376 -2.9732 -1.1524
13692TIP3    H262492   3.420   2.149   0.249  0.2466 -0.7682 -0.2070
13693TIP3   OH262493   5.761   3.719  15.015 -0.7134 -0.5499 -0.0017
13693TIP3    H162494   5.758   3.714  14.919  0.4637  0.1844 -0.0944
13693TIP3    H262495   5.764   3.628  15.043  2.2694 -0.8297 -0.8502
13694TIP3   OH262496   6.352   0.893   3.900 -0.2708  0.3948 -0.4874
13694TIP3    H162497   6.292   0.884   3.975  0.9940  0.1219  0.5319
13694TIP3    H262498   6.393   0.808   3.892  1.4901  1.1230  0.2009
13695TIP3   OH262499   2.543   0.422  11.808  0.3388 -0.0761  0.5827
13695TIP3    H162500   2.477   0.370  11.762 -0.8060  0.1684  1.8932
13695TIP3    H262501   2.504   0.509  11.816  1.1386  0.2788  0.7172
13696TIP3   OH262502   6.742   3.179   6.085 -0.1118 -0.2668 -0.1086
13696TIP3    H162503   6.663   3.151   6.132 -0.5209  0.2853 -0.4555
13696TIP3    H262504   6.813   3.170   6.149 -0.4434 -0.8428  0.1823
13697TIP3   OH262505   1.758   4.399  16.073 -0.2016 -0.0327  0.0794
13697TIP3    H162506   1.672   4.405  16.030  0.0112 -0.0498 -0.3534
13697TIP3    H262507   1.775   4.305  16.078  0.5599  0.0078 -1.3936
13698TIP3   OH262508   6.121   6.374   4.850  0.2527  0.0067  0.3709
13698TIP3    H162509   6.125   6.349   4.757  0.4754  0.1180  0.3481
13698TIP3    H262510   6.069   6.306   4.891 -0.9888  0.6487 -0.0687
13699TIP3   OH262511   3.675   6.700   5.134 -0.3241  0.1088  0.1855
13699TIP3    H162512   3.607   6.744   5.082  0.7526 -0.5984 -1.9336
13699TIP3    H262513   3.690   6.617   5.088  1.1224 -0.2883  1.3033
13700TIP3   OH262514   0.383   1.607  14.894 -0.1436 -0.1396 -0.3866
13700TIP3    H162515   0.366   1.693  14.856  0.6697  0.3680  0.3614
13700TIP3    H262516   0.422   1.557  14.822  2.8461  1.2979  0.0842
13701TIP3   OH262517   4.543   5.862  11.717 -0.7246  0.2024 -0.5115
13701TIP3    H162518   4.568   5.825  11.632 -0.0336  1.4071 -0.8572
13701TIP3    H262519   4.566   5.955  11.710  1.8061 -0.1229  1.8953
13702TIP3   OH262520   5.129   1.786   5.025  0.1901  0.0968  0.0279
13702TIP3    H162521   5.127   1.797   4.930  0.0377  0.4460  0.0682
13702TIP3    H262522   5.083   1.704   5.041 -1.2683  0.8492 -0.0977
13703TIP3   OH262523   2.654   2.100   6.133  0.1515  0.2199  0.5529
13703TIP3    H162524   2.648   2.063   6.045 -0.7806 -0.1121  0.7452
13703TIP3    H262525   2.746   2.125   6.142  0.2988  0.0887 -0.4432
13704TIP3   OH262526   5.864   2.074  14.713  0.3243 -0.6187  0.7282
13704TIP3    H162527   5.878   1.981  14.729  1.1038 -0.2702  2.2878
13704TIP3    H262528   5.931   2.098  14.648  2.1430 -0.5611  2.5367
13705TIP3   OH262529   4.537   4.460  14.431  0.6764 -0.1532  0.6072
13705TIP3    H162530   4.536   4.536  14.489 -0.4054 -0.6828  1.3265
13705TIP3    H262531   4.444   4.442  14.414  0.7666 -2.5651  2.1789
13706TIP3   OH262532   3.991   0.810   4.851  0.5148 -0.1604 -0.3739
13706TIP3    H162533   3.995   0.778   4.761  1.8497 -0.3055 -0.2785
13706TIP3    H262534   3.960   0.734   4.902  2.9862 -1.1783 -0.2520
13707TIP3   OH262535   5.267   0.968   3.143 -0.5258  0.6019 -0.2174
13707TIP3    H162536   5.228   0.995   3.059  0.9347  0.1949 -1.0555
13707TIP3    H262537   5.192   0.961   3.203 -1.6833  0.3205 -1.6366
13708TIP3   OH262538   4.428   2.203  16.356 -0.0632  0.4260 -0.3754
13708TIP3    H162539   4.495   2.240  16.299 -0.1689  0.2259 -0.6341
13708TIP3    H262540   4.477   2.158  16.425  0.1376  3.3290  1.5574
13709TIP3   OH262541   1.275   3.841  14.514  0.6341  0.5522  0.5137
13709TIP3    H162542   1.257   3.934  14.500 -0.4757  0.2656 -0.1010
13709TIP3    H262543   1.286   3.805  14.426 -2.2717 -0.4878  0.4513
13710TIP3   OH262544   2.299   4.645   5.510 -0.0377 -0.3707  0.3391
13710TIP3    H162545   2.305   4.550   5.498 -0.5155 -0.2455 -1.0875
13710TIP3    H262546   2.387   4.677   5.490  0.3520 -0.5797  1.6648
13711TIP3   OH262547   1.110   1.667   4.367  0.5632 -0.2863  0.2780
13711TIP3    H162548   1.085   1.732   4.301 -0.2774 -0.0640  0.8086
13711TIP3    H262549   1.065   1.587   4.339 -1.9401  0.4236  1.9379
13712TIP3   OH262550   4.574   2.051  11.596  0.2899 -0.1031  0.0239
13712TIP3    H162551   4.594   2.131  11.644 -2.2458 -0.3030  1.6200
13712TIP3    H262552   4.544   2.080  11.510 -2.8193  0.9620  1.3369
13713TIP3   OH262553   1.858   3.822   3.345 -0.2129 -0.6355  1.2306
13713TIP3    H162554   1.892   3.854   3.429  0.6576 -0.4123  0.8094
13713TIP3    H262555   1.807   3.896   3.311  0.3593 -0.3131  1.0565
13714TIP3   OH262556   5.983   2.967  15.347 -0.2088  0.1354 -0.4364
13714TIP3    H162557   6.000   2.882  15.307  2.0662  0.3895 -0.1445
13714TIP3    H262558   5.986   3.029  15.274  1.0852  0.2783 -0.2738
13715TIP3   OH262559   4.654   5.420  14.973 -0.3634  0.5507  0.1022
13715TIP3    H162560   4.575   5.369  14.990  1.9774 -2.5371  3.2645
13715TIP3    H262561   4.710   5.361  14.923  2.0729  0.1470  3.0371
13716TIP3   OH262562   5.483   5.879   4.680 -0.7077  0.3348 -0.0556
13716TIP3    H162563   5.567   5.859   4.720 -1.2334  0.8901  1.3733
13716TIP3    H262564   5.418   5.860   4.748 -1.6156  1.5553 -0.5405
13717TIP3   OH262565   3.091   1.099   0.210 -0.5397 -0.5156 -0.1401
13717TIP3    H162566   3.082   1.099   0.305  0.2491  1.7390 -0.0002
13717TIP3    H262567   3.024   1.038   0.179 -0.4195 -1.7537  1.8626
13718TIP3   OH262568   5.684   5.145   3.538 -0.0588  0.0871 -0.2439
13718TIP3    H162569   5.763   5.091   3.533  0.2101  0.2847  1.3989
13718TIP3    H262570   5.615   5.084   3.562 -0.1082  0.1631 -0.1922
13719TIP3   OH262571   4.164   0.305  11.324 -0.1731 -0.3045  0.1915
13719TIP3    H162572   4.122   0.351  11.396 -0.1185 -0.4184  0.2972
13719TIP3    H262573   4.095   0.295  11.258 -0.6230 -1.4543  0.8070
13720TIP3   OH262574   5.282   4.708  16.713  0.1300  0.7559  0.0814
13720TIP3    H162575   5.227   4.786  16.718  0.0874  0.7150  0.2513
13720TIP3    H262576   5.346   4.720  16.783 -0.0363  0.5131  0.2727
13721TIP3   OH262577   0.220   2.919   1.611 -0.2204  0.8105  0.1664
13721TIP3    H162578   0.265   2.927   1.527 -0.4396 -0.0789 -0.0430
13721TIP3    H262579   0.141   2.869   1.592 -1.4557  2.5639  0.4860
13722TIP3   OH262580   3.565   0.508  12.686  0.5079  0.0447 -0.2104
13722TIP3    H162581   3.613   0.483  12.607  1.3668 -1.2127  0.6748
13722TIP3    H262582   3.632   0.538  12.747  0.2950 -2.0977  1.1916
13723TIP3   OH262583   4.024   3.564  10.597  0.5381  0.1358  0.2258
13723TIP3    H162584   4.007   3.641  10.542 -0.1102 -0.4319 -0.3890
13723TIP3    H262585   3.937   3.532  10.621  0.8112  0.0921  1.2066
13724TIP3   OH262586   3.462   1.656  15.466 -0.3481  0.3951 -0.1921
13724TIP3    H162587   3.441   1.745  15.436  0.1941  0.4970 -0.2885
13724TIP3    H262588   3.456   1.602  15.387  0.9325  0.6379 -0.4855
13725TIP3   OH262589   1.022   5.856  13.181 -0.5692 -0.0465 -0.2342
13725TIP3    H162590   1.089   5.844  13.248 -0.6487 -1.8373 -0.4387
13725TIP3    H262591   1.070   5.858  13.098 -0.7354 -1.4152 -0.3879
13726TIP3   OH262592   2.386   3.694  15.639 -0.4757 -0.2683  0.1105
13726TIP3    H162593   2.339   3.735  15.711 -1.4841 -0.4985 -0.3979
13726TIP3    H262594   2.445   3.631  15.682 -0.3502  0.2917  0.7780
13727TIP3   OH262595   5.189   3.611   2.367 -0.0184 -0.5195  0.0026
13727TIP3    H162596   5.113   3.668   2.381 -0.1462 -0.3049 -1.4177
13727TIP3    H262597   5.170   3.566   2.285  0.7368 -1.5631  0.3722
13728TIP3   OH262598   6.395   0.212   1.968  0.0899  0.5095 -0.5672
13728TIP3    H162599   6.465   0.176   2.022  0.8800 -0.1202 -1.9645
13728TIP3    H262600   6.406   0.307   1.975 -0.8098  0.5292  1.5906
13729TIP3   OH262601   1.579   0.438  14.805  0.1274 -0.9263  0.0521
13729TIP3    H162602   1.499   0.447  14.753  1.0508  0.2152 -1.2300
13729TIP3    H262603   1.562   0.490  14.884 -0.3378 -0.5569 -0.2894
13730TIP3   OH262604   0.680   2.441   1.145  0.1750 -0.0319 -0.1436
13730TIP3    H162605   0.709   2.495   1.071 -1.9938  2.7150  0.8206
13730TIP3    H262606   0.630   2.371   1.105 -0.0048  0.7519 -1.3489
13731TIP3   OH262607   6.095   2.453   1.409  0.5354  0.6369 -0.0879
13731TIP3    H162608   6.102   2.466   1.504  1.0177 -0.7617  0.0845
13731TIP3    H262609   6.158   2.384   1.389 -1.3336 -0.8680 -1.0549
13732TIP3   OH262610   4.177   2.279  10.757 -0.5983 -0.1919  0.3274
13732TIP3    H162611   4.173   2.343  10.686 -2.7536 -1.6897 -0.9992
13732TIP3    H262612   4.266   2.288  10.792 -0.1734  2.0748 -1.1207
13733TIP3   OH262613   5.597   0.507  14.479  0.4381  0.1205 -0.2218
13733TIP3    H162614   5.657   0.557  14.535 -0.1118 -0.2504  0.7308
13733TIP3    H262615   5.596   0.420  14.519 -0.6505  0.0920 -0.2995
13734TIP3   OH262616   4.070   5.281  11.864  0.3372  0.2721  0.7210
13734TIP3    H162617   4.146   5.338  11.874  1.4002 -1.0090  0.0755
13734TIP3    H262618   4.002   5.339  11.828  0.0230  2.1505  3.9170
13735TIP3   OH262619   5.569   2.821  12.199  0.4887 -0.1153  0.3282
13735TIP3    H162620   5.489   2.860  12.234  0.9729  0.0710  1.2577
13735TIP3    H262621   5.597   2.881  12.130  0.1271  0.1078  0.3752
13736TIP3   OH262622   4.304   5.419   5.602 -0.0570  0.5784 -0.4791
13736TIP3    H162623   4.218   5.426   5.643  0.3596 -0.5327  0.6289
13736TIP3    H262624   4.318   5.325   5.591  1.3240  0.7059  0.0421
13737TIP3   OH262625   0.614   1.294  13.360 -0.1201 -0.4369  0.4965
13737TIP3    H162626   0.666   1.250  13.428  0.5551 -0.5224 -0.0660
13737TIP3    H262627   0.563   1.224  13.320  1.8076 -0.9639 -1.1768
13738TIP3   OH262628   2.460   4.698   0.517 -0.3032  0.0383  0.3212
13738TIP3    H162629   2.383   4.751   0.496 -1.0720 -1.1177  0.1120
13738TIP3    H262630   2.482   4.722   0.607 -0.2683  1.1394  0.0259
13739TIP3   OH262631   0.615   4.893  16.501 -0.4314 -0.3950 -0.2119
13739TIP3    H162632   0.695   4.889  16.449 -0.0405 -1.6694  0.4345
13739TIP3    H262633   0.546   4.917  16.439  0.0558 -1.6505 -1.2828
13740TIP3   OH262634   4.026   2.823   0.460 -0.3181 -0.0566 -0.3218
13740TIP3    H162635   4.084   2.896   0.441 -0.7134  0.6444  1.0561
13740TIP3    H262636   4.000   2.836   0.551 -2.7021 -0.2776 -0.8969
13741TIP3   OH262637   4.076   5.793  14.441 -0.4851 -0.3110 -0.3972
13741TIP3    H162638   4.127   5.766  14.517 -0.4854  0.7734  0.0190
13741TIP3    H262639   3.995   5.743  14.447  0.0767 -1.2411 -0.4569
13742TIP3   OH262640   5.543   0.265   6.401  0.6565  0.1247 -0.0461
13742TIP3    H162641   5.448   0.250   6.399  0.7712 -0.7023  0.2288
13742TIP3    H262642   5.579   0.183   6.436  1.3997  0.7459  0.6715
13743TIP3   OH262643   0.460   4.337  14.389  0.1988  0.1784  0.0550
13743TIP3    H162644   0.465   4.414  14.332  1.2971 -1.7213 -2.6055
13743TIP3    H262645   0.368   4.309  14.383 -0.4239  1.6444  1.7120
13744TIP3   OH262646   3.435   4.106  13.179 -0.3163 -0.3355 -1.1536
13744TIP3    H162647   3.444   4.069  13.091 -0.4045  0.7999 -1.6562
13744TIP3    H262648   3.377   4.182  13.167 -0.1837 -0.0669 -0.1422
13745TIP3   OH262649   2.829   5.892  12.410 -0.0402 -0.0310 -0.2314
13745TIP3    H162650   2.914   5.909  12.368  0.1277 -2.8181 -1.2655
13745TIP3    H262651   2.852   5.849  12.493 -0.4489  0.2108  0.0085
13746TIP3   OH262652   5.238   3.016   3.543 -0.1595  0.2627 -0.1718
13746TIP3    H162653   5.212   2.924   3.551  0.3000 -0.0133 -1.5179
13746TIP3    H262654   5.332   3.016   3.562  0.6967 -0.2234 -3.6213
13747TIP3   OH262655   3.189   6.634   2.804 -0.4983 -0.0991  0.0651
13747TIP3    H162656   3.098   6.660   2.813 -1.3318 -2.6034 -0.3861
13747TIP3    H262657   3.236   6.715   2.784 -2.8588  1.0168 -1.2804
13748TIP3   OH262658   4.984   1.544  11.044  0.0562  0.0667  0.3361
13748TIP3    H162659   5.008   1.552  11.136  3.0663  0.0647 -0.3505
13748TIP3    H262660   4.996   1.452  11.023  0.6034  0.2764 -0.3266
13749TIP3   OH262661   3.927   4.109   2.992  0.0189 -0.5630  0.7522
13749TIP3    H162662   3.949   4.149   3.077  0.2668 -1.6483  1.2148
13749TIP3    H262663   3.861   4.167   2.955  2.8964  2.4023 -0.2880
13750TIP3   OH262664   5.222   2.253  16.291 -0.2991 -0.2111  0.0836
13750TIP3    H162665   5.283   2.301  16.347  1.6598 -2.5577  0.1139
13750TIP3    H262666   5.172   2.198  16.352  1.8150 -2.7491 -0.3057
13751TIP3   OH262667   5.769   3.564   2.901  0.4125  0.1937  0.2818
13751TIP3    H162668   5.697   3.543   2.961  1.3895 -2.6656  0.5852
13751TIP3    H262669   5.731   3.627   2.840 -1.6491  0.5218  1.7840
13752TIP3   OH262670   3.669   3.370   2.069 -0.1652  0.2002  0.0317
13752TIP3    H162671   3.609   3.397   1.999  0.3231 -1.2612 -0.9993
13752TIP3    H262672   3.631   3.407   2.148 -0.9541  1.5798 -0.9366
13753TIP3   OH262673   1.723   6.106   4.226 -0.0129 -0.1828 -0.2115
13753TIP3    H162674   1.663   6.032   4.225  0.6354 -0.7430  0.9075
13753TIP3    H262675   1.810   6.067   4.220  0.7404 -0.0673  5.0179
13754TIP3   OH262676   2.066   4.184   1.508  0.0709  0.2488 -0.3150
13754TIP3    H162677   2.087   4.105   1.558  0.9533 -0.1027 -1.2124
13754TIP3    H262678   2.131   4.186   1.438  1.6465  3.0560  1.0313
13755TIP3   OH262679   6.626   3.037   1.772  0.3757 -0.3292  0.3801
13755TIP3    H162680   6.531   3.030   1.769  0.2083  1.1841  1.1791
13755TIP3    H262681   6.644   3.123   1.733  1.3421 -0.2073  1.0709
13756TIP3   OH262682   6.360   1.020   1.782  0.0118 -0.2340  0.0717
13756TIP3    H162683   6.366   1.048   1.873 -0.5680  0.4689 -0.0986
13756TIP3    H262684   6.450   0.999   1.757  0.0433 -1.4829  1.1205
13757TIP3   OH262685   3.290   6.711  13.512 -0.0115 -0.3665  0.8394
13757TIP3    H162686   3.353   6.765  13.465 -1.3884  0.4969 -0.1054
13757TIP3    H262687   3.241   6.773  13.566 -0.5447 -0.8938  0.9765
13758TIP3   OH262688   2.412   3.967   6.165 -0.0924 -0.5134  0.0885
13758TIP3    H162689   2.393   3.928   6.079  1.1850 -0.6542 -0.1429
13758TIP3    H262690   2.376   4.056   6.158  1.0065 -0.1209 -1.0308
13759TIP3   OH262691   4.538   3.077   5.005 -0.0418  0.0235 -0.1945
13759TIP3    H162692   4.484   3.027   4.943  0.0884  0.7501 -0.9190
13759TIP3    H262693   4.475   3.128   5.055 -0.0680  0.6086 -0.8033
13760TIP3   OH262694   1.355   6.580  16.800  0.1564 -0.0723  0.4462
13760TIP3    H162695   1.371   6.660  16.750 -2.1055  0.5486  0.5798
13760TIP3    H262696   1.301   6.526  16.741 -1.7009  0.2474  1.7574
13761TIP3   OH262697   2.222   1.410  14.337 -0.0767  0.1049  0.4821
13761TIP3    H162698   2.273   1.332  14.317  0.8396  0.4548  1.4265
13761TIP3    H262699   2.209   1.453  14.252  1.7189  0.3283  0.2965
13762TIP3   OH262700   4.211   6.126  14.539  0.1096 -0.1430  0.3811
13762TIP3    H162701   4.292   6.147  14.586 -0.4824  0.7938  1.0033
13762TIP3    H262702   4.240   6.098  14.452  1.0614  0.9412  0.3332
13763TIP3   OH262703   6.467   3.520  16.204  0.1368 -0.1666  0.0860
13763TIP3    H162704   6.424   3.604  16.219  0.3891 -0.1099  0.5082
13763TIP3    H262705   6.524   3.535  16.129 -0.1992 -0.1061 -0.1628
13764TIP3   OH262706   2.542   3.549   2.889  0.0518  0.3094  0.9347
13764TIP3    H162707   2.526   3.501   2.808  0.0942 -2.2326  2.3222
13764TIP3    H262708   2.500   3.635   2.875 -1.2441 -0.5939 -1.1932
13765TIP3   OH262709   4.349   4.438  14.663 -0.5790 -0.4589 -0.1202
13765TIP3    H162710   4.360   4.347  14.691 -0.0890 -0.3753 -0.0196
13765TIP3    H262711   4.272   4.437  14.607  0.4587 -1.2757 -1.6093
13766TIP3   OH262712   5.029   0.497  10.960  0.0377 -0.1018 -0.0894
13766TIP3    H162713   5.035   0.431  11.029 -0.0060 -0.1524 -0.1351
13766TIP3    H262714   5.085   0.568  10.991  0.4358 -0.3448 -0.2466
13767TIP3   OH262715   5.697   4.605  10.837  0.4123  0.0372  0.7016
13767TIP3    H162716   5.749   4.635  10.912  1.3006  1.8176 -0.5573
13767TIP3    H262717   5.762   4.582  10.771 -0.3772  0.4844 -0.2438
13768TIP3   OH262718   0.779   3.545  12.103 -0.1611 -0.6086  0.2862
13768TIP3    H162719   0.755   3.483  12.172 -0.8050 -4.3526 -2.9232
13768TIP3    H262720   0.874   3.553  12.111 -0.1611 -1.3992  1.2901
13769TIP3   OH262721   3.110   2.279   1.794 -0.3585 -0.1579  0.0417
13769TIP3    H162722   3.189   2.270   1.740 -1.4079 -0.7621 -1.4886
13769TIP3    H262723   3.133   2.343   1.861  0.7469  1.3552 -1.6947
13770TIP3   OH262724   3.111   0.205  14.602  0.0358 -0.3197 -0.0994
13770TIP3    H162725   3.017   0.195  14.594 -0.1023  1.9279 -3.0551
13770TIP3    H262726   3.136   0.144  14.671 -3.7491  0.1882  1.9836
13771TIP3   OH262727   5.425   4.739   5.260 -0.2952 -0.4977 -0.4868
13771TIP3    H162728   5.341   4.721   5.218 -0.3027  0.6614 -1.0037
13771TIP3    H262729   5.487   4.748   5.188 -0.4277  2.1597 -0.3855
13772TIP3   OH262730   2.199   3.362  17.079 -0.8934 -0.2882 -0.7293
13772TIP3    H162731   2.248   3.283  17.101 -0.0886  0.2431 -0.5310
13772TIP3    H262732   2.183   3.404  17.164  0.3316  0.6839 -0.9428
13773TIP3   OH262733   2.060   6.714   2.314 -0.6539 -0.1135 -0.3342
13773TIP3    H162734   2.031   6.772   2.384 -0.4629  0.1634 -0.4818
13773TIP3    H262735   1.984   6.705   2.256 -0.7167 -0.0955 -0.2544
13774TIP3   OH262736   1.264   0.093   2.479 -0.6261 -0.7178  0.4540
13774TIP3    H162737   1.254   0.088   2.384 -0.0709 -2.7586  0.4668
13774TIP3    H262738   1.184   0.052   2.513 -0.0843 -1.4847  0.8247
13775TIP3   OH262739   5.552   6.289   4.652 -0.3729 -0.5591  0.3010
13775TIP3    H162740   5.498   6.239   4.713  0.6935 -1.4277  0.5805
13775TIP3    H262741   5.586   6.362   4.704 -1.2300 -0.0167  0.1274
13776TIP3   OH262742   3.602   3.154   5.352  0.6542 -0.0415 -0.6970
13776TIP3    H162743   3.666   3.207   5.304 -0.2751  0.3033 -1.6010
13776TIP3    H262744   3.547   3.116   5.284 -1.4318  1.3975  0.0729
13777TIP3   OH262745   4.683   0.514  12.064  0.2766  0.2950  0.1238
13777TIP3    H162746   4.673   0.593  12.117 -0.1411  0.0524  0.4057
13777TIP3    H262747   4.774   0.486  12.079  0.5485  0.9253 -0.2705
13778TIP3   OH262748   2.988   1.203   3.233  0.0766 -0.0647 -0.4929
13778TIP3    H162749   3.079   1.220   3.208  0.2626  1.2428  0.9213
13778TIP3    H262750   2.941   1.282   3.206 -0.4751 -0.3652 -0.4165
13779TIP3   OH262751   3.247   2.261  14.444 -0.1246  0.3495 -0.0889
13779TIP3    H162752   3.327   2.314  14.440  1.3362 -1.6280  1.0748
13779TIP3    H262753   3.258   2.207  14.523 -1.3676 -1.9032 -1.3497
13780TIP3   OH262754   2.084   2.607   1.787  0.1891  0.3572 -0.1226
13780TIP3    H162755   2.016   2.540   1.793 -0.3452  0.8818 -0.1763
13780TIP3    H262756   2.095   2.638   1.877  0.5133  0.1218 -0.0810
13781TIP3   OH262757   6.741   2.675  12.121 -0.0314  0.2829  0.4994
13781TIP3    H162758   6.719   2.624  12.200 -1.6618  1.4664  0.8547
13781TIP3    H262759   6.781   2.611  12.062  0.4137 -0.8243  1.9264
13782TIP3   OH262760   0.890   2.105   5.514  0.0908  0.0928  0.0297
13782TIP3    H162761   0.811   2.128   5.465 -0.4221 -0.4389  0.5881
13782TIP3    H262762   0.858   2.050   5.586  0.9471  0.0416  0.3789
13783TIP3   OH262763   1.381   0.292   3.353  0.1644 -0.2454 -0.2170
13783TIP3    H162764   1.366   0.372   3.302 -0.6058  1.0844  1.9924
13783TIP3    H262765   1.312   0.232   3.324 -0.8287  0.8172 -0.1285
13784TIP3   OH262766   3.308   2.688   2.695 -0.6663  0.0402 -0.3378
13784TIP3    H162767   3.316   2.779   2.723  0.1840  0.5052 -1.9432
13784TIP3    H262768   3.347   2.637   2.766 -0.2012  0.9997  0.1150
13785TIP3   OH262769   1.222   0.638  17.203  0.0497  0.0797  0.0429
13785TIP3    H162770   1.220   0.726  17.167 -1.3995  0.5626  1.1959
13785TIP3    H262771   1.310   0.606  17.184 -0.6571  0.1295 -4.1868
13786TIP3   OH262772   6.536   1.782   3.940  0.0535  0.5740 -0.1022
13786TIP3    H162773   6.488   1.864   3.954  0.6323  1.1737 -1.4987
13786TIP3    H262774   6.526   1.764   3.847 -0.5942 -1.3151  0.2940
13787TIP3   OH262775   4.962   5.634  11.787 -0.3799  0.9642  0.2703
13787TIP3    H162776   4.992   5.700  11.725 -0.0777  1.3295  0.8012
13787TIP3    H262777   4.919   5.568  11.732  2.0064  0.0258 -0.6265
13788TIP3   OH262778   5.469   5.805  10.969 -0.2687 -0.1058 -0.2707
13788TIP3    H162779   5.483   5.710  10.976 -0.9585 -0.3566 -1.9359
13788TIP3    H262780   5.427   5.828  11.052 -0.6106 -1.3710 -0.0659
13789TIP3   OH262781   2.676   1.561   6.459  0.3544  0.0765 -0.1307
13789TIP3    H162782   2.595   1.601   6.491  0.8081 -1.8093  4.0843
13789TIP3    H262783   2.648   1.480   6.416 -0.0742 -0.7861  1.6900
13790TIP3   OH262784   5.008   0.667  17.240 -0.0834 -0.1073 -0.5421
13790TIP3    H162785   5.047   0.703  17.320  1.2117 -0.6477 -0.9073
13790TIP3    H262786   4.925   0.629  17.269  2.0040 -3.7743  1.4070
13791TIP3   OH262787   0.027   0.716  13.213  0.3956  0.2115 -0.4067
13791TIP3    H162788   0.045   0.626  13.242 -0.1627  0.7293  1.7544
13791TIP3    H262789   0.090   0.769  13.263  0.1826  1.0935 -1.0607
13792TIP3   OH262790   1.633   2.336  15.595  0.7664  0.5909  0.0685
13792TIP3    H162791   1.555   2.318  15.647  1.8217 -1.6181  1.0400
13792TIP3    H262792   1.632   2.270  15.526  2.6065 -0.6430  1.1423
13793TIP3   OH262793   0.100   0.685  12.375 -0.1940  0.6373  1.0411
13793TIP3    H162794   0.034   0.745  12.409 -1.1680 -0.2382  0.7121
13793TIP3    H262795   0.100   0.612  12.437 -1.7715 -0.8340 -0.5962
13794TIP3   OH262796   4.045   3.355   3.610  0.2720  0.1496 -0.3915
13794TIP3    H162797   4.105   3.380   3.681 -1.1231  1.1368  0.5001
13794TIP3    H262798   4.063   3.418   3.540 -0.1240  0.8155  0.1008
13795TIP3   OH262799   0.122   5.581   6.503 -0.6456  0.2121 -0.1448
13795TIP3    H162800   0.130   5.508   6.441 -1.8469  0.0079 -0.0961
13795TIP3    H262801   0.083   5.542   6.581  0.9465  0.4495  0.8113
13796TIP3   OH262802   2.462   2.033  16.178  0.0138  0.3088 -0.0326
13796TIP3    H162803   2.501   2.001  16.098  0.5495  0.2788  0.2379
13796TIP3    H262804   2.536   2.047  16.237 -0.1117  2.6702 -0.3529
13797TIP3   OH262805   0.360   1.488  13.532 -0.2828  0.5146 -0.3405
13797TIP3    H162806   0.393   1.475  13.621  0.3874  0.4031 -0.6031
13797TIP3    H262807   0.287   1.550  13.542 -0.1044  0.6305  0.2608
13798TIP3   OH262808   5.106   2.252  15.411  0.5833 -0.0206  0.4749
13798TIP3    H162809   5.019   2.219  15.435 -0.8698  0.9497 -2.8939
13798TIP3    H262810   5.153   2.174  15.381 -0.1029 -0.1827 -0.2090
13799TIP3   OH262811   0.851   0.139  10.317 -0.3174  0.0742 -0.0055
13799TIP3    H162812   0.854   0.233  10.300 -0.4783  0.1313  0.2788
13799TIP3    H262813   0.847   0.132  10.413 -1.1851 -0.1952 -0.0520
13800TIP3   OH262814   2.332   2.136   0.402  0.2445 -0.0831  0.1156
13800TIP3    H162815   2.388   2.064   0.432  0.8044 -0.3209 -1.4288
13800TIP3    H262816   2.324   2.194   0.478  2.1545 -0.3007  0.5231
13801TIP3   OH262817   6.107   4.141   0.891 -0.3531  0.1816 -0.2053
13801TIP3    H162818   6.078   4.151   0.800  0.1207 -0.1987 -0.4079
13801TIP3    H262819   6.030   4.110   0.938 -0.8168  1.1624 -0.3111
13802TIP3   OH262820   3.615   0.433  17.128 -0.4062 -0.7695  0.2871
13802TIP3    H162821   3.652   0.424  17.040 -0.0366  0.7982  0.2531
13802TIP3    H262822   3.617   0.345  17.164 -0.2434 -1.3823 -1.1509
13803TIP3   OH262823   2.875   6.426  16.024 -0.2766 -0.5832 -0.4449
13803TIP3    H162824   2.912   6.513  16.009 -0.0374 -0.8328 -1.3393
13803TIP3    H262825   2.880   6.415  16.119  0.4972  0.0303 -0.3980
13804TIP3   OH262826   2.923   2.863  11.168 -0.6437 -0.0454  0.2841
13804TIP3    H162827   2.924   2.875  11.073 -2.0728  1.2850  0.4056
13804TIP3    H262828   3.014   2.872  11.195 -0.1774 -0.7694 -0.9794
13805TIP3   OH262829   0.533   0.316   0.802  0.0192  0.1418 -0.4793
13805TIP3    H162830   0.532   0.408   0.779  0.2839 -0.1089 -1.5086
13805TIP3    H262831   0.498   0.271   0.725  0.7066 -0.6917 -0.3196
13806TIP3   OH262832   6.670   1.891   4.873 -0.0824  0.6881  0.4799
13806TIP3    H162833   6.734   1.840   4.822 -0.3358 -0.7649  1.5509
13806TIP3    H262834   6.719   1.922   4.949 -0.3002  0.7290  0.6050
13807TIP3   OH262835   3.869   2.158   5.489 -0.5647  0.2871  0.0375
13807TIP3    H162836   3.815   2.179   5.565 -0.7935  2.6660 -0.7074
13807TIP3    H262837   3.929   2.232   5.480 -0.1966 -0.1767 -1.8030
13808TIP3   OH262838   0.205   3.388  11.403 -0.2693 -0.6545 -0.6159
13808TIP3    H162839   0.226   3.297  11.383  0.2013 -0.4789 -0.9285
13808TIP3    H262840   0.112   3.395  11.385 -0.4235 -1.2051 -0.0903
13809TIP3   OH262841   1.432   0.340  11.816  0.1450 -0.0257  0.1242
13809TIP3    H162842   1.412   0.344  11.722 -0.5491 -0.5526  0.2419
13809TIP3    H262843   1.456   0.248  11.831 -1.7324 -0.4596  0.8258
13810TIP3   OH262844   5.016   3.669  11.532  0.0812 -0.0114 -0.1628
13810TIP3    H162845   5.023   3.576  11.556 -1.4601  0.0570  0.6895
13810TIP3    H262846   4.930   3.696  11.567  0.2752  1.5957 -0.8637
13811TIP3   OH262847   0.440   5.011   4.653 -0.0242 -0.4886 -0.1941
13811TIP3    H162848   0.516   4.960   4.679  0.4541  0.4808  0.3704
13811TIP3    H262849   0.433   5.080   4.720 -0.0048  0.8177 -1.4857
13812TIP3   OH262850   4.393   3.100   5.385  0.0646 -0.2488  0.2520
13812TIP3    H162851   4.479   3.135   5.408 -0.3536  0.0143  1.5092
13812TIP3    H262852   4.352   3.079   5.469 -1.9681  1.7247 -0.1448
13813TIP3   OH262853   2.032   2.519   1.484 -0.6906  0.2831  0.5271
13813TIP3    H162854   2.090   2.496   1.557 -1.0053  1.3587  1.1453
13813TIP3    H262855   1.945   2.528   1.524 -1.2234 -0.9015 -0.3167
13814TIP3   OH262856   2.078   4.514   4.299 -0.2838 -0.0742  0.0896
13814TIP3    H162857   2.067   4.442   4.237 -2.5270 -0.2925  0.6537
13814TIP3    H262858   2.122   4.474   4.374 -2.1870 -1.0838  0.7093
13815TIP3   OH262859   2.589   2.652   6.619 -0.2454  0.2481  0.1472
13815TIP3    H162860   2.500   2.626   6.596 -0.1741  1.4763 -1.6800
13815TIP3    H262861   2.641   2.573   6.606 -0.3478  0.6156 -3.3839
13816TIP3   OH262862   6.146   0.365  14.471 -0.1529  0.6117  0.7971
13816TIP3    H162863   6.129   0.318  14.553 -0.3822  0.0451  0.4284
13816TIP3    H262864   6.229   0.410  14.486  0.0202  0.1658  1.1956
13817TIP3   OH262865   1.786   5.554  15.333  0.5097 -0.0712  0.3111
13817TIP3    H162866   1.790   5.645  15.364  3.2154 -0.9336  3.0247
13817TIP3    H262867   1.877   5.528  15.322 -0.2128 -2.1858 -1.4497
13818TIP3   OH262868   0.789   2.050   6.112 -0.0169  0.1400 -0.2803
13818TIP3    H162869   0.844   2.092   6.046  1.4059 -0.1562  0.6795
13818TIP3    H262870   0.756   2.122   6.166  0.0832  0.2571 -0.3774
13819TIP3   OH262871   3.375   3.396   3.908  0.5025  0.6981  0.8905
13819TIP3    H162872   3.379   3.485   3.944 -2.1807  0.8465  1.0243
13819TIP3    H262873   3.301   3.399   3.847  0.3988 -1.4312  0.8643
13820TIP3   OH262874   0.421   3.965   3.052 -0.3441 -0.3633  0.2171
13820TIP3    H162875   0.478   3.896   3.087 -1.5916 -1.9417 -0.7514
13820TIP3    H262876   0.339   3.954   3.100 -0.3266  0.9580  0.5791
13821TIP3   OH262877   1.575   5.720   1.232  0.2752 -0.7694 -0.5881
13821TIP3    H162878   1.597   5.630   1.207  2.0154 -0.5696  0.1100
13821TIP3    H262879   1.643   5.774   1.192  0.4189  0.0142  0.6676
13822TIP3   OH262880   3.847   1.250   2.564  0.3375  0.4093  0.0101
13822TIP3    H162881   3.811   1.336   2.540  2.5274  1.6407  0.8124
13822TIP3    H262882   3.940   1.267   2.577  0.9404 -2.2500 -0.3923
13823TIP3   OH262883   3.791   3.291  14.505  0.7074  0.3213 -0.3757
13823TIP3    H162884   3.799   3.386  14.505  1.7467  0.2496  0.0078
13823TIP3    H262885   3.859   3.261  14.565  0.6924 -0.6812 -0.8329
13824TIP3   OH262886   4.636   3.735  16.353 -0.6259  0.0867  0.0063
13824TIP3    H162887   4.615   3.642  16.366  1.2087 -0.3357  0.2120
13824TIP3    H262888   4.723   3.745  16.392 -0.0088  1.4719 -1.6131
13825TIP3   OH262889   6.036   0.012   0.284  0.4570 -0.3203 -0.3248
13825TIP3    H162890   6.062  -0.058   0.344  0.7884  0.9817  1.1284
13825TIP3    H262891   5.966   0.058   0.330  1.8209  1.7179 -0.1060
13826TIP3   OH262892   1.827   5.445   3.355  0.1244 -0.0975  0.4532
13826TIP3    H162893   1.908   5.408   3.322  0.8431  1.7421  0.0540
13826TIP3    H262894   1.838   5.540   3.346 -2.0273  0.2065  0.4546
13827TIP3   OH262895   0.588   1.666   1.295 -0.4356  0.5737 -0.7555
13827TIP3    H162896   0.540   1.693   1.217 -3.2972  3.5828  1.7634
13827TIP3    H262897   0.665   1.722   1.296 -0.6607  0.8986 -1.1355
13828TIP3   OH262898   5.509   3.296   1.777  0.1188 -0.5502  0.1489
13828TIP3    H162899   5.438   3.329   1.721  0.8733  0.4168 -0.2555
13828TIP3    H262900   5.519   3.205   1.751  0.1689 -0.2313 -1.0003
13829TIP3   OH262901   2.617   4.929   3.757  0.0963  0.1621  0.0338
13829TIP3    H162902   2.650   4.942   3.668  0.9556  1.0851  0.4615
13829TIP3    H262903   2.548   4.995   3.766  0.2743  0.3355  0.1628
13830TIP3   OH262904   5.433   4.095   3.569  0.0403  0.2729  0.2565
13830TIP3    H162905   5.494   4.042   3.621  2.5267  1.8532 -0.8629
13830TIP3    H262906   5.443   4.062   3.480  1.8469  2.6061 -0.5219
13831TIP3   OH262907   4.628   0.966   5.050  0.2767  0.4569 -0.3007
13831TIP3    H162908   4.627   0.946   4.956  1.8488 -0.0269 -0.2451
13831TIP3    H262909   4.561   1.033   5.061  0.9596  1.4784 -1.9923
13832TIP3   OH262910   4.980   5.027  16.892 -0.2924  0.5079  0.0971
13832TIP3    H162911   4.887   5.052  16.888 -0.6108 -0.4008  1.4175
13832TIP3    H262912   4.988   4.975  16.971  1.6595  1.7640  0.8151
13833TIP3   OH262913   6.425   6.546   0.632  0.6473  0.2017 -0.0633
13833TIP3    H162914   6.343   6.593   0.614  0.2346 -0.1618  0.7672
13833TIP3    H262915   6.493   6.614   0.629 -0.0176  1.0303  1.7673
13834TIP3   OH262916   0.956   4.610   0.924 -0.1035  0.0800  0.3649
13834TIP3    H162917   0.947   4.514   0.923 -1.3760  0.1449  1.6469
13834TIP3    H262918   0.887   4.641   0.865 -1.4421  0.2456  1.9329
13835TIP3   OH262919   0.719   0.515  13.015  0.4238  0.2495 -0.3481
13835TIP3    H162920   0.645   0.533  13.073 -0.6355 -3.0622 -0.4411
13835TIP3    H262921   0.684   0.531  12.927  0.2904  0.0725 -0.3266
13836TIP3   OH262922   3.794   2.192   6.473  1.0345  0.2707 -0.0509
13836TIP3    H162923   3.703   2.167   6.458  0.9456 -1.1729  2.3797
13836TIP3    H262924   3.790   2.280   6.510  0.5091 -0.2129  1.0789
13837TIP3   OH262925   0.084   4.000   0.021  0.2788  0.3427 -0.1057
13837TIP3    H162926   0.110   3.934  -0.043  0.6459  1.1692 -0.8454
13837TIP3    H262927   0.109   4.083  -0.020  0.7399  0.8814  1.2303
13838TIP3   OH262928   6.372   2.003   3.967  0.0766 -0.2119  0.1948
13838TIP3    H162929   6.298   1.970   3.916 -0.4389  0.6554  0.3509
13838TIP3    H262930   6.336   2.017   4.055 -0.1138  1.9566 -0.1660
13839TIP3   OH262931   4.462   1.171   1.073  0.0682 -0.3438  0.3211
13839TIP3    H162932   4.394   1.106   1.056 -0.3639  0.3794 -0.8098
13839TIP3    H262933   4.443   1.204   1.161 -1.8820  0.8303 -0.4952
13840TIP3   OH262934   5.587   2.936   0.747 -0.0454 -0.1891  0.0749
13840TIP3    H162935   5.620   3.025   0.759 -0.0652 -0.3851  1.8516
13840TIP3    H262936   5.662   2.880   0.768  0.0118 -0.6193 -1.1773
13841TIP3   OH262937   5.574   4.728  14.683  0.0988  0.2769 -0.0044
13841TIP3    H162938   5.594   4.746  14.592 -0.2701  0.8886  0.0240
13841TIP3    H262939   5.613   4.643  14.701  0.5675  0.3600 -0.6026
13842TIP3   OH262940   3.421   6.202  12.511  0.1006  0.3446  0.2254
13842TIP3    H162941   3.515   6.185  12.517  0.0714  0.1504  0.1486
13842TIP3    H262942   3.403   6.210  12.418  0.2292  1.4926  0.2872
13843TIP3   OH262943   1.047   2.545   4.371 -0.3376  0.5818 -0.2435
13843TIP3    H162944   1.117   2.494   4.332 -0.0601  1.9523 -1.6298
13843TIP3    H262945   1.081   2.634   4.374 -1.5603  1.0528  0.2078
13844TIP3   OH262946   0.124   3.165   4.004  0.3416 -0.1634  0.1911
13844TIP3    H162947   0.039   3.119   3.999  0.1440  0.3169 -1.1191
13844TIP3    H262948   0.143   3.168   4.098 -0.0992 -2.0819  0.3964
13845TIP3   OH262949   0.536   0.230  12.448 -0.3678 -0.5275 -0.3224
13845TIP3    H162950   0.604   0.298  12.444 -0.1314 -0.5974  1.6019
13845TIP3    H262951   0.560   0.176  12.523 -1.4633 -1.7739 -0.8294
13846TIP3   OH262952   5.156   5.586  13.075  0.0402  0.2344 -0.5446
13846TIP3    H162953   5.195   5.555  13.157  2.1145 -0.2092 -1.6194
13846TIP3    H262954   5.142   5.679  13.089  2.3410  0.6101 -0.3392
13847TIP3   OH262955   2.833   1.424  11.713 -0.6397  0.1958 -0.0142
13847TIP3    H162956   2.891   1.388  11.779 -2.0444 -1.7902  0.2009
13847TIP3    H262957   2.759   1.461  11.762 -0.3723  1.2299 -0.3593
13848TIP3   OH262958   4.023   0.887  14.753 -0.5497 -0.0067  0.0207
13848TIP3    H162959   4.013   0.939  14.833  0.6706 -0.3154  0.3950
13848TIP3    H262960   3.939   0.842  14.743 -1.0298  0.7203  0.6224
13849TIP3   OH262961   2.042   5.491   5.454  0.5080 -0.6293  0.2866
13849TIP3    H162962   2.005   5.423   5.397  0.6562 -1.1945  0.8590
13849TIP3    H262963   1.991   5.570   5.433 -0.5319 -1.2172  0.5283
13850TIP3   OH262964   6.709   1.012   3.380  0.3120 -0.0461 -0.2584
13850TIP3    H162965   6.792   1.017   3.428 -0.3730  1.1217  0.9025
13850TIP3    H262966   6.722   0.943   3.316  1.6059 -1.0557  1.0143
13851TIP3   OH262967   5.828   2.753  13.457 -0.2796 -0.3268 -0.2702
13851TIP3    H162968   5.836   2.832  13.510  0.3847 -0.7140  0.2156
13851TIP3    H262969   5.764   2.776  13.390 -2.7189 -0.4523  1.8540
13852TIP3   OH262970   1.581   2.147   2.623  0.7048  0.1303  0.0641
13852TIP3    H162971   1.584   2.213   2.554  0.5301  0.7310  0.6184
13852TIP3    H262972   1.528   2.076   2.586  1.0540  0.2146 -0.6050
13853TIP3   OH262973   3.104   5.657   0.372  0.3485 -0.3252  0.3172
13853TIP3    H162974   3.184   5.640   0.421  1.5436  1.1948 -0.9855
13853TIP3    H262975   3.133   5.708   0.296 -1.5749 -1.4175 -1.2667
13854TIP3   OH262976   6.226   1.323   4.407 -0.0070  0.4015 -0.1730
13854TIP3    H162977   6.285   1.274   4.349 -1.3876 -0.4033 -0.9623
13854TIP3    H262978   6.271   1.325   4.491  0.4188 -1.6459 -0.2989
13855TIP3   OH262979   4.298   6.433  16.111  0.2988 -0.1588  0.3008
13855TIP3    H162980   4.367   6.458  16.050  0.5704 -0.7714  0.3413
13855TIP3    H262981   4.344   6.415  16.193  0.3822 -2.4233 -0.1704
13856TIP3   OH262982   2.011   6.618  14.429 -0.2363  0.8224  0.7646
13856TIP3    H162983   1.953   6.584  14.496  0.6068 -0.5804  0.8093
13856TIP3    H262984   2.098   6.586  14.453  0.2472  1.1988 -0.3954
13857TIP3   OH262985   1.352   1.023  16.167 -0.5890  0.3937 -0.4404
13857TIP3    H162986   1.275   1.012  16.112  0.0874 -0.1847 -1.2900
13857TIP3    H262987   1.418   1.063  16.110 -0.0324  0.2358  0.0766
13858TIP3   OH262988   1.803   6.187  14.475  0.0665 -0.0047 -0.0192
13858TIP3    H162989   1.738   6.131  14.433 -0.5753  0.9786 -0.3816
13858TIP3    H262990   1.844   6.234  14.402 -1.9060  2.6440  0.4060
13859TIP3   OH262991   3.786   3.697   3.331  0.2595  0.1336  0.0770
13859TIP3    H162992   3.834   3.734   3.256  0.7698 -0.8844 -0.1230
13859TIP3    H262993   3.701   3.671   3.295 -0.2135  1.3528  0.2850
13860TIP3   OH262994   1.856   6.512  12.837  0.1496  0.1118 -0.3333
13860TIP3    H162995   1.950   6.523  12.826  0.0938 -1.0945 -2.4854
13860TIP3    H262996   1.820   6.520  12.749 -1.6338 -0.5400  0.2847
13861TIP3   OH262997   4.271   4.234  15.234 -0.9308  0.0322  0.1660
13861TIP3    H162998   4.247   4.323  15.260  1.5113  1.6605 -2.5827
13861TIP3    H262999   4.360   4.222  15.266 -0.9184 -1.1254 -0.2362
13862TIP3   OH263000   0.314   5.575   3.556  0.2043  0.3145 -0.2749
13862TIP3    H163001   0.399   5.555   3.517  0.4742  0.3588  0.2678
13862TIP3    H263002   0.250   5.531   3.500  0.6074  0.0717 -0.5477
13863TIP3   OH263003   0.954   2.478   3.476  0.0997  0.0138 -0.0287
13863TIP3    H163004   0.865   2.447   3.453 -0.1841  1.7863 -1.5510
13863TIP3    H263005   0.961   2.463   3.570 -0.5287 -3.2435 -0.3606
13864TIP3   OH263006   3.360   0.743  12.285 -0.1375  0.1371  0.2938
13864TIP3    H163007   3.306   0.788  12.350 -2.0158  1.2225 -1.8917
13864TIP3    H263008   3.449   0.749  12.320 -1.1750 -0.3917  3.2893
13865TIP3   OH263009   4.800   5.172   1.058 -0.0347  0.2336 -0.3245
13865TIP3    H163010   4.770   5.148   1.145  0.6482  1.8331  0.4017
13865TIP3    H263011   4.728   5.224   1.021  0.6568  1.7502  0.3485
13866TIP3   OH263012   5.593   5.696  13.588  0.2305 -0.0654 -0.3934
13866TIP3    H163013   5.583   5.772  13.530 -1.1942  2.1118  2.4400
13866TIP3    H263014   5.529   5.633  13.556 -1.7876  1.7879 -0.2192
13867TIP3   OH263015   5.242   3.041  14.344  0.0091  0.0241 -0.4900
13867TIP3    H163016   5.262   2.948  14.347  0.8051  0.1682 -0.8497
13867TIP3    H263017   5.150   3.046  14.319 -0.6881 -0.6937  1.7389
13868TIP3   OH263018   0.835   3.346  16.946  0.2503 -0.2253  0.6153
13868TIP3    H163019   0.847   3.383  16.859 -0.7372 -1.3995 -0.0574
13868TIP3    H263020   0.744   3.317  16.947  0.3022 -0.3986  1.9735
13869TIP3   OH263021   5.703   0.780  10.823  0.4757  0.1687 -0.0829
13869TIP3    H163022   5.755   0.815  10.750  0.7631 -0.5656 -0.2430
13869TIP3    H263023   5.653   0.708  10.784 -0.4111  0.6604  0.1513
13870TIP3   OH263024   4.321   2.652   0.186 -0.7395  0.3163  0.1577
13870TIP3    H163025   4.354   2.693   0.106  1.9441 -3.1983 -0.7927
13870TIP3    H263026   4.346   2.712   0.256  1.5469  1.1081 -1.2275
13871TIP3   OH263027   0.371   1.856   0.277  0.2335  0.1335  0.3635
13871TIP3    H163028   0.342   1.909   0.203 -0.0904  0.4824  0.7397
13871TIP3    H263029   0.299   1.796   0.294 -0.3112  1.0241  1.3204
13872TIP3   OH263030   5.021   1.737  17.179  0.0523 -0.1804 -0.0521
13872TIP3    H163031   5.043   1.699  17.094  0.7328 -0.4768  0.2465
13872TIP3    H263032   4.976   1.667  17.226 -2.1547  0.6076 -0.8721
13873TIP3   OH263033   6.716   6.360   4.972  0.1358 -0.1013  0.1154
13873TIP3    H163034   6.754   6.445   4.949  2.8852 -0.5995  2.2657
13873TIP3    H263035   6.651   6.381   5.039 -0.4869  0.4311 -0.6393
13874TIP3   OH263036   0.617   1.287  12.860 -0.0462 -0.1636 -0.0018
13874TIP3    H163037   0.692   1.316  12.807  0.0809  0.0762  0.3098
13874TIP3    H263038   0.647   1.206  12.901  0.5533  0.6460  1.2251
13875TIP3   OH263039   1.153   2.526   5.795  0.1786  0.5487  0.6031
13875TIP3    H163040   1.142   2.530   5.700  0.6831 -0.8152  0.4694
13875TIP3    H263041   1.109   2.604   5.827  0.9576  1.6384 -0.8362
13876TIP3   OH263042   3.488   2.115  11.870 -0.0406  0.2868 -0.1705
13876TIP3    H163043   3.562   2.176  11.864 -0.0225  0.1706 -1.4009
13876TIP3    H263044   3.437   2.131  11.791  0.0149 -1.3503 -0.5776
13877TIP3   OH263045   3.884   1.212   2.285 -0.4529  0.3202 -0.0412
13877TIP3    H163046   3.818   1.256   2.232 -1.6220 -2.7284 -1.3022
13877TIP3    H263047   3.846   1.210   2.373 -1.1289  0.3771 -0.3232
13878TIP3   OH263048   4.415   1.484  13.560  0.1229  0.1272  0.3465
13878TIP3    H163049   4.414   1.575  13.532  0.3465  0.0972  0.2354
13878TIP3    H263050   4.343   1.443  13.512 -0.7992  0.5179  1.3550
13879TIP3   OH263051   1.251   5.405   4.614  0.4146 -0.4512  0.6814
13879TIP3    H163052   1.226   5.462   4.687  0.3822 -0.9883  1.0931
13879TIP3    H263053   1.346   5.398   4.622  0.6219  0.8523 -0.3411
13880TIP3   OH263054   3.643   4.582  12.834 -0.3342  0.1110  0.0333
13880TIP3    H163055   3.722   4.621  12.871  0.7601  0.1425 -2.1772
13880TIP3    H263056   3.645   4.607  12.742 -2.6004 -0.4443 -0.2144
13881TIP3   OH263057   1.846   3.639  16.569  0.0527 -0.3182  0.5387
13881TIP3    H163058   1.780   3.646  16.499  1.3428  0.4334 -0.6597
13881TIP3    H263059   1.928   3.621  16.523  0.9358  0.1797  1.8604
13882TIP3   OH263060   3.401   3.167  15.276 -0.7007 -0.9182  0.4779
13882TIP3    H163061   3.315   3.142  15.310 -1.3728 -0.7721 -1.0340
13882TIP3    H263062   3.395   3.262  15.264 -0.5047 -0.9782 -0.1113
13883TIP3   OH263063   2.479   6.208   3.870 -0.0259  0.1518 -0.2837
13883TIP3    H163064   2.442   6.222   3.783  1.1945  1.9073 -0.5758
13883TIP3    H263065   2.562   6.163   3.855 -0.7753 -1.4767  0.1795
13884TIP3   OH263066   1.884   4.053   1.746 -0.2316  0.6314  0.4188
13884TIP3    H163067   1.915   3.970   1.783 -0.0404  0.9577  0.9936
13884TIP3    H263068   1.861   4.031   1.656 -2.2166 -0.5320  1.1633
13885TIP3   OH263069   2.975   6.766   1.700  0.5336  0.0570  0.1474
13885TIP3    H163070   2.967   6.829   1.772  0.1698 -0.7884  0.8631
13885TIP3    H263071   2.896   6.781   1.647  0.3969  0.1328  0.3693
13886TIP3   OH263072   4.098   4.306   5.401 -0.2669 -0.3550  0.6466
13886TIP3    H163073   4.191   4.295   5.424 -0.0004 -0.2802 -0.3634
13886TIP3    H263074   4.056   4.333   5.483  0.7835  0.6409  0.8719
13887TIP3   OH263075   1.247   0.260   5.384 -0.4186 -0.4547  0.0249
13887TIP3    H163076   1.190   0.187   5.362 -1.8257  0.9518 -1.2410
13887TIP3    H263077   1.218   0.288   5.471 -0.4309 -0.8802  0.1592
13888TIP3   OH263078   0.337   2.993   0.281  0.1304 -0.2879  0.6514
13888TIP3    H163079   0.255   3.012   0.327 -0.2782 -1.0187  0.2452
13888TIP3    H263080   0.313   2.927   0.216  1.1889 -1.0957  1.0519
13889TIP3   OH263081   5.300   0.062  11.742 -0.5502  0.1040 -0.1151
13889TIP3    H163082   5.337   0.088  11.826 -0.5753  0.6206 -0.2649
13889TIP3    H263083   5.206   0.054  11.758 -0.3717 -1.6092  0.3737
13890TIP3   OH263084   5.667   0.240   2.539 -0.1520 -0.4479  0.2920
13890TIP3    H163085   5.581   0.213   2.570 -1.7814  0.1876 -3.2141
13890TIP3    H263086   5.697   0.168   2.484  2.2818 -1.2328  2.4238
13891TIP3   OH263087   4.216   5.217   3.521 -0.4274 -0.1274  0.0496
13891TIP3    H163088   4.306   5.233   3.492 -0.1009 -3.6684 -1.3162
13891TIP3    H263089   4.162   5.272   3.465  0.7798  1.1821  0.1150
13892TIP3   OH263090   2.422   5.743   1.929  0.3588 -0.4814 -0.4894
13892TIP3    H163091   2.413   5.837   1.915  2.2906 -0.2636 -0.5736
13892TIP3    H263092   2.488   5.736   1.999 -1.6892 -1.7425  1.4749
13893TIP3   OH263093   1.385   2.293  11.493 -0.6850  0.4815  0.0265
13893TIP3    H163094   1.456   2.229  11.483 -1.5947 -0.6866  0.7771
13893TIP3    H263095   1.424   2.376  11.466  0.1550 -0.5760 -2.2793
13894TIP3   OH263096   1.610   5.891   5.541  0.2267 -0.4055  0.3731
13894TIP3    H163097   1.605   5.966   5.600  0.9981  0.6841 -0.8885
13894TIP3    H263098   1.522   5.883   5.505  0.3127  0.3663 -0.0282
13895TIP3   OH263099   3.469   1.403   1.823  0.2534  0.0949 -0.2969
13895TIP3    H163100   3.538   1.468   1.809  0.2858 -0.0542 -0.8550
13895TIP3    H263101   3.411   1.443   1.887  0.7728  0.2918  0.0633
13896TIP3   OH263102   2.708   2.403   0.429 -0.0242 -0.0670  0.2050
13896TIP3    H163103   2.638   2.447   0.476  0.0303  0.0624  0.1665
13896TIP3    H263104   2.671   2.385   0.342  0.1786  0.5135 -0.0067
13897TIP3   OH263105   2.247   6.229  13.707 -0.0187  0.0201  0.2176
13897TIP3    H163106   2.286   6.168  13.769  0.2008 -0.3592 -0.2782
13897TIP3    H263107   2.160   6.247  13.742 -0.3230 -1.0592  0.0765
13898TIP3   OH263108   2.640   6.064  16.970 -0.0389 -0.3697  0.6535
13898TIP3    H163109   2.627   5.987  16.915  1.1530  0.3068 -0.6130
13898TIP3    H263110   2.560   6.115  16.960  0.2336 -0.1743 -0.5837
13899TIP3   OH263111   3.901   4.325   3.275 -0.8054  0.1626  0.1501
13899TIP3    H163112   3.940   4.402   3.232 -1.5206  1.4242  1.6501
13899TIP3    H263113   3.813   4.353   3.298 -1.2455 -1.2998  0.3164
13900TIP3   OH263114   5.555   4.037   0.834 -0.2090  0.0690  0.4039
13900TIP3    H163115   5.462   4.043   0.854  0.2367  2.7734  2.2923
13900TIP3    H263116   5.599   4.038   0.919  1.5622  1.1963 -0.4379
13901TIP3   OH263117   3.680   0.713  13.809 -0.3268 -0.2914 -0.1119
13901TIP3    H163118   3.714   0.706  13.898 -0.3986  1.1688  0.0639
13901TIP3    H263119   3.674   0.623  13.778 -2.2696 -1.0418  2.1068
13902TIP3   OH263120   4.875   3.464  16.542 -0.2196  0.0594  0.2240
13902TIP3    H163121   4.913   3.544  16.505 -1.2786  2.1869  3.3584
13902TIP3    H263122   4.951   3.406  16.554  1.0180  1.5953  0.2108
13903TIP3   OH263123   4.621   0.920  13.558  0.5275 -0.3304 -0.3905
13903TIP3    H163124   4.567   0.842  13.572 -0.3086  0.4748  1.0484
13903TIP3    H263125   4.621   0.965  13.642 -1.2873  2.6358 -1.8069
13904TIP3   OH263126   5.561   4.305   0.239  0.1540 -0.9015 -0.2515
13904TIP3    H163127   5.596   4.319   0.151 -1.0089 -1.9678 -0.9242
13904TIP3    H263128   5.625   4.346   0.298  1.6031 -1.2662 -1.5104
13905TIP3   OH263129   2.491   3.107  14.343  0.3399  0.3827 -0.1662
13905TIP3    H163130   2.417   3.049  14.325 -0.5599  1.6550 -0.7267
13905TIP3    H263131   2.469   3.149  14.427  0.3955  0.8159 -0.3673
13906TIP3   OH263132   2.974   3.048   5.390  0.3246  0.6214 -0.2612
13906TIP3    H163133   2.899   3.056   5.449  0.4013  1.5934 -0.2746
13906TIP3    H263134   2.947   2.983   5.325  0.1504 -0.2890  0.7036
13907TIP3   OH263135   4.227   2.181  14.097  0.7203 -0.1188  0.3838
13907TIP3    H163136   4.322   2.187  14.109  0.7418  0.7088 -0.0648
13907TIP3    H263137   4.201   2.104  14.146  1.5176  0.1062  1.1870
13908TIP3   OH263138   5.162   1.419   2.080 -0.6642  0.3783  0.0722
13908TIP3    H163139   5.091   1.355   2.089 -1.4234  1.4185  2.2623
13908TIP3    H263140   5.232   1.386   2.136 -0.6164  0.8679  0.3114
13909TIP3   OH263141   3.785   1.263   0.106 -0.4208 -0.0499 -0.3234
13909TIP3    H163142   3.737   1.181   0.103  0.2732 -0.5245  0.9224
13909TIP3    H263143   3.794   1.283   0.199 -0.0977  1.1608 -0.5896
13910TIP3   OH263144   3.106   1.436   1.636 -0.2571  0.4876 -0.3193
13910TIP3    H163145   3.022   1.409   1.597 -0.6009 -0.4057  0.9540
13910TIP3    H263146   3.165   1.448   1.562 -1.0776 -0.4534 -1.1510
13911TIP3   OH263147   4.271   0.797   1.349  0.0650  0.3761  0.1516
13911TIP3    H163148   4.233   0.817   1.434 -0.7432 -1.0843  0.1749
13911TIP3    H263149   4.349   0.852   1.343  0.4208  0.1131  2.0429
13912TIP3   OH263150   6.730   3.845  16.143 -0.7462 -0.1747 -0.1612
13912TIP3    H163151   6.742   3.918  16.082  1.4124 -0.9584 -0.7638
13912TIP3    H263152   6.687   3.778  16.090  2.4066 -1.4054 -1.4472
13913TIP3   OH263153   5.187   5.131  16.338 -1.0696 -0.3744 -0.7426
13913TIP3    H163154   5.188   5.179  16.255 -1.9343 -2.5418 -2.0764
13913TIP3    H263155   5.230   5.048  16.319  0.5336 -0.1801  1.5515
13914TIP3   OH263156   1.850   3.899  13.928 -0.0951 -0.2935  0.5251
13914TIP3    H163157   1.870   3.992  13.916 -0.4376 -0.3073 -0.1872
13914TIP3    H263158   1.919   3.853  13.879 -0.6189 -0.3829 -0.1404
13915TIP3   OH263159   3.712   4.254   5.916 -0.3579  0.3198  0.0469
13915TIP3    H163160   3.656   4.296   5.851 -0.1267 -0.2963 -0.5611
13915TIP3    H263161   3.652   4.223   5.983 -0.6076  0.8878  0.0929
13916TIP3   OH263162   1.679   5.962   5.263  0.1621  0.3832 -0.1628
13916TIP3    H163163   1.670   5.923   5.350  0.1719  0.3270 -0.1872
13916TIP3    H263164   1.634   6.047   5.270 -1.0444 -0.2119 -0.5015
13917TIP3   OH263165   6.340   3.329  15.932 -0.8963 -0.3064  0.6616
13917TIP3    H163166   6.393   3.371  16.000  0.2600  0.5910 -0.7491
13917TIP3    H263167   6.277   3.396  15.907 -0.9672 -0.4432  0.4741
13918TIP3   OH263168   3.693   3.468   1.712  0.6492 -0.4629 -0.2083
13918TIP3    H163169   3.661   3.467   1.622 -1.0876 -0.0838  0.3827
13918TIP3    H263170   3.617   3.446   1.766  1.9226 -1.8686  1.1198
13919TIP3   OH263171   4.702   2.134   1.304 -0.7504 -0.5444  0.9525
13919TIP3    H163172   4.615   2.099   1.324 -0.0419 -2.3413  1.0560
13919TIP3    H263173   4.744   2.066   1.252 -1.2225  2.4182 -3.9793
13920TIP3   OH263174   6.076   1.775   1.516 -0.4023 -0.1477  0.0989
13920TIP3    H163175   6.164   1.737   1.516 -1.1400 -1.9837 -0.3183
13920TIP3    H263176   6.062   1.803   1.606  1.3203  2.0885 -0.2240
13921TIP3   OH263177   0.132   2.272   3.310 -0.4862 -0.1210 -0.0133
13921TIP3    H163178   0.050   2.316   3.285 -0.2093 -0.4610 -1.5571
13921TIP3    H263179   0.112   2.235   3.397 -0.6969  3.0927  1.4790
13922TIP3   OH263180   0.215   1.397  13.794 -0.6579 -0.2765  0.0753
13922TIP3    H163181   0.302   1.435  13.808 -0.0004 -0.7490 -2.2346
13922TIP3    H263182   0.224   1.307  13.827  0.3878 -0.9264 -1.8107
13923TIP3   OH263183   5.204   2.328  13.256  0.5664 -0.0587  0.0191
13923TIP3    H163184   5.168   2.411  13.287  0.3281 -0.4737  0.8901
13923TIP3    H263185   5.150   2.261  13.299  1.8161 -0.6892  0.6441
13924TIP3   OH263186   1.223   0.700  12.661  0.1724  0.4514 -0.2767
13924TIP3    H163187   1.317   0.718  12.659  0.6153 -1.4090  0.9268
13924TIP3    H263188   1.205   0.682  12.753 -1.3693  0.7209 -0.5063
13925TIP3   OH263189   2.101   1.990  14.657  0.3768  0.0031 -0.4604
13925TIP3    H163190   2.088   1.916  14.716 -1.8642  0.0691 -0.7607
13925TIP3    H263191   2.122   2.063  14.714 -0.3727 -0.2408  0.1491
13926TIP3   OH263192   2.916   4.112  11.161  0.2464  0.0236 -0.5561
13926TIP3    H163193   2.971   4.095  11.084 -0.9092 -1.0309 -1.1844
13926TIP3    H263194   2.860   4.185  11.135 -0.2390 -0.4237 -0.7686
13927TIP3   OH263195   3.019   5.738   3.149 -0.4068 -0.2676  0.2990
13927TIP3    H163196   3.102   5.739   3.197 -0.5706  1.6088  0.6470
13927TIP3    H263197   3.015   5.651   3.109  0.6306 -1.2265  2.1371
13928TIP3   OH263198   5.060   0.436  16.812  0.2640 -0.2261  0.2198
13928TIP3    H163199   5.079   0.462  16.902  0.0237  1.3976 -0.1695
13928TIP3    H263200   5.008   0.508  16.777  0.1892 -0.9296 -1.1641
13929TIP3   OH263201   4.981   1.713  16.438 -0.1340  0.2482  0.2619
13929TIP3    H163202   4.940   1.659  16.371  2.1721  0.1626 -1.1977
13929TIP3    H263203   5.068   1.674  16.451  0.0539  1.1600  2.2420
13930TIP3   OH263204   1.129   5.240   0.592 -0.3282 -0.4600 -0.4984
13930TIP3    H163205   1.079   5.172   0.637 -1.2239 -0.6352 -1.7068
13930TIP3    H263206   1.217   5.203   0.582 -0.3795 -0.7930  0.2444
13931TIP3   OH263207   5.425   4.484  14.258  0.3959 -0.0421 -0.2356
13931TIP3    H163208   5.478   4.410  14.287 -1.7844 -2.8539 -2.8589
13931TIP3    H263209   5.399   4.528  14.339  3.6959 -0.6201  1.2837
13932TIP3   OH263210   5.621   0.228  14.393  0.0809 -0.0285  0.5647
13932TIP3    H163211   5.531   0.256  14.413 -0.1174 -0.0945 -0.1953
13932TIP3    H263212   5.614   0.134  14.376 -0.5786  0.5982 -3.8996
13933TIP3   OH263213   4.739   2.416   4.086 -0.1132 -0.0720 -0.6538
13933TIP3    H163214   4.826   2.413   4.046 -0.3020 -2.1894 -1.0373
13933TIP3    H263215   4.728   2.330   4.128 -1.2590  0.8545  1.1033
13934TIP3   OH263216   4.665   1.898   1.601  0.0083  0.7517  0.2321
13934TIP3    H163217   4.590   1.941   1.559 -1.7286 -0.5634  1.7843
13934TIP3    H263218   4.654   1.805   1.581 -0.0320  0.2716  2.2366
13935TIP3   OH263219   5.340   5.959   3.901  0.1574 -0.5110 -0.9564
13935TIP3    H163220   5.253   5.998   3.908 -0.2926 -1.6759  0.8276
13935TIP3    H263221   5.353   5.943   3.807 -1.1253  0.5666 -1.3358
13936TIP3   OH263222   0.504   0.381  16.298  0.0966  0.2906  0.6737
13936TIP3    H163223   0.560   0.380  16.220  0.9482  1.5170  1.2430
13936TIP3    H263224   0.442   0.453  16.281 -0.3598 -0.0905  0.7043
13937TIP3   OH263225   5.622   1.879  12.934 -0.7508 -0.1273 -0.0445
13937TIP3    H163226   5.553   1.819  12.961 -0.9977 -0.0741 -0.5525
13937TIP3    H263227   5.579   1.943  12.878 -0.3230  0.0106 -0.2230
13938TIP3   OH263228   0.888   0.355  11.759  0.4274  0.4150 -0.5350
13938TIP3    H163229   0.879   0.281  11.820  1.0324  0.2104 -0.6882
13938TIP3    H263230   0.974   0.392  11.779 -0.4559  2.0209  0.5678
13939TIP3   OH263231   4.728   1.642   1.227 -0.9466 -0.3064  0.2622
13939TIP3    H163232   4.758   1.594   1.150 -2.3063 -0.3271 -0.2826
13939TIP3    H263233   4.738   1.580   1.299  1.3669  0.0642  0.3536
13940TIP3   OH263234   0.854   0.002  15.973 -0.2959  0.6423 -0.2580
13940TIP3    H163235   0.847   0.049  15.889  0.3775  1.1269 -0.0536
13940TIP3    H263236   0.947   0.010  15.996 -0.3263 -0.1556  0.1562
13941TIP3   OH263237   3.069   0.704   3.851  0.4611  0.1566 -0.2420
13941TIP3    H163238   2.982   0.739   3.831  0.7696  1.0230 -0.1134
13941TIP3    H263239   3.069   0.616   3.813 -0.4505  0.1684 -0.2884
13942TIP3   OH263240   1.760   2.285   3.537 -0.0324 -0.0578  0.2196
13942TIP3    H163241   1.846   2.327   3.530  0.5600 -1.1956  0.3308
13942TIP3    H263242   1.748   2.240   3.453 -0.9434  0.8415 -0.1435
13943TIP3   OH263243   2.270   2.849  13.561 -0.2775 -0.1179  0.0565
13943TIP3    H163244   2.210   2.783  13.525  1.7147 -0.2898 -3.3828
13943TIP3    H263245   2.317   2.803  13.631 -0.7556 -1.5459 -0.5285
13944TIP3   OH263246   1.169   1.837   4.578  0.0776 -0.3328  0.1501
13944TIP3    H163247   1.146   1.762   4.524  0.5152  0.2071 -0.8184
13944TIP3    H263248   1.121   1.910   4.539  0.4983  0.0849  0.4053
13945TIP3   OH263249   5.434   5.577   5.351  0.1427  0.2929 -0.2883
13945TIP3    H163250   5.387   5.510   5.402  0.5879  0.2970  0.1264
13945TIP3    H263251   5.525   5.547   5.350  0.3308  0.8589 -0.1658
13946TIP3   OH263252   4.482   5.941  15.801  0.1091  0.3093 -0.1201
13946TIP3    H163253   4.443   5.856  15.823  0.6737  0.2110  0.5588
13946TIP3    H263254   4.428   6.004  15.849  1.6581  0.0530  2.1179
13947TIP3   OH263255   1.173   1.060  12.175  0.0404 -0.1365 -0.2333
13947TIP3    H163256   1.174   0.988  12.112  1.6184  0.3849 -0.8366
13947TIP3    H263257   1.155   1.018  12.259  2.6752 -1.5267 -0.2778
13948TIP3   OH263258   1.559   3.679   5.179 -0.0971  0.7253  0.6490
13948TIP3    H163259   1.598   3.709   5.261  1.2621  0.5641  0.0931
13948TIP3    H263260   1.514   3.598   5.202  0.0094  0.8435  1.2884
13949TIP3   OH263261   3.403   5.940   1.662 -0.1638  0.0809  0.5707
13949TIP3    H163262   3.331   5.878   1.671 -1.7293  1.6667 -0.4022
13949TIP3    H263263   3.381   6.012   1.721  0.2855  0.8706 -0.1905
13950TIP3   OH263264   2.099   2.514   4.534  0.2324 -0.0187 -0.2734
13950TIP3    H163265   2.186   2.499   4.497  1.1413  0.9530  1.3224
13950TIP3    H263266   2.073   2.599   4.499  0.1793 -0.0484 -0.3055
13951TIP3   OH263267   5.768   2.620   1.616 -0.3500 -0.2288 -0.0406
13951TIP3    H163268   5.759   2.630   1.711  0.3428  1.1813 -0.0954
13951TIP3    H263269   5.856   2.654   1.597 -1.1212  1.1169 -1.3985
13952TIP3   OH263270   6.006   1.045  15.759  0.4073 -0.3876  0.0840
13952TIP3    H163271   6.086   1.098  15.759  0.2290 -0.1165  0.7954
13952TIP3    H263272   5.977   1.045  15.850 -0.0075 -1.0865 -0.0420
13953TIP3   OH263273   1.562   0.968   3.167 -0.5043  0.6779  0.1340
13953TIP3    H163274   1.484   0.919   3.190 -1.1858  2.5455  2.1070
13953TIP3    H263275   1.531   1.058   3.154  1.3880  1.7034  2.0657
13954TIP3   OH263276   3.955   2.263   3.429  0.7265  0.0435 -0.2208
13954TIP3    H163277   3.970   2.176   3.393 -0.9268  0.7485 -2.8911
13954TIP3    H263278   3.915   2.248   3.515 -3.0853 -2.0446 -2.1001
13955TIP3   OH263279   4.813   2.706   4.055 -0.3877  0.1343  0.3654
13955TIP3    H163280   4.821   2.654   3.975 -0.3228 -0.7252  0.9143
13955TIP3    H263281   4.868   2.661   4.118  0.1324  1.2151  0.7021
13956TIP3   OH263282   4.431   1.667  16.466  0.0416  0.2261  0.2615
13956TIP3    H163283   4.418   1.581  16.425 -1.6987  0.6386 -0.1605
13956TIP3    H263284   4.427   1.728  16.393  2.8143  0.6280  0.3461
13957TIP3   OH263285   5.538   6.234   0.813  0.4908  0.4408 -0.5774
13957TIP3    H163286   5.545   6.257   0.906 -1.7349 -2.6856  0.5139
13957TIP3    H263287   5.444   6.222   0.798  0.8829 -0.1830 -2.9913
13958TIP3   OH263288   0.703   4.906   4.747  0.0166  0.5491  0.5681
13958TIP3    H163289   0.703   4.810   4.740  1.5129  0.5560  0.1236
13958TIP3    H263290   0.723   4.923   4.839  2.7417  0.3861  0.0803
13959TIP3   OH263291   1.873   3.116  12.800  0.5979  0.1559  0.1657
13959TIP3    H163292   1.947   3.161  12.759  0.7391 -0.8887 -0.7725
13959TIP3    H263293   1.856   3.041  12.743  1.3594 -1.8810  2.4099
13960TIP3   OH263294   4.046   3.357   5.172  0.2812  0.2598 -0.0911
13960TIP3    H163295   4.003   3.287   5.221 -2.7751  1.1544 -1.3052
13960TIP3    H263296   4.093   3.408   5.239 -0.9479 -0.5038  1.4142
13961TIP3   OH263297   3.465   1.166  15.849 -0.2517  0.0189 -0.5288
13961TIP3    H163298   3.533   1.105  15.820  1.1899  1.8643 -1.2340
13961TIP3    H263299   3.388   1.142  15.798 -0.2103 -2.1782  0.3386
13962TIP3   OH263300   2.288   0.583  11.516 -0.7793 -0.0909  0.3085
13962TIP3    H163301   2.371   0.579  11.469 -0.4029 -0.6424  1.0131
13962TIP3    H263302   2.310   0.567  11.607 -1.4850  1.1639  0.7173
13963TIP3   OH263303   2.059   4.437  15.547 -0.4322 -0.0508 -0.0870
13963TIP3    H163304   2.026   4.352  15.576  0.6218 -1.3289 -2.3368
13963TIP3    H263305   1.988   4.499  15.567 -1.0572 -1.3296  1.9936
13964TIP3   OH263306   6.390   6.126   2.162 -0.2868  0.2607  0.6517
13964TIP3    H163307   6.428   6.040   2.146 -1.0407 -0.0572  0.5132
13964TIP3    H263308   6.301   6.108   2.193 -0.4128  0.9829  0.7418
13965TIP3   OH263309   4.463   6.667  11.246  0.3928 -0.6015  0.0786
13965TIP3    H163310   4.536   6.638  11.301  1.0201  0.0791 -0.3897
13965TIP3    H263311   4.501   6.680  11.160 -0.4783 -1.1238 -0.4015
13966TIP3   OH263312   4.960   1.276   2.172  0.1426  0.4217 -0.3950
13966TIP3    H163313   4.969   1.181   2.173 -1.8110  0.2124  0.5298
13966TIP3    H263314   4.870   1.291   2.144  0.6375  2.0384 -1.2301
13967TIP3   OH263315   1.515   6.334   2.244 -0.1067 -0.0395  0.0841
13967TIP3    H163316   1.500   6.297   2.331  4.3008 -1.5522  0.4805
13967TIP3    H263317   1.533   6.426   2.260  3.5069 -0.8019  1.4358
13968TIP3   OH263318   4.627   0.575   2.429 -0.1611 -0.4820  0.0760
13968TIP3    H163319   4.641   0.561   2.522 -2.0923 -0.0606  0.4530
13968TIP3    H263320   4.689   0.645   2.406 -1.5338  1.3550  1.6687
13969TIP3   OH263321   0.247   6.307   1.396  0.5439  0.0414 -0.3244
13969TIP3    H163322   0.196   6.245   1.343  0.6126 -1.9532  1.7894
13969TIP3    H263323   0.190   6.383   1.405 -0.1888 -0.3008 -1.7269
13970TIP3   OH263324   5.892   4.320   2.517  0.3025 -0.5517 -0.0225
13970TIP3    H163325   5.983   4.346   2.503 -0.4771  1.3425 -2.4664
13970TIP3    H263326   5.851   4.398   2.554 -0.5445 -0.9823 -0.0354
13971TIP3   OH263327   5.490   0.017   1.037  0.4895  0.4538  0.6200
13971TIP3    H163328   5.498   0.028   1.132  1.9349  1.9931  0.3791
13971TIP3    H263329   5.524   0.099   1.001 -2.2067  0.9163 -1.2079
13972TIP3   OH263330   0.214   3.077   3.164 -0.0394 -0.1205  0.5795
13972TIP3    H163331   0.291   3.026   3.138  0.4308  0.4314  0.8697
13972TIP3    H263332   0.246   3.135   3.232 -0.8278 -0.2128  1.0397
13973TIP3   OH263333   1.407   4.296  13.833  0.0910 -0.3900 -0.2139
13973TIP3    H163334   1.381   4.205  13.840 -2.3584  0.2705  0.1461
13973TIP3    H263335   1.354   4.332  13.762  0.5185  0.9253  0.0940
13974TIP3   OH263336   2.885   5.408   6.487  0.2755  0.1390  0.2428
13974TIP3    H163337   2.878   5.500   6.465  3.2931  0.6574  0.9663
13974TIP3    H263338   2.969   5.381   6.448 -0.5932 -2.3487 -0.0742
13975TIP3   OH263339   0.930   5.663  17.010  0.4718 -0.0891 -0.1602
13975TIP3    H163340   0.881   5.740  16.981  0.1614 -0.1614  0.1780
13975TIP3    H263341   0.996   5.698  17.071  2.3502  0.3286 -2.2912
13976TIP3   OH263342   2.080   4.396   2.587 -0.2317 -0.2263 -0.3631
13976TIP3    H163343   2.062   4.441   2.504 -1.2019  0.0657 -0.0077
13976TIP3    H263344   2.175   4.390   2.590 -0.1699 -0.0286 -1.3900
13977TIP3   OH263345   6.470   3.173  15.148  0.0463 -0.4462 -0.3757
13977TIP3    H163346   6.484   3.206  15.060 -0.2480 -0.1946 -0.3263
13977TIP3    H263347   6.542   3.211  15.199  0.0019 -0.2927 -0.4271
13978TIP3   OH263348   0.256   5.157  14.743  0.0848 -0.2841 -0.3936
13978TIP3    H163349   0.188   5.158  14.675 -0.8549  1.3666  0.4968
13978TIP3    H263350   0.238   5.236  14.795  0.9209 -1.3606  1.6330
13979TIP3   OH263351   0.551   4.789  14.825 -0.4205 -0.1553 -0.3245
13979TIP3    H163352   0.627   4.766  14.772 -0.2340 -1.7528  0.5547
13979TIP3    H263353   0.587   4.839  14.899 -0.3462 -0.1318 -0.3767
13980TIP3   OH263354   3.839   3.619   1.145  0.5155  0.1284  0.2751
13980TIP3    H163355   3.826   3.558   1.218 -1.0195  0.3817  0.2589
13980TIP3    H263356   3.801   3.701   1.176  0.0587  0.3048 -0.7033
13981TIP3   OH263357   1.258   1.532  12.954 -0.0407 -0.0509  0.0616
13981TIP3    H163358   1.204   1.586  13.012  0.8785  1.7653 -0.6611
13981TIP3    H263359   1.238   1.566  12.866 -1.6335 -2.9237 -0.7952
13982TIP3   OH263360   3.477   4.038  12.899 -0.1216  0.3044 -0.0512
13982TIP3    H163361   3.405   4.095  12.874  1.4960  1.8249 -1.5121
13982TIP3    H263362   3.476   3.967  12.834  1.0466  1.5892 -1.5587
13983TIP3   OH263363   6.058   0.948  11.524 -0.5028  0.2048  0.0342
13983TIP3    H163364   6.045   0.883  11.455  0.9085  0.5646 -0.6054
13983TIP3    H263365   6.016   0.910  11.601 -0.3965 -1.0997 -0.5252
13984TIP3   OH263366   3.820   3.646   4.205 -0.2993  0.2581  0.5683
13984TIP3    H163367   3.751   3.585   4.233  1.8398 -2.6985 -0.1931
13984TIP3    H263368   3.873   3.660   4.283  0.5062 -0.7365  0.2178
13985TIP3   OH263369   6.427   0.163   1.692  0.1749  0.7419 -0.2599
13985TIP3    H163370   6.410   0.156   1.786  0.2274  0.5033 -0.2682
13985TIP3    H263371   6.519   0.187   1.686  1.1550 -2.5176 -0.3088
13986TIP3   OH263372   5.659   5.220  12.084 -0.6530  0.2034  0.4504
13986TIP3    H163373   5.633   5.311  12.073 -1.3988 -0.1840 -1.3641
13986TIP3    H263374   5.633   5.178  12.002  3.8439 -0.6999 -0.8100
13987TIP3   OH263375   3.682   6.587  12.540  0.1506  0.3748  0.0538
13987TIP3    H163376   3.723   6.512  12.584  0.0799  0.7853  0.8352
13987TIP3    H263377   3.588   6.567  12.541  0.2161  0.0225 -0.6092
13988TIP3   OH263378   0.961   0.743  17.120  0.0047  0.4822  0.3993
13988TIP3    H163379   0.920   0.792  17.191  0.1558 -1.8042  2.1358
13988TIP3    H263380   1.051   0.732  17.147  1.1537  2.7497 -1.9585
13989TIP3   OH263381   4.532   2.529  15.925 -0.0872  0.0536 -0.4588
13989TIP3    H163382   4.503   2.617  15.951 -0.4194  0.3641 -1.8130
13989TIP3    H263383   4.623   2.540  15.899  0.0058 -0.0972 -0.2020
13990TIP3   OH263384   3.388   0.194   0.034 -0.4557 -0.4029 -0.4576
13990TIP3    H163385   3.348   0.128  -0.023  0.6614 -0.0708 -1.6871
13990TIP3    H263386   3.456   0.147   0.081 -1.3698 -0.6739  0.6306
13991TIP3   OH263387   4.296   5.778  12.564  0.3214  0.1593 -0.4118
13991TIP3    H163388   4.242   5.850  12.531  1.2531 -0.0363 -2.5019
13991TIP3    H263389   4.285   5.708  12.499 -1.8679 -2.3332  2.3340
13992TIP3   OH263390   3.790   6.363   2.483 -0.1959 -0.9349 -0.1395
13992TIP3    H163391   3.842   6.360   2.402 -0.0954  0.0673 -0.1171
13992TIP3    H263392   3.745   6.447   2.480 -1.0991 -1.3825  0.3027
13993TIP3   OH263393   5.807   5.252   4.731 -0.2829  0.0966  0.3914
13993TIP3    H163394   5.804   5.160   4.706  0.8914 -0.3093  1.6183
13993TIP3    H263395   5.716   5.275   4.751 -0.3670 -1.3368  1.8641
13994TIP3   OH263396   6.747   2.927   2.721  0.4255 -0.4430 -0.3183
13994TIP3    H163397   6.691   2.865   2.769 -2.6194  2.4832  0.3531
13994TIP3    H263398   6.784   2.984   2.789  3.9146 -1.8707 -0.8239
13995TIP3   OH263399   2.065   3.738  14.710 -0.1346 -0.0494 -0.3262
13995TIP3    H163400   1.999   3.784  14.763 -0.0971 -1.1910  0.7684
13995TIP3    H263401   2.147   3.783  14.731 -0.4669  1.0982 -1.3609
13996TIP3   OH263402   1.921   3.795  13.280  0.0505  0.1588 -0.3612
13996TIP3    H163403   1.990   3.862  13.273  1.3934 -1.1722 -0.3120
13996TIP3    H263404   1.924   3.749  13.196 -0.0367 -0.5972  0.0396
13997TIP3   OH263405   5.272   1.965   4.541 -0.1293 -0.2966 -0.5560
13997TIP3    H163406   5.266   1.992   4.632  1.0988 -1.1483 -0.2071
13997TIP3    H263407   5.245   2.043   4.491 -0.2534  0.3572  0.5085
13998TIP3   OH263408   6.574   3.188   6.487  0.1231  0.3840 -0.3627
13998TIP3    H163409   6.662   3.224   6.483  1.0477 -1.7204 -0.6297
13998TIP3    H263410   6.577   3.111   6.429 -1.3094 -0.8106  1.0402
13999TIP3   OH263411   5.749   4.008  12.697  0.1071  0.2428 -0.4468
13999TIP3    H163412   5.836   4.047  12.687 -0.7934  3.2919  1.9831
13999TIP3    H263413   5.696   4.050  12.629  0.2012 -0.6130 -1.0663
14000TIP3   OH263414   1.312   1.186   1.234  0.0102  0.2409  0.0585
14000TIP3    H163415   1.387   1.127   1.242 -0.4464 -0.4243 -0.4963
14000TIP3    H263416   1.241   1.140   1.279 -0.1863  0.6633  0.1834
14001TIP3   OH263417   5.226   4.011   0.425  0.6424 -0.3105  0.0702
14001TIP3    H163418   5.270   4.008   0.340 -0.6250 -1.5720 -0.5886
14001TIP3    H263419   5.137   3.982   0.407  0.5904 -1.5150  1.9813
14002TIP3   OH263420   3.614   6.051  14.982 -0.5850 -0.2651  0.3800
14002TIP3    H163421   3.650   6.131  15.019  1.2991 -0.3193 -1.1552
14002TIP3    H263422   3.681   5.985  14.997 -0.2772 -0.5743 -1.8897
14003TIP3   OH263423   4.155   0.093  12.811 -0.1376 -0.1313 -0.0392
14003TIP3    H163424   4.175   0.007  12.849  0.9706 -1.3264 -3.0643
14003TIP3    H263425   4.233   0.116  12.761 -1.9372  0.6753 -2.6375
14004TIP3   OH263426   1.373   0.076  17.208  0.1551 -0.3746 -0.2860
14004TIP3    H163427   1.353   0.033  17.291 -0.7247 -0.0498 -0.3249
14004TIP3    H263428   1.464   0.105  17.218  0.6463 -1.9145 -0.1256
14005TIP3   OH263429   6.222   4.126   1.568  0.1001  0.1827  0.2248
14005TIP3    H163430   6.130   4.151   1.582 -0.1277 -1.1808  1.3842
14005TIP3    H263431   6.226   4.099   1.476 -0.1217  2.2774 -0.4737
14006TIP3   OH263432   1.339   1.544   4.644  0.1959  0.3191  0.5743
14006TIP3    H163433   1.397   1.611   4.680  2.5706 -1.4207  0.2114
14006TIP3    H263434   1.322   1.573   4.554 -0.6504  1.5038  1.0836
14007TIP3   OH263435   1.950   3.145   3.229  0.2903 -0.0852  0.5430
14007TIP3    H163436   1.961   3.231   3.189  0.2146  0.0193  0.7475
14007TIP3    H263437   1.902   3.162   3.310 -0.2412 -0.3812  0.2982
14008TIP3   OH263438   4.546   4.568   3.062 -0.4671  0.4358 -0.1328
14008TIP3    H163439   4.527   4.649   3.014 -1.8649  1.1585  1.5124
14008TIP3    H263440   4.638   4.578   3.090 -0.2015  0.8061 -1.1100
14009TIP3   OH263441   5.510   3.863  10.887  0.0974  0.0544  0.2258
14009TIP3    H163442   5.518   3.788  10.829  0.5313  0.0906  0.2324
14009TIP3    H263443   5.599   3.878  10.919  0.1137  0.8937 -0.1910
14010TIP3   OH263444   4.551   4.288   4.936  0.2814 -0.3182  0.7677
14010TIP3    H163445   4.563   4.249   5.022  0.8579  0.7037  1.1588
14010TIP3    H263446   4.574   4.218   4.875 -0.9183 -1.3176  1.4037
14011TIP3   OH263447   6.055   6.397  13.487 -0.3918  0.0996  0.8414
14011TIP3    H163448   5.959   6.394  13.492 -0.3880  1.0811  2.7319
14011TIP3    H263449   6.077   6.351  13.406 -2.5081  0.7188 -0.1562
14012TIP3   OH263450   5.558   5.236   1.048 -0.6001 -0.1176  0.0444
14012TIP3    H163451   5.521   5.324   1.049  2.0166  1.1284 -0.9229
14012TIP3    H263452   5.651   5.250   1.027 -0.4773 -3.2455 -2.2015
14013TIP3   OH263453   3.805   4.176  12.727  0.0438  0.0651  0.0437
14013TIP3    H163454   3.730   4.138  12.681 -0.5499 -0.1707  1.1741
14013TIP3    H263455   3.800   4.140  12.815  0.5261  1.3340  0.6212
14014TIP3   OH263456   1.112   3.242   3.497  0.0125 -0.4036  0.0296
14014TIP3    H163457   1.155   3.301   3.558 -2.6259  1.6126  0.0908
14014TIP3    H263458   1.088   3.166   3.550  0.6108 -0.1339  0.6982
14015TIP3   OH263459   3.992   1.279   4.845  0.0446 -0.3357  0.0422
14015TIP3    H163460   4.005   1.355   4.788 -2.0738  0.9466  1.1366
14015TIP3    H263461   3.956   1.211   4.788 -2.7442  1.1621 -0.1472
14016TIP3   OH263462   1.809   2.662  11.052  0.4145 -0.5357  0.4131
14016TIP3    H163463   1.899   2.631  11.041  1.0810  1.8221 -1.9517
14016TIP3    H263464   1.755   2.597  11.007  1.2935 -0.5185 -0.7052
14017TIP3   OH263465   2.553   0.652   5.866 -0.5718  0.4716  0.4843
14017TIP3    H163466   2.490   0.714   5.902 -2.5218 -0.4682 -1.1493
14017TIP3    H263467   2.517   0.566   5.888  0.9868 -0.1093  0.8776
14018TIP3   OH263468   5.259   4.463  12.751  0.7227 -0.4875 -0.2683
14018TIP3    H163469   5.201   4.401  12.795  0.3514 -0.5472 -0.8210
14018TIP3    H263470   5.207   4.497  12.678  0.4805  1.4120  0.7328
14019TIP3   OH263471   6.127   1.922  12.097 -0.3321 -0.3017 -0.0380
14019TIP3    H163472   6.102   1.840  12.141 -0.3606 -0.9371 -1.1827
14019TIP3    H263473   6.059   1.935  12.030  1.3411 -1.0901 -2.0050
14020TIP3   OH263474   3.359   1.397  15.705  0.3376  0.0864 -0.0445
14020TIP3    H163475   3.418   1.352  15.766  0.9767 -0.8277 -1.2671
14020TIP3    H263476   3.298   1.445  15.760 -0.0730 -1.9083  1.3489
14021TIP3   OH263477   0.427   3.275  15.341 -0.5667 -1.1931  0.3960
14021TIP3    H163478   0.520   3.256  15.335 -0.7081 -1.5073 -0.8837
14021TIP3    H263479   0.422   3.350  15.402  0.6671 -0.1129 -0.7782
14022TIP3   OH263480   2.729   2.189   5.776  0.0567 -0.3582  0.1662
14022TIP3    H163481   2.667   2.231   5.835  1.6633  0.3202  1.4537
14022TIP3    H263482   2.763   2.115   5.827 -1.4902 -2.3125 -1.4493
14023TIP3   OH263483   3.144   2.920   3.659  0.5315  0.3549  0.1151
14023TIP3    H163484   3.074   2.984   3.670  0.3365  0.0065  1.0443
14023TIP3    H263485   3.170   2.927   3.567 -2.3577 -1.1865 -0.9333
14024TIP3   OH263486   3.865   1.438  15.123  0.4670  0.1730 -0.4464
14024TIP3    H163487   3.819   1.364  15.162  0.3839  0.4363 -0.0299
14024TIP3    H263488   3.926   1.466  15.191  0.3231  0.6363 -0.5052
14025TIP3   OH263489   6.736   2.213  13.969 -0.3295 -0.3456 -0.4915
14025TIP3    H163490   6.739   2.204  14.064 -1.1873 -0.7317 -0.4877
14025TIP3    H263491   6.650   2.177  13.944 -0.0423 -0.4185 -1.4257
14026TIP3   OH263492   3.796   4.663   1.154 -0.0623 -0.0996 -0.3016
14026TIP3    H163493   3.828   4.737   1.206  0.1019 -0.5272  0.2237
14026TIP3    H263494   3.867   4.598   1.158 -1.0240 -1.1486  1.0604
14027TIP3   OH263495   6.769   6.433   1.618  0.5130  0.2193  0.2304
14027TIP3    H163496   6.813   6.405   1.697  0.4263 -0.0127  0.1963
14027TIP3    H263497   6.756   6.528   1.630 -0.1570  0.0645  0.8160
14028TIP3   OH263498   2.741   2.816  16.982  0.0877  0.0258  0.0549
14028TIP3    H163499   2.729   2.801  16.888  0.6957 -0.5848  0.0672
14028TIP3    H263500   2.833   2.797  16.998 -0.5617 -2.6567  1.2340
14029TIP3   OH263501   4.318   4.228   0.671 -0.6655 -0.5857  0.1166
14029TIP3    H163502   4.390   4.168   0.691 -0.5492 -0.9244 -1.2028
14029TIP3    H263503   4.329   4.248   0.578  0.2493  2.8077  0.8450
14030TIP3   OH263504   6.141   5.273   3.861 -0.1548  0.1938 -0.2129
14030TIP3    H163505   6.181   5.326   3.929 -1.1771 -0.7977  1.2092
14030TIP3    H263506   6.197   5.195   3.856 -1.6354 -1.0758  1.5995
14031TIP3   OH263507   3.501   2.669  16.792 -0.2588 -0.2394  0.3059
14031TIP3    H163508   3.468   2.669  16.882  1.4658 -1.1881  0.9845
14031TIP3    H263509   3.563   2.741  16.789  0.2313 -0.6656  0.0976
14032TIP3   OH263510   4.774   0.566  14.177  0.1915  0.2404 -0.7972
14032TIP3    H163511   4.839   0.500  14.202 -0.2879  0.4923  1.3043
14032TIP3    H263512   4.696   0.542  14.226 -1.7852 -0.7003 -4.0916
14033TIP3   OH263513   0.433   4.322   3.645 -0.6986  0.2067 -0.9190
14033TIP3    H163514   0.480   4.391   3.691  1.2698 -0.2814 -2.0766
14033TIP3    H263515   0.354   4.307   3.698  0.8902  0.3957  1.6713
14034TIP3   OH263516   4.003   5.717   0.871  0.7129  0.9370 -0.1019
14034TIP3    H163517   4.092   5.705   0.840  0.9424 -1.9752  1.3063
14034TIP3    H263518   3.954   5.643   0.835 -0.7172  1.4742  0.6179
14035TIP3   OH263519   6.366   5.282   2.791 -0.2070  0.0511 -0.1343
14035TIP3    H163520   6.400   5.234   2.866  0.8031 -1.6252 -1.5681
14035TIP3    H263521   6.281   5.242   2.773 -0.0926 -0.1077 -0.3393
14036TIP3   OH263522   1.378   1.551  16.899  0.4546  0.6576  0.2471
14036TIP3    H163523   1.364   1.482  16.834  0.0830  0.9110  0.0554
14036TIP3    H263524   1.294   1.596  16.905  0.4345  0.5294  1.0322
14037TIP3   OH263525   6.259   1.839  12.468  0.1907 -0.7035 -0.3439
14037TIP3    H163526   6.253   1.766  12.405  0.4776 -0.3767 -0.7556
14037TIP3    H263527   6.188   1.898  12.443  0.1685 -0.6786 -0.2232
14038TIP3   OH263528   5.644   4.713   0.977 -0.1879 -0.6951  0.3012
14038TIP3    H163529   5.709   4.778   0.951  0.4064 -1.0173  0.9476
14038TIP3    H263530   5.560   4.750   0.949 -0.0027  0.9282  1.7328
14039TIP3   OH263531   2.823   4.559  16.868 -0.2110  0.1027  0.0039
14039TIP3    H163532   2.860   4.644  16.893 -1.6425  1.2015 -1.4390
14039TIP3    H263533   2.732   4.578  16.844 -1.2738 -2.2223  1.7710
14040TIP3   OH263534   6.518   0.764  13.711  0.0396  0.1039  0.3092
14040TIP3    H163535   6.602   0.718  13.706 -0.6803 -1.1748 -1.5902
14040TIP3    H263536   6.515   0.816  13.630 -0.8611  0.3644  0.5010
14041TIP3   OH263537   5.826   1.056   1.505 -0.7489 -0.1037 -0.2398
14041TIP3    H163538   5.732   1.050   1.524 -1.0859 -1.0967 -1.9105
14041TIP3    H263539   5.840   0.988   1.439  0.9270  0.7820 -0.8437
14042TIP3   OH263540   3.916   0.031   5.609  0.3772  0.2006  0.1710
14042TIP3    H163541   3.999  -0.016   5.611  1.6474  2.3480  1.7682
14042TIP3    H263542   3.935   0.116   5.648 -2.3731  1.1372 -0.2883
14043TIP3   OH263543   4.953   5.907  11.367 -0.1599 -0.1192 -0.0121
14043TIP3    H163544   5.017   5.962  11.322  0.9261 -0.9393  0.5003
14043TIP3    H263545   4.868   5.944  11.341  0.4339 -0.1059 -2.1032
14044TIP3   OH263546   2.525   1.912   6.657  0.0351 -0.2432  0.4379
14044TIP3    H163547   2.598   1.936   6.714  0.7435  0.1712 -0.6214
14044TIP3    H263548   2.564   1.906   6.570 -1.1336 -0.3625 -0.0883
14045TIP3   OH263549   2.384   2.566  13.231  0.7788  0.7705 -0.0271
14045TIP3    H163550   2.305   2.514  13.219  1.7777 -0.5501 -1.2667
14045TIP3    H263551   2.371   2.643  13.175  0.5153  0.3742 -0.5147
14046TIP3   OH263552   6.268   0.956  15.961 -0.2822  0.1008 -0.6252
14046TIP3    H163553   6.349   0.935  15.914 -0.3846 -1.6699 -0.0862
14046TIP3    H263554   6.252   1.048  15.941  0.2213 -0.2957 -3.2475
14047TIP3   OH263555   4.880   5.659  11.326 -0.3585  0.9065 -0.1261
14047TIP3    H163556   4.903   5.752  11.327  2.5618  0.3009  2.1535
14047TIP3    H263557   4.908   5.628  11.240  1.8129  1.5288  0.3059
14048TIP3   OH263558   0.007   5.696   3.126  0.0543  0.3709  0.3210
14048TIP3    H163559  -0.034   5.760   3.186  0.2848 -0.0392  0.9240
14048TIP3    H263560   0.082   5.662   3.175 -1.0644 -1.6676  0.7257
14049TIP3   OH263561   4.443   6.234   3.988 -0.4291  0.4433 -0.4510
14049TIP3    H163562   4.533   6.206   4.003 -0.3389  0.3505 -1.1140
14049TIP3    H263563   4.392   6.153   3.988 -0.1701  0.2333 -2.3532
14050TIP3   OH263564   1.824   0.053   3.202 -0.6745 -0.5675  0.2665
14050TIP3    H163565   1.767   0.017   3.135 -0.9290 -0.6962  0.5491
14050TIP3    H263566   1.786   0.138   3.224 -1.2637 -1.0224  1.0686
14051TIP3   OH263567   3.679   0.748  14.243 -0.2043  0.0390  0.1066
14051TIP3    H163568   3.607   0.780  14.298  1.4000  1.1511  1.6666
14051TIP3    H263569   3.716   0.827  14.204  0.7889 -0.3933  0.1409
14052TIP3   OH263570   6.408   3.287   6.287 -0.4949 -0.4930  0.8017
14052TIP3    H163571   6.392   3.211   6.231  2.5028  0.4490 -1.6353
14052TIP3    H263572   6.471   3.255   6.352  1.0221 -0.1146 -0.4245
14053TIP3   OH263573   1.592   4.831  11.276  0.1374 -0.1923  0.1803
14053TIP3    H163574   1.607   4.744  11.313 -0.2287 -0.2424  0.2139
14053TIP3    H263575   1.587   4.817  11.181  1.2199 -0.0438  0.0934
14054TIP3   OH263576   2.839   0.264   0.754  0.3907  0.5408 -0.4513
14054TIP3    H163577   2.884   0.184   0.782  0.2966  0.5200 -0.3584
14054TIP3    H263578   2.808   0.244   0.665 -1.1049 -0.1432  0.2010
14055TIP3   OH263579   3.581   3.306  15.821  0.0864 -0.0836 -0.0835
14055TIP3    H163580   3.655   3.362  15.844  1.3088 -2.3447  2.0110
14055TIP3    H263581   3.519   3.315  15.893  0.4377 -1.5416  0.4479
14056TIP3   OH263582   3.128   1.967  14.778  1.2387 -0.3386 -0.4857
14056TIP3    H163583   3.067   1.898  14.803  0.7176 -0.1725 -1.2633
14056TIP3    H263584   3.195   1.922  14.726  1.1176 -0.3273 -0.6528
14057TIP3   OH263585   6.220   6.661  17.036  0.1926 -0.1293  0.7136
14057TIP3    H163586   6.149   6.597  17.032  0.2128 -0.1724  1.0152
14057TIP3    H263587   6.231   6.679  17.130 -1.6914  2.4167  0.5874
14058TIP3   OH263588   1.997   3.022   2.421 -0.4914  0.0672  0.1576
14058TIP3    H163589   1.917   3.050   2.376 -0.7423 -0.4985  0.2376
14058TIP3    H263590   1.969   3.007   2.511 -0.1260  0.5961  0.3611
14059TIP3   OH263591   4.430   5.704   4.531  0.3939  0.6211 -0.0693
14059TIP3    H163592   4.434   5.726   4.624  1.0134 -1.4998  0.4514
14059TIP3    H263593   4.521   5.713   4.500  1.0440 -2.4778  0.5608
14060TIP3   OH263594   1.912   3.104  15.310 -0.3629  0.1941 -0.2949
14060TIP3    H163595   1.990   3.151  15.280 -0.4860 -0.7590 -2.2888
14060TIP3    H263596   1.880   3.155  15.385  2.4275  0.3412  0.9281
14061TIP3   OH263597   0.295   4.845  14.769  0.5418 -0.3444 -0.0711
14061TIP3    H163598   0.388   4.835  14.786  0.6672 -0.1924 -0.6341
14061TIP3    H263599   0.276   4.936  14.790  0.2661 -0.6542  1.1392
14062TIP3   OH263600   5.372   0.215   5.850 -0.4069 -0.2515  0.2003
14062TIP3    H163601   5.321   0.265   5.786 -0.0734 -0.3593 -0.1510
14062TIP3    H263602   5.403   0.280   5.912  0.4154  0.0571 -0.5136
14063TIP3   OH263603   0.308   3.409   1.335 -0.0054  0.6212  0.1584
14063TIP3    H163604   0.402   3.399   1.342 -0.1042  0.2446  1.0812
14063TIP3    H263605   0.274   3.319   1.329 -0.3451  0.7249  0.4764
14064TIP3   OH263606   4.502   0.666  13.583  0.1300  0.1342  0.4576
14064TIP3    H163607   4.533   0.590  13.633 -0.2025 -0.0128  0.4448
14064TIP3    H263608   4.443   0.628  13.517 -2.0158  0.5821  1.9788
14065TIP3   OH263609   5.352   5.506  15.705  0.0265  0.4406 -0.0763
14065TIP3    H163610   5.384   5.592  15.733 -0.5764  0.8788 -0.7118
14065TIP3    H263611   5.264   5.501  15.742  1.0191 -1.0774  2.3229
14066TIP3   OH263612   2.611   5.594   5.119 -0.2575 -0.4014  0.0298
14066TIP3    H163613   2.637   5.682   5.148  2.2454 -1.2594  0.6608
14066TIP3    H263614   2.694   5.553   5.092 -1.3793 -2.5349 -0.3641
14067TIP3   OH263615   1.733   6.764  10.970 -0.4195  0.1029 -0.2555
14067TIP3    H163616   1.687   6.720  10.898 -1.2225  1.1102 -0.3763
14067TIP3    H263617   1.824   6.770  10.940 -1.0547  2.1071 -2.0176
14068TIP3   OH263618   3.244   2.039   0.735 -0.1109 -0.1954 -0.0911
14068TIP3    H163619   3.167   2.073   0.690 -0.4248  0.5561  0.9732
14068TIP3    H263620   3.215   2.024   0.825  0.6194 -1.2393 -0.0037
14069TIP3   OH263621   0.589   2.865   3.656 -0.5112 -0.0593  0.2673
14069TIP3    H163622   0.516   2.803   3.661 -2.3269  1.9234 -0.4146
14069TIP3    H263623   0.619   2.859   3.565 -1.9983  1.4286 -0.3562
14070TIP3   OH263624   6.306   0.346   3.324  0.1078  0.2968  0.2630
14070TIP3    H163625   6.394   0.339   3.361 -0.6125 -0.7392  1.8691
14070TIP3    H263626   6.321   0.369   3.232  2.0465  0.1024  0.4839
14071TIP3   OH263627   5.325   6.410  16.926 -0.3647  0.5948 -0.9375
14071TIP3    H163628   5.266   6.475  16.887 -1.8940  0.7461  1.3981
14071TIP3    H263629   5.394   6.463  16.967 -1.1812  0.7441  0.2896
14072TIP3   OH263630   5.562   4.159  14.586  0.6586  0.1110  0.1340
14072TIP3    H163631   5.573   4.244  14.545 -1.9035  0.5255  0.1465
14072TIP3    H263632   5.522   4.178  14.671 -0.9633 -1.0945 -0.2951
14073TIP3   OH263633   3.110   4.419  17.159  0.4390 -0.3410  0.2705
14073TIP3    H163634   3.165   4.417  17.238  0.5065  1.3047  0.2918
14073TIP3    H263635   3.043   4.353  17.175 -0.3742  0.8955  2.3275
14074TIP3   OH263636   0.546   1.784  12.471 -0.2335  0.3429  0.6682
14074TIP3    H163637   0.620   1.724  12.464  0.6848  1.3269  1.5498
14074TIP3    H263638   0.509   1.767  12.557 -1.5551 -0.6674 -0.0485
14075TIP3   OH263639   0.502   1.517  13.783 -0.4059 -0.2662  0.0714
14075TIP3    H163640   0.589   1.519  13.745  0.2063  2.7087  1.3873
14075TIP3    H263641   0.511   1.462  13.861 -0.0829 -1.0671 -0.5179
14076TIP3   OH263642   3.055   4.082   6.471 -0.1172  0.2938  0.2184
14076TIP3    H163643   3.074   3.988   6.480 -1.9769 -0.2179 -0.6312
14076TIP3    H263644   3.101   4.108   6.391  0.4407  0.1204  0.4789
14077TIP3   OH263645   2.650   0.822   5.258 -0.5051 -0.1002  0.1942
14077TIP3    H163646   2.728   0.856   5.213  0.8141 -0.8151  1.8411
14077TIP3    H263647   2.594   0.899   5.269  0.4393  0.6432 -0.0664
14078TIP3   OH263648   4.123   1.193  16.352  0.5145  0.0018  0.1958
14078TIP3    H163649   4.086   1.108  16.328 -0.7729 -0.0378  2.0734
14078TIP3    H263650   4.121   1.193  16.448 -1.1033  2.7817  0.2461
14079TIP3   OH263651   6.380   6.414   2.195 -0.1448  0.2953  0.0242
14079TIP3    H163652   6.309   6.362   2.158 -0.3300  0.5205  0.0556
14079TIP3    H263653   6.435   6.351   2.241  1.6525 -0.4645 -2.9001
14080TIP3   OH263654   4.685   4.594  13.973 -0.2847 -0.3149  0.1448
14080TIP3    H163655   4.643   4.680  13.964  1.1185  0.3248 -0.6613
14080TIP3    H263656   4.677   4.554  13.887  0.1599 -0.4720  0.1742
14081TIP3   OH263657   5.788   5.952   0.734 -0.6330  0.2991  0.1805
14081TIP3    H163658   5.777   5.857   0.724  1.5552 -0.0890  0.9029
14081TIP3    H263659   5.754   5.989   0.653  2.7489 -1.4967 -2.3111
14082TIP3   OH263660   5.358   0.548   5.663  0.1154  0.0420 -0.1166
14082TIP3    H163661   5.422   0.540   5.591 -0.7719 -0.3756 -0.8752
14082TIP3    H263662   5.277   0.512   5.627 -0.5048  0.3912  0.9030
14083TIP3   OH263663   6.770   2.262  13.520 -0.1641 -0.3502 -0.1669
14083TIP3    H163664   6.855   2.289  13.554  1.0996 -1.4834 -2.2472
14083TIP3    H263665   6.714   2.338  13.533  0.6207 -0.1489  2.8147
14084TIP3   OH263666   3.606   4.589   5.877 -0.0247 -0.5643  0.3659
14084TIP3    H163667   3.628   4.584   5.970 -1.5943 -1.3687  0.7311
14084TIP3    H263668   3.532   4.650   5.874 -0.5350 -1.1981 -0.2329
14085TIP3   OH263669   6.765   6.594   3.529  0.4971 -0.1689  0.2902
14085TIP3    H163670   6.723   6.525   3.477  0.6129  0.3969 -0.5851
14085TIP3    H263671   6.772   6.558   3.617  0.2083 -1.1254 -0.0704
14086TIP3   OH263672   1.055   3.637  16.201  0.2142 -0.2934 -0.3248
14086TIP3    H163673   1.125   3.572  16.202 -1.0829 -1.7618  1.5292
14086TIP3    H263674   0.983   3.596  16.248 -1.1291  2.0024 -0.2170
14087TIP3   OH263675   5.894   1.059   2.902 -0.3769  0.1469  0.4116
14087TIP3    H163676   5.861   1.122   2.967 -0.7270 -1.3071  1.7143
14087TIP3    H263677   5.954   1.110   2.848 -0.6667  1.6051  1.3994
14088TIP3   OH263678   2.380   2.384   5.483 -0.4610 -0.0028  0.3473
14088TIP3    H163679   2.424   2.385   5.398 -0.3498 -0.5140  0.3930
14088TIP3    H263680   2.405   2.300   5.522 -1.4464 -0.2943  0.3928
14089TIP3   OH263681   4.936   3.284   2.629 -0.3921 -0.1126  0.2792
14089TIP3    H163682   4.933   3.290   2.725 -0.7007 -1.7314  0.3860
14089TIP3    H263683   4.864   3.339   2.599 -1.5563 -1.1515  1.0729
14090TIP3   OH263684   0.805   1.724   0.442  0.3642  0.3260 -0.2243
14090TIP3    H163685   0.769   1.772   0.517  1.5234  0.8704  0.0067
14090TIP3    H263686   0.737   1.660   0.420 -0.5731  1.0680  0.4162
14091TIP3   OH263687   3.038   1.708   1.307  0.5286 -0.1518  0.3430
14091TIP3    H163688   2.994   1.691   1.223 -0.1521  0.3581  0.5798
14091TIP3    H263689   3.072   1.623   1.334 -1.0302 -0.7555  0.5424
14092TIP3   OH263690   4.306   0.353   5.585 -0.8057  0.1660 -0.5867
14092TIP3    H163691   4.217   0.373   5.558 -1.2222 -0.2088  0.4381
14092TIP3    H263692   4.343   0.437   5.612 -1.1981  0.1800 -0.0715
14093TIP3   OH263693   5.714   3.585   5.839 -0.4286 -0.4282  0.0133
14093TIP3    H163694   5.806   3.562   5.836 -0.4445 -0.4809 -0.0615
14093TIP3    H263695   5.704   3.633   5.921 -0.1870  0.2077 -0.3225
14094TIP3   OH263696   2.954   0.874   4.097  0.2042 -0.0988  0.2640
14094TIP3    H163697   2.890   0.891   4.167 -1.7313 -0.9997 -1.1796
14094TIP3    H263698   2.966   0.959   4.055  0.3074  0.1750  0.8456
14095TIP3   OH263699   3.465   1.124   2.343 -0.1251  0.0529 -0.2923
14095TIP3    H163700   3.458   1.213   2.378 -0.0882 -0.4503  1.0516
14095TIP3    H263701   3.379   1.086   2.357  0.0624 -0.3492 -0.2194
14096TIP3   OH263702   2.926   3.566   0.900 -0.2738  0.2978  0.3110
14096TIP3    H163703   2.899   3.480   0.931 -0.1905  0.3271  0.4711
14096TIP3    H263704   2.973   3.549   0.819  1.3381 -0.0090  1.2552
14097TIP3   OH263705   2.305   0.117  14.030 -0.1832 -0.2144 -0.1193
14097TIP3    H163706   2.282   0.198  14.076 -0.1409 -1.1780  1.6930
14097TIP3    H263707   2.358   0.145  13.956  0.9030  1.3595  1.1875
14098TIP3   OH263708   4.429   3.555  11.568  0.2099 -0.6274  0.1671
14098TIP3    H163709   4.421   3.649  11.581  2.3348 -0.1575 -1.3789
14098TIP3    H263710   4.369   3.535  11.497 -0.5128 -0.5338  0.7377
14099TIP3   OH263711   4.506   4.870   3.749  0.4117  0.2300  0.6586
14099TIP3    H163712   4.540   4.880   3.838 -1.3887  3.3750  1.1581
14099TIP3    H263713   4.570   4.914   3.694  1.6182 -1.8755  0.3031
14100TIP3   OH263714   4.782   3.761   5.164  0.2869 -0.7066 -0.2538
14100TIP3    H163715   4.828   3.696   5.112 -0.5024 -0.2192 -1.5953
14100TIP3    H263716   4.704   3.782   5.114  1.0991  2.1783 -0.4833
14101TIP3   OH263717   4.850   4.209  15.418 -0.2837 -0.1552 -0.3206
14101TIP3    H163718   4.832   4.286  15.364 -3.0420 -0.1578  0.4687
14101TIP3    H263719   4.945   4.202  15.418 -0.0584  1.6430 -2.6265
14102TIP3   OH263720   0.433   5.045   1.617 -0.4585 -0.2882  0.0157
14102TIP3    H163721   0.473   5.125   1.581  1.0631 -1.2392 -0.5047
14102TIP3    H263722   0.441   5.055   1.711  1.8914 -0.8073 -0.0680
14103TIP3   OH263723   4.782   4.563   2.848 -0.3834 -0.0317  0.5771
14103TIP3    H163724   4.764   4.656   2.865 -0.5892 -0.0923  0.6958
14103TIP3    H263725   4.696   4.523   2.840 -0.3397  0.2621 -2.2056
14104TIP3   OH263726   2.336   3.312  11.255 -0.2822  0.3104  0.1590
14104TIP3    H163727   2.368   3.222  11.252 -2.3796 -0.4982  0.1193
14104TIP3    H263728   2.412   3.364  11.281  1.2663 -1.2996 -0.8741
14105TIP3   OH263729   3.394   2.756   4.613  0.3104 -0.3705 -0.1692
14105TIP3    H163730   3.451   2.707   4.554  1.0365 -1.4166  1.3256
14105TIP3    H263731   3.435   2.745   4.699 -1.7628 -0.5744  0.8417
14106TIP3   OH263732   4.641   3.312   2.467 -0.1247 -0.1651 -0.1296
14106TIP3    H163733   4.571   3.340   2.408  1.1526  2.4048 -0.5737
14106TIP3    H263734   4.653   3.386   2.526  2.3004 -0.4678 -0.1579
14107TIP3   OH263735   4.184   2.500  15.694  0.7716 -0.0413  0.1032
14107TIP3    H163736   4.160   2.481  15.785  0.9658  0.7770  0.3294
14107TIP3    H263737   4.127   2.443  15.642  1.1029 -0.9896  0.7466
14108TIP3   OH263738   3.745   4.511   2.402  0.0729  0.9796 -0.0915
14108TIP3    H163739   3.649   4.504   2.398  0.2202 -0.7881 -1.8105
14108TIP3    H263740   3.767   4.576   2.336  0.1310  0.4537 -0.5918
14109TIP3   OH263741   3.950   6.533   0.024 -0.0676 -0.0224 -0.2791
14109TIP3    H163742   3.902   6.615   0.015  0.3214  0.2340 -0.0853
14109TIP3    H263743   3.951   6.516   0.118  2.7091  1.5311  0.0869
14110TIP3   OH263744   1.668   2.734   1.754  0.4393 -0.2724  0.2102
14110TIP3    H163745   1.690   2.694   1.838  1.0304  2.0671  1.2258
14110TIP3    H263746   1.752   2.764   1.719 -0.0632  0.7898 -0.1148
14111TIP3   OH263747   3.635   3.904   5.231  0.7246  0.1247  0.3667
14111TIP3    H163748   3.614   3.872   5.319  2.5929 -0.6679  0.5656
14111TIP3    H263749   3.715   3.858   5.207 -0.7982 -1.2246 -2.6165
14112TIP3   OH263750   3.361   0.802  15.940 -0.2641  0.9159 -0.1177
14112TIP3    H163751   3.345   0.883  15.988  0.3998  1.5154 -0.8677
14112TIP3    H263752   3.326   0.819  15.852  0.1630  0.5191 -0.3729
14113TIP3   OH263753   0.225   0.490   4.366  0.3808  0.4143 -0.1317
14113TIP3    H163754   0.319   0.485   4.350  0.6070  1.8965  0.5222
14113TIP3    H263755   0.201   0.579   4.339 -0.4327  0.7377  1.4977
14114TIP3   OH263756   0.804   5.563   2.972 -0.0803  0.1233  0.2930
14114TIP3    H163757   0.889   5.521   2.954 -0.6662 -1.1461  0.3487
14114TIP3    H263758   0.815   5.604   3.057  0.6608  0.4665  0.0369
14115TIP3   OH263759   0.726   6.662  13.394  0.6541  0.6097  0.1970
14115TIP3    H163760   0.786   6.730  13.363 -0.7473  2.4577  1.3293
14115TIP3    H263761   0.730   6.669  13.490  0.0570 -0.5458  0.3279
14116TIP3   OH263762   4.931   1.387   0.485 -0.1405 -0.2114  0.2469
14116TIP3    H163763   4.949   1.390   0.579  0.3094 -0.9067  0.1890
14116TIP3    H263764   4.933   1.294   0.463  3.6740  0.0107 -1.1537
14117TIP3   OH263765   3.092   2.149  11.498  0.0191  0.1083  0.4370
14117TIP3    H163766   3.026   2.219  11.501  0.9773  0.9909  1.5154
14117TIP3    H263767   3.173   2.193  11.472 -0.2543 -1.3694 -3.8378
14118TIP3   OH263768   2.846   5.356   4.159 -0.4904  0.0745 -0.2379
14118TIP3    H163769   2.928   5.379   4.201 -0.3532 -1.3741  0.3436
14118TIP3    H263770   2.782   5.352   4.230 -1.0955  1.2600 -0.6927
14119TIP3   OH263771   0.200   4.765   1.660  0.1996 -0.8778  0.1034
14119TIP3    H163772   0.171   4.675   1.652 -1.0686 -0.3630 -1.6513
14119TIP3    H263773   0.162   4.810   1.585  2.1014  0.7925  0.0435
14120TIP3   OH263774   3.303   5.556   2.474  0.1056 -0.2956  0.7034
14120TIP3    H163775   3.397   5.551   2.492  0.0190 -0.5727  1.1003
14120TIP3    H263776   3.295   5.621   2.405  0.5282  0.2279  1.1376
14121TIP3   OH263777   3.424   6.295  12.247  0.0811 -0.5827 -0.5948
14121TIP3    H163778   3.344   6.282  12.195  0.9217  0.3364 -2.2234
14121TIP3    H263779   3.495   6.277  12.185  1.1332  0.1362  0.3752
14122TIP3   OH263780   3.603   6.017   6.081 -0.3018 -0.4516  0.0564
14122TIP3    H163781   3.611   5.923   6.066 -1.9572 -0.6460  0.2037
14122TIP3    H263782   3.589   6.025   6.175 -0.4445 -0.0855  0.0040
14123TIP3   OH263783   2.699   1.514   3.858 -0.6687 -0.7442  0.4989
14123TIP3    H163784   2.620   1.468   3.831 -0.1635 -1.5749  0.4320
14123TIP3    H263785   2.666   1.595   3.899 -1.5065 -0.5401 -0.5288
14124TIP3   OH263786   4.252   3.054  12.029 -1.2613 -0.0932 -0.0289
14124TIP3    H163787   4.327   3.029  11.975 -0.9441  1.8551 -0.5666
14124TIP3    H263788   4.246   2.984  12.094  0.2778 -0.9120 -0.6902
14125TIP3   OH263789   2.390   2.823  10.322 -0.2517 -0.4373 -0.1981
14125TIP3    H163790   2.415   2.880  10.249  0.8354 -0.7905 -0.1216
14125TIP3    H263791   2.440   2.856  10.397  0.9039 -1.8549 -0.3020
14126TIP3   OH263792   2.520   0.801  11.624 -0.1794 -1.0746 -0.2743
14126TIP3    H163793   2.521   0.732  11.557 -2.1144  0.1618 -1.6734
14126TIP3    H263794   2.609   0.834  11.626 -0.0212 -1.2995 -2.1122
14127TIP3   OH263795   4.507   4.670   2.143  0.1968 -0.0599  0.3360
14127TIP3    H163796   4.576   4.724   2.181  0.7606  0.7611 -1.6979
14127TIP3    H263797   4.483   4.715   2.062 -2.7321 -0.3460  0.9564
14128TIP3   OH263798   3.974   4.221  12.116 -0.1585 -0.2350  0.6054
14128TIP3    H163799   3.904   4.265  12.067  0.8328  0.2649 -0.4044
14128TIP3    H263800   4.017   4.165  12.051  0.9326  0.1352  0.9853
14129TIP3   OH263801   1.023   2.955  11.834  0.3513 -0.3261 -0.3813
14129TIP3    H163802   1.016   2.976  11.928 -1.6900 -0.8483 -0.3711
14129TIP3    H263803   1.106   2.995  11.807  1.0059 -0.2011  1.6498
14130TIP3   OH263804   0.082   2.474   4.858  0.1767 -0.1620 -0.0510
14130TIP3    H163805   0.116   2.404   4.801  0.9193 -0.2250  0.4639
14130TIP3    H263806  -0.005   2.492   4.823  0.4626 -0.4744 -0.9724
14131TIP3   OH263807   1.016   3.161  17.117  0.0016  0.3765 -0.3606
14131TIP3    H163808   1.007   3.239  17.063 -1.4905  1.4241  1.2874
14131TIP3    H263809   0.928   3.124  17.119  0.6815 -1.3959 -1.1039
14132TIP3   OH263810   6.512   5.502   6.228 -0.6572 -0.0707  0.4035
14132TIP3    H163811   6.512   5.471   6.137  4.1795 -0.0978  0.1435
14132TIP3    H263812   6.525   5.423   6.281 -1.7786  0.1256  0.9853
14133TIP3   OH263813   3.202   5.613  12.097  0.2481 -0.7882  0.0960
14133TIP3    H163814   3.129   5.675  12.106  0.1498 -0.7579 -0.8032
14133TIP3    H263815   3.160   5.526  12.098  0.3800 -0.8590  1.2975
14134TIP3   OH263816   6.326   2.281   3.695 -0.0386 -0.3322  0.7185
14134TIP3    H163817   6.236   2.311   3.709 -0.1299  0.0110 -0.4756
14134TIP3    H263818   6.364   2.275   3.783 -0.7610  0.9944  1.1414
14135TIP3   OH263819   3.316   3.268  13.444  0.2397  0.1157  0.4206
14135TIP3    H163820   3.344   3.341  13.388 -0.1119  0.5225  0.7644
14135TIP3    H263821   3.356   3.287  13.529  0.1921 -0.1237  0.4955
14136TIP3   OH263822   1.490   6.303  12.060 -0.1066  0.2158  0.2340
14136TIP3    H163823   1.527   6.265  11.980  0.9310  0.8833  0.3747
14136TIP3    H263824   1.397   6.284  12.054  0.1189 -0.7619 -0.5713
14137TIP3   OH263825   4.958   0.289  11.151  0.2288  0.3475  0.3599
14137TIP3    H163826   4.873   0.259  11.117  0.6249 -0.0945 -0.2528
14137TIP3    H263827   4.951   0.278  11.245 -1.0589  2.0070  0.5239
14138TIP3   OH263828   2.937   1.569  15.834 -0.0394  0.2187  0.3008
14138TIP3    H163829   2.927   1.493  15.892  0.8744  0.3271  0.6085
14138TIP3    H263830   3.005   1.543  15.773 -1.2678 -0.0481 -1.0088
14139TIP3   OH263831   4.224   6.498   4.802 -0.3969 -0.1863 -0.1922
14139TIP3    H163832   4.149   6.552   4.829 -0.6629 -0.5100 -0.2903
14139TIP3    H263833   4.256   6.460   4.884 -1.0848 -1.0138 -0.3051
14140TIP3   OH263834   6.580   2.927  12.814 -0.2701  0.1465 -0.2604
14140TIP3    H163835   6.532   3.008  12.798 -1.0689 -0.0419  1.0753
14140TIP3    H263836   6.602   2.929  12.907 -1.7377 -1.9128  0.2042
14141TIP3   OH263837   1.936   4.035   4.027  0.3513 -0.1264 -0.2111
14141TIP3    H163838   1.930   3.963   3.965  0.5650  1.4074 -2.1246
14141TIP3    H263839   1.847   4.043   4.063  0.6093 -2.0800  1.0238
14142TIP3   OH263840   1.623   2.027   4.059 -0.0886 -0.4220 -0.1093
14142TIP3    H163841   1.649   2.117   4.078 -0.3823 -0.0037 -1.6366
14142TIP3    H263842   1.580   1.998   4.140 -1.6170  1.4167 -0.1986
14143TIP3   OH263843   5.051   1.537  14.763 -0.5501  0.2337  0.5472
14143TIP3    H163844   5.115   1.476  14.726 -0.4826  0.0584  0.9449
14143TIP3    H263845   5.016   1.583  14.688  0.3863  0.6689  0.3645
14144TIP3   OH263846   3.112   1.145  14.020 -0.1130 -0.1967  0.2866
14144TIP3    H163847   3.047   1.202  13.979  0.4086  0.2782  0.1091
14144TIP3    H263848   3.099   1.158  14.114 -1.4445 -1.4375  0.2983
14145TIP3   OH263849   4.906   5.479  15.258  0.1100  0.1015  0.1238
14145TIP3    H163850   4.818   5.496  15.291 -1.2044  0.0469 -3.0106
14145TIP3    H263851   4.908   5.384  15.244  0.2302  0.2376 -0.8438
14146TIP3   OH263852   0.092   1.474   0.477  0.3253 -0.3368 -0.5146
14146TIP3    H163853   0.015   1.422   0.501  0.6671 -1.9300 -2.5784
14146TIP3    H263854   0.163   1.411   0.472  1.4151  0.8294 -0.3972
14147TIP3   OH263855   5.265   5.776   2.678 -0.1411 -0.3527 -0.2762
14147TIP3    H163856   5.198   5.713   2.704 -0.4968  0.1482  0.0473
14147TIP3    H263857   5.225   5.861   2.695  1.3139 -0.0208  1.8898
14148TIP3   OH263858   4.330   5.839  13.619 -0.1395 -0.1422  0.8539
14148TIP3    H163859   4.349   5.754  13.580  1.0180 -0.4117  1.9316
14148TIP3    H263860   4.390   5.900  13.576 -1.2310  0.2466 -0.1955
14149TIP3   OH263861   0.293   1.448  12.517 -0.1905  0.1495 -0.7579
14149TIP3    H163862   0.315   1.361  12.550 -1.3272  0.2949  0.4428
14149TIP3    H263863   0.264   1.432  12.427  0.3712 -0.6006 -0.8166
14150TIP3   OH263864   1.063   2.252   1.523  0.1405  0.2821 -0.1644
14150TIP3    H163865   1.060   2.252   1.428 -0.9027 -0.3769 -0.1452
14150TIP3    H263866   0.973   2.230   1.550  0.1903  1.3291  0.9742
14151TIP3   OH263867   6.418   6.585   4.701  0.1956 -0.0177 -0.4372
14151TIP3    H163868   6.436   6.612   4.791  0.6541  1.7202 -1.0023
14151TIP3    H263869   6.432   6.491   4.701  1.1903  0.0853  1.0876
14152TIP3   OH263870   5.290   6.122   4.577  0.6465  0.7690 -0.3145
14152TIP3    H163871   5.248   6.173   4.508 -1.0064  0.5151  0.4747
14152TIP3    H263872   5.323   6.044   4.532  0.6093  1.1497 -1.0135
14153TIP3   OH263873   2.541   0.767  14.167  0.3357 -0.0714 -0.1675
14153TIP3    H163874   2.571   0.821  14.093 -0.3404  1.5393  0.6762
14153TIP3    H263875   2.616   0.764  14.226  0.4617 -0.2931 -0.3363
14154TIP3   OH263876   0.666   2.307   6.204  0.4469  0.7534 -0.0665
14154TIP3    H163877   0.603   2.240   6.176  0.9894  0.4608 -0.6071
14154TIP3    H263878   0.619   2.390   6.194  0.5929  0.6528 -1.7912
14155TIP3   OH263879   4.511   1.787  11.565  0.0309  0.3213 -0.7890
14155TIP3    H163880   4.444   1.807  11.499 -2.4687  0.5946  1.6652
14155TIP3    H263881   4.532   1.873  11.602 -0.4828 -0.0661  0.4323
14156TIP3   OH263882   6.185   0.676  15.362 -0.5609  0.1930  0.5737
14156TIP3    H163883   6.134   0.738  15.415  1.1428  1.8065  0.4641
14156TIP3    H263884   6.203   0.724  15.281  1.4607 -0.1061  0.8027
14157TIP3   OH263885   3.587   3.367   1.041  0.0309  0.1784  0.3994
14157TIP3    H163886   3.640   3.389   1.118  0.1693  0.6949  0.1602
14157TIP3    H263887   3.548   3.282   1.062  2.2810 -1.0493 -0.1192
14158TIP3   OH263888   6.174   0.811  14.677 -0.0316  0.9510 -0.4547
14158TIP3    H163889   6.194   0.905  14.674  1.5956  0.6587  0.3083
14158TIP3    H263890   6.104   0.800  14.613  0.1461  2.6013 -0.9853
14159TIP3   OH263891   2.124   6.167  17.164  0.1870  0.6022  0.0637
14159TIP3    H163892   2.047   6.221  17.146  0.6511  1.3168  0.1747
14159TIP3    H263893   2.173   6.167  17.082  0.9795  1.6779  0.5109
14160TIP3   OH263894   2.577   2.298  17.063  0.7093  0.6749  0.2185
14160TIP3    H163895   2.557   2.214  17.104  0.5399  1.2179  1.3126
14160TIP3    H263896   2.564   2.362  17.134  2.8444  1.4321 -0.0045
14161TIP3   OH263897   0.417   3.590   4.184  0.6522 -0.5938  0.0782
14161TIP3    H163898   0.409   3.497   4.204 -2.0622 -0.4176  0.1426
14161TIP3    H263899   0.427   3.593   4.088 -1.9018 -0.9557 -0.2809
14162TIP3   OH263900   1.072   1.957  11.132  0.0979  0.3230  0.7564
14162TIP3    H163901   1.073   1.866  11.103  1.5605  0.7389 -0.5824
14162TIP3    H263902   0.990   1.964  11.182  0.1395 -1.8028  1.2333
14163TIP3   OH263903   1.083   3.029  14.152  0.0598  0.7076 -0.1767
14163TIP3    H163904   1.081   3.038  14.248  0.8382  0.4628 -0.1257
14163TIP3    H263905   1.023   3.096  14.120  1.0097  1.8912  0.4318
14164TIP3   OH263906   1.213   6.100   5.480  0.0213 -0.0284 -0.8722
14164TIP3    H163907   1.181   6.135   5.397 -0.7536 -1.8278 -1.3799
14164TIP3    H263908   1.141   6.115   5.542  0.9816  2.2200 -0.2158
14165TIP3   OH263909   1.991   5.319  11.694 -0.5927 -0.3117 -0.0101
14165TIP3    H163910   2.044   5.277  11.626  3.0307  1.6473  1.2994
14165TIP3    H263911   1.938   5.384  11.648 -0.0491 -0.6830 -1.1829
14166TIP3   OH263912   3.507   3.790  10.739  0.2422  0.8844 -0.4589
14166TIP3    H163913   3.556   3.872  10.745 -2.1220  2.2905  1.0197
14166TIP3    H263914   3.539   3.738  10.813  1.7739  0.3940 -1.4230
14167TIP3   OH263915   5.242   6.285   1.194 -0.0519  0.2473  0.4479
14167TIP3    H163916   5.259   6.363   1.247 -0.0733 -0.7281  1.9381
14167TIP3    H263917   5.148   6.287   1.179 -0.0279  0.6039  0.3160
14168TIP3   OH263918   4.292   1.183   2.170 -0.0053 -0.1772 -0.0997
14168TIP3    H163919   4.239   1.166   2.248  0.0724  2.5885  0.6587
14168TIP3    H263920   4.249   1.255   2.126  1.3871  0.0323 -1.2070
14169TIP3   OH263921   1.678   5.529   2.001 -0.1408  0.0268  0.2701
14169TIP3    H163922   1.756   5.528   1.946 -0.3390 -0.7704 -0.0146
14169TIP3    H263923   1.649   5.621   2.000  1.1396  0.4567  0.9072
14170TIP3   OH263924   1.643   0.024   5.671  0.7890 -0.2036  0.2993
14170TIP3    H163925   1.731  -0.014   5.678  1.3596  0.4651 -2.2629
14170TIP3    H263926   1.591  -0.022   5.737  2.8539 -1.1944  1.3056
14171TIP3   OH263927   4.408   3.681  14.042 -0.8549 -0.4106 -0.0255
14171TIP3    H163928   4.432   3.590  14.059 -0.6038 -0.4833 -0.7442
14171TIP3    H263929   4.489   3.722  14.012 -0.7462  0.2862  1.1818
14172TIP3   OH263930   1.898   1.724  11.149 -0.7200 -0.1322  0.0410
14172TIP3    H163931   1.910   1.646  11.096 -1.2353 -0.7532  0.8163
14172TIP3    H263932   1.831   1.775  11.104 -0.4592 -0.1826 -0.4069
14173TIP3   OH263933   5.736   5.286   4.429  0.3986 -0.0180 -0.1836
14173TIP3    H163934   5.798   5.303   4.500 -0.6412  1.2471  0.4759
14173TIP3    H263935   5.740   5.366   4.375  0.4392 -0.5527 -0.9913
14174TIP3   OH263936   3.484   0.684  14.934 -0.0776  0.3824  0.1012
14174TIP3    H163937   3.573   0.657  14.954  1.0478  1.9222 -2.2913
14174TIP3    H263938   3.465   0.755  14.996  0.3469  0.0363  0.6311
14175TIP3   OH263939   4.681   6.375   1.160 -0.0925  0.3192 -0.0778
14175TIP3    H163940   4.632   6.456   1.151 -0.1133  0.2685 -0.4233
14175TIP3    H263941   4.695   6.366   1.254 -0.0706  0.7335 -0.0399
14176TIP3   OH263942   3.374   4.889   0.317  0.2229 -0.6558 -0.2429
14176TIP3    H163943   3.357   4.905   0.224  0.5055  1.9626  0.0708
14176TIP3    H263944   3.445   4.826   0.318  0.7699 -0.1228 -1.8340
14177TIP3   OH263945   4.352   0.919   1.896 -0.8563  0.0617  0.1004
14177TIP3    H163946   4.303   0.981   1.951 -1.6090  1.2894 -1.8555
14177TIP3    H263947   4.378   0.970   1.819  0.0049 -1.6331 -0.7890
14178TIP3   OH263948   1.219   5.128   3.375 -0.3398 -0.5246 -0.3876
14178TIP3    H163949   1.206   5.033   3.377  2.4592 -0.9887 -0.3346
14178TIP3    H263950   1.248   5.150   3.463 -0.0495  0.2244 -0.6622
14179TIP3   OH263951   3.262   3.039   2.426 -0.0402 -0.0601 -0.3055
14179TIP3    H163952   3.213   3.016   2.347  0.5590  1.8839 -1.3154
14179TIP3    H263953   3.345   2.993   2.416  0.5383  1.1486 -1.5143
14180TIP3   OH263954   3.976   1.067   3.118  1.0021 -0.1347  0.1985
14180TIP3    H163955   3.968   0.999   3.051  1.9650 -0.4376  0.3614
14180TIP3    H263956   4.038   1.130   3.081  0.0831  0.6847  0.0350
14181TIP3   OH263957   1.232   4.193   3.645 -0.5063  0.1050 -0.1333
14181TIP3    H163958   1.327   4.195   3.658 -0.6184  0.4185  0.7036
14181TIP3    H263959   1.196   4.204   3.732 -1.3043  2.0453 -0.6569
14182TIP3   OH263960   0.082   4.886   1.889  0.4443  0.2718  0.2413
14182TIP3    H163961   0.097   4.874   1.795 -0.3991  0.4359  0.0753
14182TIP3    H263962   0.085   4.980   1.902 -0.4311  0.3161  0.1922
14183TIP3   OH263963   5.445   2.224  15.876 -0.0997  0.0403  0.1920
14183TIP3    H163964   5.388   2.195  15.947  0.4351  0.8063  0.9563
14183TIP3    H263965   5.385   2.264  15.813 -0.5037  0.0609  0.5799
14184TIP3   OH263966   2.232   1.497   0.855 -0.1961 -0.4731  0.3454
14184TIP3    H163967   2.233   1.570   0.792  2.1270  0.2942  1.1733
14184TIP3    H263968   2.273   1.424   0.808 -0.9535 -0.7376  0.0863
14185TIP3   OH263969   2.709   3.646  16.727 -0.3232  0.0956 -0.5039
14185TIP3    H163970   2.629   3.687  16.760 -1.0445  0.3926 -2.4551
14185TIP3    H263971   2.677   3.575  16.671  0.8139 -0.4036 -0.5438
14186TIP3   OH263972   3.642   2.366   3.083 -0.0366  0.5523  0.0120
14186TIP3    H163973   3.605   2.294   3.032 -0.6565  1.2541 -0.5430
14186TIP3    H263974   3.637   2.442   3.025  0.0646  1.1745  0.8031
14187TIP3   OH263975   2.987   3.445   1.727  0.6018  0.1870 -0.4577
14187TIP3    H163976   2.909   3.425   1.675  0.7470  1.3117 -1.1353
14187TIP3    H263977   2.959   3.515   1.786  1.5381  1.9103 -1.9606
14188TIP3   OH263978   2.512   1.968   2.070  0.2153  0.1778 -0.4098
14188TIP3    H163979   2.608   1.967   2.063  0.4278  1.3168  1.5872
14188TIP3    H263980   2.494   2.015   2.151 -1.9495 -2.3907  0.7749
14189TIP3   OH263981   1.692   3.676  13.430 -0.5266  0.3942  0.0057
14189TIP3    H163982   1.775   3.704  13.392 -1.0846  0.6835 -1.0575
14189TIP3    H263983   1.626   3.728  13.383 -1.2447  0.9700  1.5860
14190TIP3   OH263984   3.269   0.234   3.164 -0.2270  0.3385 -0.1272
14190TIP3    H163985   3.321   0.153   3.165  0.7611  0.9264  2.5864
14190TIP3    H263986   3.187   0.209   3.121  0.4386 -1.8488 -0.2450
14191TIP3   OH263987   5.004   5.159  17.259  0.1203 -0.8589 -0.0290
14191TIP3    H163988   5.009   5.254  17.270 -2.1923 -0.3551 -2.2411
14191TIP3    H263989   4.919   5.144  17.217  1.0259 -3.7619 -1.1119
14192TIP3   OH263990   2.710   2.866   4.465 -0.3640 -0.0543 -0.6422
14192TIP3    H163991   2.695   2.935   4.530 -0.0676  0.2679 -0.9048
14192TIP3    H263992   2.711   2.785   4.516  1.5028  0.3300  0.0272
14193TIP3   OH263993   1.474   0.122  11.110 -0.4056 -0.1327  0.4341
14193TIP3    H163994   1.518   0.075  11.182  0.3721 -0.5244 -0.2744
14193TIP3    H263995   1.507   0.079  11.031 -2.3662 -0.6780 -0.1295
14194TIP3   OH263996   3.427   2.377   3.818  0.4479 -0.4595 -0.4576
14194TIP3    H163997   3.444   2.288   3.787  0.7029  0.4944 -3.3668
14194TIP3    H263998   3.506   2.425   3.797 -0.1760  0.7311 -0.1428
14195TIP3   OH263999   3.364   6.377   6.246 -0.0772 -0.1599 -0.0673
14195TIP3    H164000   3.420   6.422   6.308 -0.1474 -1.2291  0.8012
14195TIP3    H264001   3.310   6.319   6.300 -1.0148 -0.2062 -1.0135
14196TIP3   OH264002   6.706   1.514   2.581  0.6477  0.5294  0.0785
14196TIP3    H164003   6.746   1.443   2.632  2.2975 -1.1631 -3.2227
14196TIP3    H264004   6.622   1.478   2.553  0.7530  0.5300 -0.2407
14197TIP3   OH264005   5.824   5.098  11.631 -0.3971 -0.0924 -0.3794
14197TIP3    H164006   5.868   5.183  11.640  1.1720 -0.7917 -1.0708
14197TIP3    H264007   5.772   5.107  11.550 -1.2733  0.6180  0.2435
14198TIP3   OH264008   3.883   5.231   0.667  0.1160 -0.3929  0.2994
14198TIP3    H164009   3.887   5.135   0.673 -0.2387 -0.6098 -1.8355
14198TIP3    H264010   3.971   5.256   0.639  0.1334 -0.1290  0.5984
14199TIP3   OH264011   1.603   5.130  11.847  0.1979 -0.2152 -0.0510
14199TIP3    H164012   1.605   5.086  11.932 -2.4961  1.0396  0.7662
14199TIP3    H264013   1.672   5.197  11.854  0.5207 -0.6232  0.8349
14200TIP3   OH264014   0.573   5.436  14.342 -0.2256 -0.4867  0.0157
14200TIP3    H164015   0.580   5.425  14.436  3.1478  0.1834 -0.0368
14200TIP3    H264016   0.617   5.359  14.305 -0.7622 -0.3273 -1.0020
14201TIP3   OH264017   0.085   3.371   0.378 -0.3680 -0.1123 -0.0770
14201TIP3    H164018   0.176   3.343   0.384  0.0699  1.2608  0.0737
14201TIP3    H264019   0.043   3.335   0.456  0.1321 -0.4479  0.0398
14202TIP3   OH264020   5.028   6.588  12.598 -0.5488 -0.0088  0.0085
14202TIP3    H164021   5.108   6.641  12.599 -0.2313 -0.3828  2.8452
14202TIP3    H264022   5.049   6.514  12.541  1.6671 -0.7425  1.5955
14203TIP3   OH264023   6.548   4.714   2.846 -0.2790 -0.0705 -0.2941
14203TIP3    H164024   6.492   4.685   2.774 -0.0686 -0.1283 -0.4364
14203TIP3    H264025   6.565   4.635   2.897  1.1585 -0.4408 -1.2730
14204TIP3   OH264026   4.336   4.774   5.518 -0.1198 -0.6414  0.7460
14204TIP3    H164027   4.375   4.744   5.435 -2.0987  0.6254 -0.7365
14204TIP3    H264028   4.395   4.843   5.548  0.5574 -1.0246  0.3273
14205TIP3   OH264029   1.704   0.620  15.375  0.0639 -0.3971  0.0526
14205TIP3    H164030   1.723   0.604  15.468  0.8316 -1.0357 -0.1999
14205TIP3    H264031   1.756   0.698  15.353 -2.7956  1.9610  0.9961
14206TIP3   OH264032   3.798   5.525   5.899 -0.4414 -0.0686  0.8751
14206TIP3    H164033   3.814   5.479   5.817 -2.5587 -0.8363  0.8468
14206TIP3    H264034   3.884   5.528   5.942  0.3710 -1.1168 -0.6041
14207TIP3   OH264035   2.883   4.225  15.246  0.3162  0.5164  0.0916
14207TIP3    H164036   2.827   4.190  15.176  0.7460  0.4799 -0.2434
14207TIP3    H264037   2.875   4.320  15.237 -0.6152  0.5147  0.8085
14208TIP3   OH264038   0.970   6.178   3.099  0.1519  0.1210 -0.0036
14208TIP3    H164039   1.055   6.143   3.075  1.0411  1.0215  1.6512
14208TIP3    H264040   0.954   6.144   3.187 -0.0759  1.8381  0.6597
14209TIP3   OH264041   6.769   2.040   2.668 -0.5145 -0.4509 -0.4168
14209TIP3    H164042   6.675   2.047   2.686 -0.3258 -1.3213  0.9810
14209TIP3    H264043   6.809   2.020   2.752  1.1507  1.6067 -0.6565
14210TIP3   OH264044   2.748   4.332  16.675 -0.0296 -0.1028 -0.6420
14210TIP3    H164045   2.721   4.420  16.651 -0.2918  0.1114  0.4046
14210TIP3    H264046   2.672   4.294  16.719 -0.1842 -1.1330 -1.7432
14211TIP3   OH264047   4.878   1.344   5.209  0.3923 -0.7204 -0.2242
14211TIP3    H164048   4.956   1.308   5.165  0.0111 -2.8769  0.7140
14211TIP3    H264049   4.858   1.280   5.277 -1.1796  0.6964  0.7080
14212TIP3   OH264050   3.845   3.028  11.336  0.0041 -0.0283  1.0347
14212TIP3    H164051   3.850   2.995  11.426 -1.1108 -1.9669  0.4449
14212TIP3    H264052   3.752   3.023  11.314  0.2883  0.2151 -0.3022
14213TIP3   OH264053   1.394   4.933   1.664  0.0365  0.0296 -0.1112
14213TIP3    H164054   1.405   5.009   1.721  0.4284  0.3581 -0.6231
14213TIP3    H264055   1.299   4.929   1.648 -0.1800 -0.4941  1.1347
14214TIP3   OH264056   6.525   2.526   1.143  0.2245 -0.3467 -0.6996
14214TIP3    H164057   6.453   2.493   1.196  1.2957 -0.2230  0.9165
14214TIP3    H264058   6.506   2.619   1.131  0.6658 -0.0570  0.7128
14215TIP3   OH264059   4.036   4.816  14.613 -0.1871  0.1508  0.5965
14215TIP3    H164060   3.944   4.840  14.607 -0.0514  0.4160 -0.9556
14215TIP3    H264061   4.083   4.900  14.614  0.0534  0.0159  1.2023
14216TIP3   OH264062   3.462   3.552   4.424  0.6257 -0.1132  0.2214
14216TIP3    H164063   3.461   3.635   4.376  0.6230  0.6525  1.4761
14216TIP3    H264064   3.532   3.501   4.384  1.1368  0.8067 -0.0815
14217TIP3   OH264065   6.590   0.500   3.101  0.0747  0.2152 -0.1965
14217TIP3    H164066   6.622   0.494   3.011 -0.0569 -0.0686 -0.2274
14217TIP3    H264067   6.498   0.472   3.095  0.2642 -0.5155  0.1378
14218TIP3   OH264068   0.616   1.975  12.696 -0.2141  0.1125 -0.3301
14218TIP3    H164069   0.592   1.899  12.643  1.2050 -0.5531 -0.0775
14218TIP3    H264070   0.549   2.041  12.677 -0.9475 -0.8800 -1.2579
14219TIP3   OH264071   0.807   4.281  13.321  0.3430 -0.6285  0.8399
14219TIP3    H164072   0.782   4.212  13.382 -0.7518 -1.0380 -0.0354
14219TIP3    H264073   0.805   4.239  13.235 -0.2008  0.4461  0.3032
14220TIP3   OH264074   1.733   5.297   2.670 -0.0161 -0.7534  0.0895
14220TIP3    H164075   1.810   5.253   2.705 -0.8434 -1.4545  1.0790
14220TIP3    H264076   1.720   5.258   2.584  0.5819 -0.8079  0.0195
14221TIP3   OH264077   4.615   5.098   2.835  0.8799  0.2018 -0.1190
14221TIP3    H164078   4.543   5.138   2.884  1.6464 -0.4818  1.6365
14221TIP3    H264079   4.671   5.172   2.810  0.4595  0.5636  0.0019
14222TIP3   OH264080   0.484   6.493   2.258  0.5581  0.6714 -0.2135
14222TIP3    H164081   0.389   6.505   2.246  0.6207  0.2708 -1.3016
14222TIP3    H264082   0.519   6.498   2.169  1.3692 -0.7039  0.0016
14223TIP3   OH264083   1.936   4.916  11.518  0.5017 -0.2749  0.3325
14223TIP3    H164084   1.964   4.955  11.601 -0.2892 -0.2115  0.5713
14223TIP3    H264085   1.862   4.969  11.490  0.2075 -0.8426  0.0265
14224TIP3   OH264086   6.656   6.767  10.820  0.2816 -0.6877  0.2029
14224TIP3    H164087   6.697   6.794  10.738  1.5004  1.2464  1.3802
14224TIP3    H264088   6.729   6.736  10.874 -0.2887 -0.5372  1.0794
14225TIP3   OH264089   1.851   4.452  14.750 -0.4914 -0.2694  0.0166
14225TIP3    H164090   1.940   4.422  14.770 -0.5693 -0.3599  0.2369
14225TIP3    H264091   1.833   4.518  14.817 -1.5554 -2.0894  1.6277
14226TIP3   OH264092   2.163   3.667   5.434  0.6991 -0.5297  0.2605
14226TIP3    H164093   2.176   3.655   5.340  1.7940  2.3945 -0.0646
14226TIP3    H264094   2.252   3.672   5.470  0.3164  0.0357  1.1793
14227TIP3   OH264095   0.473   1.609  12.658  0.3792 -0.0992 -0.1335
14227TIP3    H164096   0.404   1.559  12.615 -0.9659  1.1606  0.4857
14227TIP3    H264097   0.552   1.554  12.649 -1.2920 -3.1078  1.8489
14228TIP3   OH264098   2.318   3.917   0.363 -0.0828  0.0186  0.0349
14228TIP3    H164099   2.379   3.987   0.385  0.8195 -0.9837  0.8372
14228TIP3    H264100   2.301   3.873   0.446 -3.2536  1.2665  0.1798
14229TIP3   OH264101   6.262   2.417  10.926 -0.0487 -0.1768  0.0173
14229TIP3    H164102   6.351   2.384  10.914 -0.3489 -0.6487 -1.0409
14229TIP3    H264103   6.225   2.363  10.995 -0.2878 -1.6204 -1.1895
14230TIP3   OH264104   3.458   3.369  11.636 -0.0386  0.0168 -0.0947
14230TIP3    H164105   3.364   3.384  11.652  0.0293 -0.4115  0.7932
14230TIP3    H264106   3.501   3.407  11.712  0.5865  0.9900 -0.9228
14231TIP3   OH264107   1.716   2.129  13.064  0.2115 -0.0418 -0.0982
14231TIP3    H164108   1.657   2.162  12.996 -0.0847 -0.7757 -0.2153
14231TIP3    H264109   1.676   2.046  13.092  0.6718 -0.0662  0.5173
14232TIP3   OH264110   1.249   2.084  15.026  0.3197 -0.1614 -0.2460
14232TIP3    H164111   1.165   2.121  15.055  1.1936  0.8210  1.1335
14232TIP3    H264112   1.251   2.101  14.932 -2.4433 -3.1068 -1.0511
14233TIP3   OH264113   4.572   5.113   6.039  0.7478 -0.0298 -0.5657
14233TIP3    H164114   4.621   5.137   5.960 -1.2107  1.2520 -1.4596
14233TIP3    H264115   4.554   5.196   6.083 -2.0983 -0.2239 -1.2210
14234TIP3   OH264116   0.769   4.532   3.261  0.3413 -0.0995 -0.0385
14234TIP3    H164117   0.766   4.525   3.166  0.4540 -1.3046  0.0303
14234TIP3    H264118   0.690   4.488   3.291  1.3967 -1.7540  0.4777
14235TIP3   OH264119   6.097   3.640  14.199 -0.0297 -0.1284  0.5632
14235TIP3    H164120   6.173   3.608  14.149 -2.1683 -0.9641 -2.4485
14235TIP3    H264121   6.065   3.563  14.246 -0.5527 -0.4733 -0.3372
14236TIP3   OH264122   0.909   0.188   4.367  0.5550  0.1097  0.5242
14236TIP3    H164123   0.864   0.237   4.299 -1.0256  1.2639  2.2882
14236TIP3    H264124   0.891   0.096   4.347 -0.4540  0.4557 -0.2260
14237TIP3   OH264125   1.545   4.570   4.411  0.2277 -0.2637  0.4764
14237TIP3    H164126   1.597   4.651   4.415  1.1074 -0.7984  0.2734
14237TIP3    H264127   1.465   4.590   4.459  0.5644  0.6346  0.6836
14238TIP3   OH264128   3.328   4.654   3.566 -0.2175  0.0534  0.3718
14238TIP3    H164129   3.253   4.595   3.570 -0.4339  0.3669  1.0543
14238TIP3    H264130   3.302   4.721   3.503  1.2317 -2.1815 -2.9148
14239TIP3   OH264131   3.665   5.298  12.068 -0.1170  0.0063 -0.3621
14239TIP3    H164132   3.681   5.272  12.158  1.1811 -0.6258 -0.7457
14239TIP3    H264133   3.571   5.312  12.063 -0.3564 -1.0200  0.8133
14240TIP3   OH264134   4.038   2.051  12.709 -0.2129 -0.3896 -0.0606
14240TIP3    H164135   4.038   2.003  12.791  2.6685  2.3078  1.7448
14240TIP3    H264136   3.963   2.110  12.715 -0.9328 -1.2717 -0.1489
14241TIP3   OH264137   3.452   2.611   5.151 -0.0400 -0.2071  0.4675
14241TIP3    H164138   3.456   2.577   5.241 -0.0570  1.2384  1.0403
14241TIP3    H264139   3.543   2.636   5.131  0.5419 -3.0418 -0.9963
14242TIP3   OH264140   3.915   3.211  11.074  0.0011  0.3713 -0.0221
14242TIP3    H164141   3.913   3.122  11.037  0.2037  0.4983 -0.3476
14242TIP3    H264142   3.827   3.225  11.109 -0.7451  0.8906 -1.9959
14243TIP3   OH264143   1.563   3.218   0.100 -0.0106  0.1308  0.4896
14243TIP3    H164144   1.469   3.202   0.091 -0.3470  0.8789  2.1667
14243TIP3    H264145   1.569   3.313   0.116  1.0327  0.1146  0.2505
14244TIP3   OH264146   4.020   2.935  11.037 -0.6613 -0.4683  0.1875
14244TIP3    H164147   3.995   2.843  11.043  1.4193 -0.9678  2.2562
14244TIP3    H264148   4.096   2.935  10.979  0.6885 -0.4241  1.8803
14245TIP3   OH264149   5.130   1.770   4.371  0.5827 -0.3615 -0.0899
14245TIP3    H164150   5.049   1.785   4.420  0.9197 -2.3957  1.2301
14245TIP3    H264151   5.190   1.837   4.403 -0.3767  0.7774 -0.6279
14246TIP3   OH264152   5.889   1.617   5.266  0.0702  0.3262  0.0739
14246TIP3    H164153   5.946   1.650   5.197  0.1038  0.6119  0.2368
14246TIP3    H264154   5.804   1.607   5.224  0.0116  0.8133  0.0696
14247TIP3   OH264155   0.314   5.445   1.720  0.0098 -0.5478 -0.8886
14247TIP3    H164156   0.362   5.488   1.650  0.1856  0.9289  0.0827
14247TIP3    H264157   0.225   5.480   1.713 -0.1134 -0.8225 -0.7142
14248TIP3   OH264158   5.896   0.897   3.807  0.2127 -0.2263  0.3069
14248TIP3    H164159   5.841   0.953   3.861  2.0559 -1.2898  3.5491
14248TIP3    H264160   5.976   0.948   3.792  0.4061 -0.5907  0.0701
14249TIP3   OH264161   5.514   3.909   4.113 -0.7863 -0.0451 -0.1605
14249TIP3    H164162   5.443   3.924   4.051 -1.3809 -0.8274  0.3191
14249TIP3    H264163   5.491   3.828   4.158 -0.6235  0.7339  1.4205
14250TIP3   OH264164   5.766   4.206  11.712  0.2261  0.2798 -0.0991
14250TIP3    H164165   5.783   4.112  11.701 -0.2826  0.1225  0.4281
14250TIP3    H264166   5.853   4.245  11.716  0.4742 -0.3286  0.9699
14251TIP3   OH264167   0.261   6.279  13.336 -0.1773  0.5645  0.1976
14251TIP3    H164168   0.339   6.333  13.352  1.0482 -1.2696  0.8008
14251TIP3    H264169   0.288   6.191  13.362 -0.8427 -1.1243 -4.0008
14252TIP3   OH264170   0.124   5.599   2.631 -0.2165  0.3551 -0.0467
14252TIP3    H164171   0.068   5.669   2.664  0.7984  0.8896  0.5807
14252TIP3    H264172   0.198   5.645   2.591  0.4381 -0.3478  0.3369
14253TIP3   OH264173   1.853   6.576  15.212  0.7994  0.1492  0.5997
14253TIP3    H164174   1.815   6.588  15.125 -1.6106  0.0338  1.5402
14253TIP3    H264175   1.882   6.663  15.238 -0.7366  0.6808  0.6202
14254TIP3   OH264176   6.206   1.634  15.783  0.3632  0.8844  0.3594
14254TIP3    H164177   6.129   1.654  15.729 -0.2512  0.1433  0.9294
14254TIP3    H264178   6.280   1.644  15.724 -0.2428  0.7480 -0.4518
14255TIP3   OH264179   4.409   2.137   2.068 -1.4528  0.5453 -0.3163
14255TIP3    H164180   4.425   2.226   2.037  0.2659  0.4434  0.2031
14255TIP3    H264181   4.453   2.081   2.003 -1.0560  0.1696  0.2647
14256TIP3   OH264182   2.781   3.811  12.802 -0.2308  0.5386 -0.6862
14256TIP3    H164183   2.836   3.746  12.758  0.5934  1.0081 -0.3734
14256TIP3    H264184   2.824   3.895  12.784  0.1982  0.7347  1.1048
14257TIP3   OH264185   4.411   2.890  15.212  0.1513 -0.5494  0.3013
14257TIP3    H164186   4.318   2.892  15.231  0.4082  0.3265  1.5568
14257TIP3    H264187   4.425   2.964  15.152  0.6032  1.8445  3.1403
14258TIP3   OH264188   2.455   2.955   4.990  0.4367  0.5119 -0.5079
14258TIP3    H164189   2.365   2.984   4.982 -0.8728 -2.8854  0.2671
14258TIP3    H264190   2.477   2.969   5.083 -0.3724 -1.1861 -0.0121
14259TIP3   OH264191   0.592   0.725   3.820 -0.4678 -0.1862 -0.1004
14259TIP3    H164192   0.551   0.809   3.837  0.5066  0.0376  1.3414
14259TIP3    H264193   0.686   0.745   3.813 -0.2518 -1.1097  0.0389
14260TIP3   OH264194   4.009   6.778  16.051  0.0034 -0.3705  0.8768
14260TIP3    H164195   3.986   6.690  16.080 -1.7562  0.1031  1.0197
14260TIP3    H264196   4.014   6.771  15.956  2.6499 -1.2036  0.9858
14261TIP3   OH264197   1.831   5.782  16.238 -0.0616  0.0227  0.6924
14261TIP3    H164198   1.865   5.772  16.149  0.3546 -0.2977  0.8812
14261TIP3    H264199   1.820   5.692  16.269 -2.7679  0.0382  0.0299
14262TIP3   OH264200   5.224   0.940  16.699 -0.6604  0.0810 -0.2368
14262TIP3    H164201   5.196   1.027  16.669 -0.6135  0.0921 -0.2487
14262TIP3    H264202   5.220   0.886  16.620 -2.1688 -0.3045  0.0635
14263TIP3   OH264203   5.048   3.988   2.908  0.2419 -0.5705 -0.2790
14263TIP3    H164204   5.063   4.061   2.968 -0.8706  0.3097 -1.0230
14263TIP3    H264205   4.985   4.022   2.844 -1.9857 -2.8313  0.5430
14264TIP3   OH264206   5.048   5.349   1.769  0.2757  0.0665  0.4873
14264TIP3    H164207   4.994   5.414   1.722 -0.4289  0.0929  1.2980
14264TIP3    H264208   5.102   5.402   1.828  1.3551  0.0517 -0.4658
14265TIP3   OH264209   5.711   0.386   0.365 -0.0935  0.1257  0.1543
14265TIP3    H164210   5.710   0.442   0.287  0.6008  0.7533  0.5876
14265TIP3    H264211   5.626   0.342   0.363 -0.1959  0.3370 -0.8060
14266TIP3   OH264212   4.976   6.509   5.558  0.2291 -0.1768  0.7866
14266TIP3    H164213   4.980   6.494   5.463  2.8125  1.9262  0.4586
14266TIP3    H264214   4.908   6.576   5.568 -1.3653 -1.7002  0.7134
14267TIP3   OH264215   2.761   5.122  14.736 -0.2709 -0.0166 -0.5030
14267TIP3    H164216   2.800   5.035  14.748 -0.5671 -0.0016  0.6841
14267TIP3    H264217   2.733   5.123  14.644  0.0834 -1.0232 -0.6409
14268TIP3   OH264218   0.455   4.214   0.660  0.2573  0.3239 -0.0267
14268TIP3    H164219   0.510   4.138   0.641 -0.2913  0.2561 -1.5393
14268TIP3    H264220   0.374   4.197   0.611 -0.8311  0.7576  1.5526
14269TIP3   OH264221   1.523   0.500   4.015 -0.0848 -0.2113  0.1481
14269TIP3    H164222   1.533   0.508   4.110  0.5091  0.7597  0.0283
14269TIP3    H264223   1.448   0.556   3.994  0.0343 -0.1025  0.0057
14270TIP3   OH264224   5.127   2.560  12.715 -0.2477 -0.3601  0.1155
14270TIP3    H164225   5.215   2.534  12.740  0.0979 -0.8184 -1.4302
14270TIP3    H264226   5.088   2.594  12.795  1.9437  1.6047  0.4590
14271TIP3   OH264227   0.711   6.154  14.174  0.4309 -0.6197 -0.6010
14271TIP3    H164228   0.763   6.233  14.187  2.4781 -1.5989 -2.2628
14271TIP3    H264229   0.631   6.170  14.224  1.4744  1.7785  0.4766
14272TIP3   OH264230   2.796   6.330  14.855  0.1264  0.6189 -0.3583
14272TIP3    H164231   2.832   6.272  14.788  0.2427  0.4233 -0.1256
14272TIP3    H264232   2.790   6.416  14.812 -0.6988  0.2866 -0.9245
14273TIP3   OH264233   3.242   1.875   1.927 -0.1883 -0.0740  0.2556
14273TIP3    H164234   3.202   1.813   1.988 -0.2793 -1.2050 -0.9084
14273TIP3    H264235   3.176   1.945   1.917  0.5875  1.1618  2.8675
14274TIP3   OH264236   5.695   1.750   1.790 -1.0163  0.1532  0.2406
14274TIP3    H164237   5.747   1.693   1.733 -2.0201  0.4497 -1.0122
14274TIP3    H264238   5.633   1.691   1.833 -1.0666  0.0912  0.0832
14275TIP3   OH264239   4.849   5.269   0.406 -0.8433 -0.1725 -0.0766
14275TIP3    H164240   4.918   5.297   0.347 -0.1447  0.2876  0.9259
14275TIP3    H264241   4.884   5.189   0.447 -2.0570 -1.5406 -1.5532
14276TIP3   OH264242   2.698   3.517   4.679  0.0117 -0.3665 -0.1126
14276TIP3    H164243   2.621   3.473   4.713 -0.0454 -0.6396 -0.5737
14276TIP3    H264244   2.740   3.451   4.623 -0.9430  0.6449 -2.1304
14277TIP3   OH264245   1.489   0.093   4.341 -0.2568 -0.2266 -0.0582
14277TIP3    H164246   1.536   0.011   4.325 -0.7887 -0.6481  0.4794
14277TIP3    H264247   1.557   0.155   4.368  0.1082 -0.5854 -0.1460
14278TIP3   OH264248   4.133   3.276   0.834 -0.3606  0.1594  0.3760
14278TIP3    H164249   4.132   3.332   0.757  0.7159 -1.2768 -0.7388
14278TIP3    H264250   4.045   3.283   0.871 -1.0083  0.5916 -1.1937
14279TIP3   OH264251   1.939   2.257  17.010 -0.0889  0.5819 -0.0501
14279TIP3    H164252   1.937   2.176  17.061  2.7353 -0.0552 -0.7284
14279TIP3    H264253   1.865   2.309  17.042 -0.8066 -1.4344  1.7849
14280TIP3   OH264254   5.475   2.195   4.884 -0.1977  0.3504  0.2036
14280TIP3    H164255   5.461   2.178   4.977 -1.0658  0.2790  0.0626
14280TIP3    H264256   5.388   2.208   4.848  0.1436  0.5491 -0.5730
14281TIP3   OH264257   4.513   4.723   6.626 -0.4678 -0.2321 -0.0443
14281TIP3    H164258   4.442   4.741   6.564 -1.0914  0.1159  0.7481
14281TIP3    H264259   4.553   4.809   6.642 -0.2501 -0.3348 -0.0390
14282TIP3   OH264260   1.386   1.028   0.078 -0.4216 -0.0979 -0.5920
14282TIP3    H164261   1.337   1.100   0.039 -0.2364  0.4037  0.0899
14282TIP3    H264262   1.477   1.057   0.077 -0.1369 -0.9716 -1.7355
14283TIP3   OH264263   1.578   2.039  14.338 -0.1770 -0.2865 -0.4814
14283TIP3    H164264   1.633   1.999  14.405  0.6765  1.4895 -0.0618
14283TIP3    H264265   1.616   2.010  14.255 -0.2144 -1.1380 -0.2150
14284TIP3   OH264266   2.122   2.307  11.764  0.3525 -0.2105 -0.2103
14284TIP3    H164267   2.098   2.289  11.855  1.2680  0.3581  0.1727
14284TIP3    H264268   2.109   2.225  11.718 -2.4423  0.1050 -0.1085
14285TIP3   OH264269   3.869   6.029  10.685 -0.0559  0.1020  0.4262
14285TIP3    H164270   3.944   5.988  10.642  0.6609  1.0008  0.7801
14285TIP3    H264271   3.906   6.105  10.730 -1.3229  1.0668 -0.1130
14286TIP3   OH264272   5.555   2.870   2.195  0.1126 -0.5586  0.2027
14286TIP3    H164273   5.485   2.933   2.211  1.5697  1.2255 -0.1658
14286TIP3    H264274   5.630   2.905   2.242  0.4786 -3.1703  1.8196
14287TIP3   OH264275   4.498   2.658   3.348 -0.3959 -0.3671 -0.3507
14287TIP3    H164276   4.447   2.587   3.310  0.4649 -0.9634 -0.4027
14287TIP3    H264277   4.548   2.694   3.275 -0.9027  0.3730 -0.3483
14288TIP3   OH264278   4.427   2.454  13.334  0.0546  0.0190  0.2591
14288TIP3    H164279   4.484   2.504  13.275 -0.6343  1.5260  0.8229
14288TIP3    H264280   4.344   2.501  13.333 -1.2165 -2.0642 -0.4505
14289TIP3   OH264281   4.559   6.178   5.211 -0.3491  1.1196  0.5613
14289TIP3    H164282   4.498   6.114   5.247  1.2313 -0.9832 -0.2550
14289TIP3    H264283   4.504   6.249   5.177 -2.2796 -0.3864  0.4112
14290TIP3   OH264284   3.974   2.968   1.558  0.0940  0.1324  0.5427
14290TIP3    H164285   3.933   2.949   1.642 -1.7889  0.4566 -0.2477
14290TIP3    H264286   4.049   3.024   1.580  0.5860 -1.0749  2.1070
14291TIP3   OH264287   6.450   4.481   4.364 -0.8056 -0.2505 -0.1638
14291TIP3    H164288   6.420   4.441   4.446 -1.5361 -0.7963 -0.6812
14291TIP3    H264289   6.539   4.449   4.354 -0.9049 -0.6387  0.1334
14292TIP3   OH264290   0.793   5.374  12.248  0.1378 -0.0018 -0.6040
14292TIP3    H164291   0.731   5.435  12.208 -1.3692 -0.3236  1.1173
14292TIP3    H264292   0.872   5.427  12.262 -0.6953  1.2251 -0.3082
14293TIP3   OH264293   2.162   6.352   2.696 -0.0842 -0.2562 -0.5509
14293TIP3    H164294   2.125   6.439   2.708  0.3581 -0.1992  0.5242
14293TIP3    H264295   2.194   6.327   2.783  2.4536 -0.2813 -1.3971
14294TIP3   OH264296   0.811   2.066   1.019  0.1510  0.5861  0.5490
14294TIP3    H164297   0.860   2.147   1.006  1.2109 -0.2649 -1.0269
14294TIP3    H264298   0.871   1.997   0.992 -1.0736 -0.6703  0.9312
14295TIP3   OH264299   6.259   2.750   1.503 -0.1813  0.0803  0.1703
14295TIP3    H164300   6.298   2.679   1.554  0.4352  1.8354  2.2855
14295TIP3    H264301   6.333   2.804   1.477 -0.7411  0.6025 -0.3585
14296TIP3   OH264302   6.108   0.932  10.516  0.0012  0.3104  0.3065
14296TIP3    H164303   6.177   0.983  10.559 -0.1930  1.5179 -0.7736
14296TIP3    H264304   6.129   0.841  10.537  1.6543  0.6903  0.4101
14297TIP3   OH264305   5.670   2.689  14.439 -0.5576  0.3929 -0.0121
14297TIP3    H164306   5.758   2.657  14.423 -0.2000  0.7399  1.1765
14297TIP3    H264307   5.675   2.783  14.419 -0.5816  0.4679  0.3340
14298TIP3   OH264308   1.430   3.011  12.005  0.1037 -0.1356 -0.2178
14298TIP3    H164309   1.503   3.062  12.042  0.0182  0.3632 -0.7305
14298TIP3    H264310   1.425   3.039  11.914 -0.5506 -0.3828 -0.2589
14299TIP3   OH264311   3.025   1.255  12.203 -0.2131 -0.4981  0.1169
14299TIP3    H164312   2.949   1.277  12.149  0.0258 -0.3849 -0.1765
14299TIP3    H264313   3.099   1.297  12.158  0.2571 -1.8741 -0.4501
14300TIP3   OH264314   5.552   1.190  14.032  0.1152 -0.0163 -0.2857
14300TIP3    H164315   5.533   1.193  13.938  0.4707  2.7330 -0.3623
14300TIP3    H264316   5.622   1.125  14.041 -0.9483 -1.4130 -1.6784
14301TIP3   OH264317   0.021   3.636  13.670  0.5198  0.3694  0.1179
14301TIP3    H164318  -0.058   3.667  13.714  0.4106 -1.6591  1.5063
14301TIP3    H264319  -0.012   3.587  13.594  0.5881  1.6673 -0.7678
14302TIP3   OH264320   3.105   1.923   0.161  0.0337 -0.1604  0.4222
14302TIP3    H164321   3.085   1.945   0.252 -1.4643  0.5793 -0.0635
14302TIP3    H264322   3.030   1.872   0.132  0.1640  0.2276 -0.6221
14303TIP3   OH264323   0.538   5.988   6.439 -1.1408 -0.3192  0.5599
14303TIP3    H164324   0.463   5.932   6.460 -0.8618 -1.6378 -1.6433
14303TIP3    H264325   0.598   5.930   6.392 -0.7630  1.7689 -1.6925
14304TIP3   OH264326   2.826   6.307  14.162 -0.0756  0.1396 -0.1267
14304TIP3    H164327   2.742   6.340  14.129  0.6493  0.9403 -1.2573
14304TIP3    H264328   2.823   6.323  14.256 -1.8432 -1.3553  0.1148
14305TIP3   OH264329   6.131   3.490  12.593 -0.3340 -0.3642 -0.1540
14305TIP3    H164330   6.135   3.531  12.679 -0.4899 -0.1714 -0.2360
14305TIP3    H264331   6.212   3.440  12.586  0.8645  1.5781 -0.8590
14306TIP3   OH264332   1.217   6.745   1.251  0.3265 -0.2714  0.2358
14306TIP3    H164333   1.216   6.837   1.278 -0.5940 -0.6695  1.6841
14306TIP3    H264334   1.310   6.723   1.244  0.5570  0.8003 -0.3061
14307TIP3   OH264335   1.355   6.028   5.893 -0.6695 -0.3815  0.2392
14307TIP3    H164336   1.294   6.063   5.828 -0.4361 -1.7359 -0.7550
14307TIP3    H264337   1.328   5.937   5.905 -0.7398 -0.1529  2.1205
14308TIP3   OH264338   6.421   4.451  16.180  0.2739 -0.0864 -0.5592
14308TIP3    H164339   6.450   4.532  16.224  0.9343 -0.5217 -0.1692
14308TIP3    H264340   6.326   4.459  16.176 -0.1114 -0.9626  2.9622
14309TIP3   OH264341   2.382   3.526  16.015 -0.6354 -0.6783  0.3397
14309TIP3    H164342   2.355   3.610  15.978 -0.6062  1.2780  4.1670
14309TIP3    H264343   2.463   3.504  15.968 -0.2851  1.8062 -0.3843
14310TIP3   OH264344   0.126   5.134  15.600  0.5302 -0.1461 -0.1800
14310TIP3    H164345   0.091   5.220  15.575  0.7407 -0.3935 -1.4154
14310TIP3    H264346   0.216   5.151  15.626  0.2940  0.1322  0.4554
14311TIP3   OH264347   1.537   2.374   4.483  0.4181  0.7758  0.2553
14311TIP3    H164348   1.511   2.281   4.482 -1.3523  1.2338 -1.0417
14311TIP3    H264349   1.616   2.377   4.429 -1.1919  0.3766 -2.3276
14312TIP3   OH264350   0.148   4.118   2.022 -0.1084 -0.1435  0.4613
14312TIP3    H164351   0.145   4.179   2.097 -1.2684 -0.8371  1.0151
14312TIP3    H264352   0.125   4.172   1.947  0.5507  0.4588  0.6819
14313TIP3   OH264353   2.136   6.706  11.971  0.0617  0.2668  0.5090
14313TIP3    H164354   2.049   6.731  12.003  0.7112  2.6537  0.6333
14313TIP3    H264355   2.138   6.737  11.880 -0.6617 -3.6877 -1.0410
14314TIP3   OH264356   5.380   5.623   6.932  0.3177  0.0262  0.3422
14314TIP3    H164357   5.321   5.697   6.916  1.1901  0.4103 -1.4473
14314TIP3    H264358   5.324   5.546   6.925 -0.1736  0.4248 -0.3319
14315TIP3   OH264359   1.461   1.921   0.883  0.5686 -0.5861  0.0800
14315TIP3    H164360   1.472   1.863   0.807 -1.7338  1.9820 -2.4911
14315TIP3    H264361   1.534   1.982   0.877  0.6114 -0.6284  0.1757
14316TIP3   OH264362   0.783   4.412   3.596  0.4953  0.1087 -0.3783
14316TIP3    H164363   0.737   4.458   3.526 -0.1405 -0.3470 -0.2713
14316TIP3    H264364   0.781   4.320   3.568  1.8128  0.1454 -0.6326
14317TIP3   OH264365   1.510   5.904   4.164 -0.2822  0.0017  0.1545
14317TIP3    H164366   1.470   5.849   4.231 -2.9824 -0.8733 -2.0111
14317TIP3    H264367   1.590   5.859   4.139  0.7260  0.2887  2.5915
14318TIP3   OH264368   3.410   1.384  16.544 -0.4410  0.4411 -0.0525
14318TIP3    H164369   3.353   1.314  16.511  1.2761 -1.7951  1.4057
14318TIP3    H264370   3.421   1.364  16.637  2.1582  1.1322 -0.1299
14319TIP3   OH264371   0.488   4.985  16.007  0.1733 -0.6931 -0.0873
14319TIP3    H164372   0.514   5.076  16.012 -0.2804 -0.2619 -3.1919
14319TIP3    H264373   0.570   4.936  16.014  0.3558 -0.1424  2.1609
14320TIP3   OH264374   2.453   1.205   4.829 -0.2656  0.4847  0.2524
14320TIP3    H164375   2.518   1.221   4.760 -0.0470 -1.2629  0.0019
14320TIP3    H264376   2.494   1.239   4.908  0.9798 -0.5739  0.0906
14321TIP3   OH264377   6.751   5.792   1.985 -0.2106  0.1166  0.5261
14321TIP3    H164378   6.656   5.785   1.975 -0.1147 -1.7664  0.6513
14321TIP3    H264379   6.770   5.752   2.069  0.6012  1.6519  1.1149
14322TIP3   OH264380   0.694   0.472  14.379 -0.1740  0.1608  0.1341
14322TIP3    H164381   0.669   0.388  14.418  2.0926 -0.7088 -0.1432
14322TIP3    H264382   0.652   0.472  14.293 -0.2853 -0.6329  0.1849
14323TIP3   OH264383   3.658   5.693   2.354  0.4524 -0.2797  0.2435
14323TIP3    H164384   3.692   5.656   2.272  1.1308  0.4281  0.1973
14323TIP3    H264385   3.573   5.728   2.330  1.8536  2.5974 -0.9300
14324TIP3   OH264386   2.440   4.081  10.537  0.2109  0.0363  0.0721
14324TIP3    H164387   2.490   4.162  10.548  0.8876 -0.1468 -1.4066
14324TIP3    H264388   2.360   4.096  10.588  1.1239  0.8890  1.3325
14325TIP3   OH264389   5.755   5.232  14.890 -0.4991 -0.5695 -0.2083
14325TIP3    H164390   5.672   5.218  14.936  0.1595  0.2809  1.3246
14325TIP3    H264391   5.768   5.327  14.894 -0.2913 -0.4887 -2.0095
14326TIP3   OH264392   2.933   3.306   4.914 -0.2084 -0.2212 -0.2218
14326TIP3    H164393   2.922   3.300   5.009  0.4482 -1.4454 -0.2001
14326TIP3    H264394   2.959   3.397   4.899  1.2514 -0.3869  0.9772
14327TIP3   OH264395   2.091   4.853  14.526 -0.1607  0.4500  0.2293
14327TIP3    H164396   2.115   4.911  14.453  4.1147  1.1182  1.8481
14327TIP3    H264397   2.101   4.765  14.491 -2.9466  0.5862 -1.1882
14328TIP3   OH264398   2.395   5.559  12.848 -0.5549 -0.0687 -0.1311
14328TIP3    H164399   2.479   5.513  12.845  0.7318  1.8595  2.4777
14328TIP3    H264400   2.387   5.601  12.762  1.3909  0.0617 -0.2918
14329TIP3   OH264401   1.870   1.267  16.008  0.5723  0.6275  0.0481
14329TIP3    H164402   1.833   1.195  16.059 -1.4771 -0.8771 -3.2343
14329TIP3    H264403   1.822   1.345  16.037 -1.0907 -0.3211 -0.0421
14330TIP3   OH264404   4.226   4.763   1.059  0.1845 -0.4073 -0.2661
14330TIP3    H164405   4.284   4.712   1.002  0.7940 -0.3205  0.2622
14330TIP3    H264406   4.203   4.840   1.007  0.2032 -0.6443 -0.6327
14331TIP3   OH264407   5.131   6.622   4.294  0.0407  0.2980  0.6041
14331TIP3    H164408   5.125   6.693   4.358 -1.3097  0.8660 -0.0899
14331TIP3    H264409   5.049   6.628   4.244  0.8651 -0.3473 -0.9192
14332TIP3   OH264410   5.143   1.755  16.079  0.1507  0.1364  0.1707
14332TIP3    H164411   5.174   1.846  16.080  1.3733 -0.2728  0.8310
14332TIP3    H264412   5.123   1.736  16.171 -0.6782 -0.0899 -0.0474
14333TIP3   OH264413   6.048   2.828  16.847 -0.1833  0.3201 -0.1549
14333TIP3    H164414   6.137   2.793  16.837  0.4236  1.0177  2.1256
14333TIP3    H264415   6.002   2.764  16.901 -0.3779  0.9782  0.4785
14334TIP3   OH264416   4.878   0.517   5.464 -0.4181 -0.1027 -0.1699
14334TIP3    H164417   4.851   0.527   5.373 -0.0220  0.3985 -0.2360
14334TIP3    H264418   4.853   0.428   5.487 -0.9036 -0.0906 -0.6390
14335TIP3   OH264419   5.832   2.736   5.689  0.1502 -0.3860  0.7094
14335TIP3    H164420   5.805   2.759   5.778 -0.4935 -0.2028  0.4734
14335TIP3    H264421   5.920   2.701   5.699  0.0154 -0.5357  1.4419
14336TIP3   OH264422   1.493   6.773   4.717  0.3878  0.4359 -0.8424
14336TIP3    H164423   1.470   6.866   4.728  3.2491  0.9438  3.0132
14336TIP3    H264424   1.571   6.774   4.662  1.3668  0.5772  0.4935
14337TIP3   OH264425   0.102   0.942  11.547 -0.4645 -0.3766  0.2777
14337TIP3    H164426   0.051   0.895  11.480  1.1883  0.6666 -1.8209
14337TIP3    H264427   0.192   0.939  11.515  0.1324  1.6356  1.6012
14338TIP3   OH264428   6.046   2.430   3.240  0.7965  0.3756  0.0347
14338TIP3    H164429   6.076   2.484   3.166 -1.4226 -1.8601 -2.7585
14338TIP3    H264430   5.960   2.465   3.261  1.2035  0.6639  1.2695
14339TIP3   OH264431   5.987   5.684  17.132  0.2411 -0.0297 -0.1316
14339TIP3    H164432   5.944   5.650  17.054 -1.6904  0.1357  0.7951
14339TIP3    H264433   6.013   5.606  17.181  0.5958 -0.1310 -0.4742
14340TIP3   OH264434   0.892   0.082   0.257  0.3511 -0.0828  0.1350
14340TIP3    H164435   0.933   0.019   0.316  0.2576  0.8932  1.2750
14340TIP3    H264436   0.902   0.044   0.170  2.0106 -0.7474  0.5928
14341TIP3   OH264437   3.142   6.289   5.609  0.2070  0.1769  0.0743
14341TIP3    H164438   3.150   6.195   5.627  1.2309 -0.5036 -3.1700
14341TIP3    H264439   3.178   6.332   5.687  1.0187 -2.1523  1.0756
14342TIP3   OH264440   3.600   0.800   5.134 -0.6024  0.2765 -0.0378
14342TIP3    H164441   3.560   0.759   5.058 -2.0406  2.7449 -0.7503
14342TIP3    H264442   3.614   0.891   5.107  4.4397 -0.0163  0.6129
14343TIP3   OH264443   1.446   1.890  16.074 -0.1154  0.1168  0.2103
14343TIP3    H164444   1.413   1.812  16.119 -0.4959  0.7932  1.1505
14343TIP3    H264445   1.390   1.961  16.107  1.9265  1.2284  1.4558
14344TIP3   OH264446   4.763   0.622   1.817  0.1922  0.0787 -0.1050
14344TIP3    H164447   4.824   0.659   1.753 -0.4664  1.6341  0.1309
14344TIP3    H264448   4.808   0.544   1.850  1.3088  0.2449 -1.1679
14345TIP3   OH264449   4.879   0.595  15.375 -0.0011  0.4560  0.0636
14345TIP3    H164450   4.832   0.649  15.439 -0.4742 -0.2399  0.3052
14345TIP3    H264451   4.913   0.522  15.425 -0.8364 -0.3878 -0.5639
14346TIP3   OH264452   5.360   2.988   0.249  0.3590  0.4586  0.5951
14346TIP3    H164453   5.354   2.926   0.322  1.1952  0.4445  0.6684
14346TIP3    H264454   5.390   2.934   0.175  0.4722  0.6571  0.4962
14347TIP3   OH264455   1.949   0.389  17.155 -0.2516 -0.0584  0.5454
14347TIP3    H164456   2.026   0.351  17.197 -1.3468 -1.7643  1.1142
14347TIP3    H264457   1.983   0.431  17.076  1.1945 -1.2932  0.4651
14348TIP3   OH264458   3.292   5.548   1.468  0.1672 -0.5470 -0.3502
14348TIP3    H164459   3.250   5.468   1.438 -0.0112 -0.1159 -1.2804
14348TIP3    H264460   3.346   5.576   1.394 -1.0952  1.1130 -0.7066
14349TIP3   OH264461   1.730   0.825  11.254 -0.2511  0.7114  0.0709
14349TIP3    H164462   1.773   0.910  11.269  1.9440 -0.0671 -1.3046
14349TIP3    H264463   1.713   0.824  11.160 -1.4787  0.1532  0.2918
14350TIP3   OH264464   0.914   5.395   5.762  0.1657 -0.2124  0.7720
14350TIP3    H164465   0.903   5.472   5.705  3.0897  0.1211  0.4725
14350TIP3    H264466   0.896   5.320   5.705  3.9311  0.0711 -1.0965
14351TIP3   OH264467   5.781   1.095  13.643 -0.8628 -0.2719  0.1563
14351TIP3    H164468   5.814   1.072  13.730 -0.0285  1.1728  0.2479
14351TIP3    H264469   5.821   1.031  13.584 -1.8702 -1.6207  0.8627
14352TIP3   OH264470   3.532   3.505  10.588 -0.3352  0.6274 -0.0022
14352TIP3    H164471   3.468   3.515  10.658  0.8166 -1.7202  1.4955
14352TIP3    H264472   3.496   3.438  10.530  1.6506 -2.5824  2.1818
14353TIP3   OH264473   5.000   3.736  14.158  0.4922 -0.0945 -0.0863
14353TIP3    H164474   4.950   3.685  14.094 -1.9839 -1.0149  2.3681
14353TIP3    H264475   5.084   3.690  14.165 -0.4774 -1.9699 -0.2689
14354TIP3   OH264476   2.433   0.429   3.423  0.0884  0.2588  0.5945
14354TIP3    H164477   2.343   0.460   3.427 -0.0783 -0.2862  1.3049
14354TIP3    H264478   2.485   0.503   3.454 -0.1548  0.4071  0.6493
14355TIP3   OH264479   5.632   1.491  16.346 -0.5941 -0.0859  0.7375
14355TIP3    H164480   5.599   1.575  16.315 -0.8131 -0.2980  0.3837
14355TIP3    H264481   5.727   1.498  16.339 -0.6731 -0.8341 -1.9133
14356TIP3   OH264482   3.402   2.553  13.430 -0.1570  0.0320 -0.4586
14356TIP3    H164483   3.409   2.569  13.336 -1.6457 -0.2134 -0.6418
14356TIP3    H264484   3.324   2.602  13.457 -0.1128 -0.4118  0.5236
14357TIP3   OH264485   0.675   6.683   3.343  0.5642 -0.3945 -0.1896
14357TIP3    H164486   0.686   6.594   3.377 -0.7539 -0.0794  1.1724
14357TIP3    H264487   0.611   6.674   3.272  1.5359 -0.7168 -1.0472
14358TIP3   OH264488   0.929   2.245   2.279 -0.9020 -0.3436  0.2364
14358TIP3    H164489   0.942   2.337   2.304  0.5265 -0.6922  0.8897
14358TIP3    H264490   0.938   2.197   2.361 -1.5200 -1.0875 -0.1239
14359TIP3   OH264491   3.130   1.728  11.344  0.2079 -0.5649 -0.1287
14359TIP3    H164492   3.092   1.710  11.430 -0.5681  0.3911 -0.2543
14359TIP3    H264493   3.100   1.817  11.323 -0.0855 -0.9954 -1.6221
14360TIP3   OH264494   2.196   4.237  17.184  0.6667  0.0665  0.6937
14360TIP3    H164495   2.187   4.280  17.269 -2.3350 -1.0661  1.0698
14360TIP3    H264496   2.172   4.146  17.200  1.7329 -0.5929 -1.0822
14361TIP3   OH264497   1.725   0.118   5.425  0.5625  0.6553 -0.3288
14361TIP3    H164498   1.775   0.186   5.469  0.1868  1.1700 -0.6815
14361TIP3    H264499   1.668   0.083   5.493  2.7284 -1.3004  0.5872
14362TIP3   OH264500   4.828   4.318  13.886 -0.2824  0.0272 -0.1655
14362TIP3    H164501   4.753   4.295  13.942 -1.2586  0.9907 -1.0358
14362TIP3    H264502   4.788   4.355  13.807  1.0286 -1.9289 -1.8412
14363TIP3   OH264503   2.590   3.942  11.711 -0.0770 -0.5556  0.2622
14363TIP3    H164504   2.505   3.975  11.739 -0.0587 -0.5166  0.2727
14363TIP3    H264505   2.614   3.998  11.637  0.3452  0.0120  0.8185
14364TIP3   OH264506   4.929   1.096  16.318 -0.4659  0.0509  0.4599
14364TIP3    H164507   4.933   1.021  16.378  2.1417  2.7140  4.0209
14364TIP3    H264508   4.862   1.153  16.355 -0.8555  0.5401 -0.9368
14365TIP3   OH264509   4.236   0.237   4.827  0.6161 -0.1385  0.1771
14365TIP3    H164510   4.250   0.170   4.761 -2.1604 -1.0527  0.3813
14365TIP3    H264511   4.259   0.195   4.910  2.3283  0.4174  0.0353
14366TIP3   OH264512   5.413   1.281   2.154 -0.4244 -0.1271 -0.5919
14366TIP3    H164513   5.373   1.196   2.174 -1.8601  0.2701 -1.6041
14366TIP3    H264514   5.399   1.293   2.060 -0.0777  1.1463 -0.4990
14367TIP3   OH264515   0.028   3.229   0.601  0.3731  0.4187  0.1482
14367TIP3    H164516  -0.030   3.300   0.629 -0.3567  0.4567 -1.3274
14367TIP3    H264517   0.076   3.204   0.680  1.4130  3.2243  0.5304
14368TIP3   OH264518   2.744   2.956  15.135 -0.5202  0.1710  0.6926
14368TIP3    H164519   2.692   2.906  15.198  1.0701  1.1488  2.9244
14368TIP3    H264520   2.824   2.905  15.123 -0.2578  0.6210  0.4712
14369TIP3   OH264521   3.905   1.351  14.868  0.4320  0.0239  0.0682
14369TIP3    H164522   3.877   1.261  14.884 -0.3682  0.3984  0.8667
14369TIP3    H264523   3.885   1.397  14.950 -0.4923  1.2390 -0.8055
14370TIP3   OH264524   4.005   1.108   4.638  0.0367 -0.1871  0.8622
14370TIP3    H164525   3.991   1.033   4.579  0.3579  0.4224 -0.0042
14370TIP3    H264526   4.002   1.184   4.581  2.5046  0.3060  1.2709
14371TIP3   OH264527   3.030   4.885  14.619  0.0549 -0.6725  0.0189
14371TIP3    H164528   2.952   4.854  14.667  0.2342 -0.4694  0.4444
14371TIP3    H264529   3.080   4.805  14.601  1.0120 -0.5705  1.9863
14372TIP3   OH264530   6.059   6.206  14.749  0.3520 -0.1054 -0.1932
14372TIP3    H164531   6.137   6.260  14.760  0.2002 -0.1832  1.4589
14372TIP3    H264532   5.986   6.265  14.766  0.0861 -0.3138 -0.5883
14373TIP3   OH264533   3.703   0.317   3.469  0.2371 -0.4396  0.1598
14373TIP3    H164534   3.697   0.244   3.408  0.1866  0.6484 -1.2112
14373TIP3    H264535   3.797   0.338   3.472  0.2098 -0.3255  0.2499
14374TIP3   OH264536   1.490   1.626   5.834 -0.1461 -0.0197 -0.3064
14374TIP3    H164537   1.487   1.562   5.904  0.1186  0.4972  0.1826
14374TIP3    H264538   1.398   1.647   5.817 -0.2974 -1.2683 -1.1764
14375TIP3   OH264539   0.597   2.759  14.764 -0.4375  0.3050 -0.4142
14375TIP3    H164540   0.677   2.812  14.768  0.7007 -1.3157 -0.8690
14375TIP3    H264541   0.621   2.677  14.807 -2.1220  0.0758  0.1356
14376TIP3   OH264542   6.618   3.118  16.924  0.5081  0.5297  0.5583
14376TIP3    H164543   6.589   3.196  16.876  0.8161  1.0281  1.1757
14376TIP3    H264544   6.693   3.148  16.975  0.3890 -0.0852  1.0969
14377TIP3   OH264545   3.162   2.957  12.008  0.1286 -0.2354  0.2590
14377TIP3    H164546   3.136   2.866  12.024 -2.4516  0.4740  0.5112
14377TIP3    H264547   3.142   3.003  12.089  0.6538  0.7383 -0.1393
14378TIP3   OH264548   3.667   4.900  13.014  0.1141 -0.2418  0.1469
14378TIP3    H164549   3.625   4.985  12.997  0.7034  0.0745  0.2329
14378TIP3    H264550   3.716   4.881  12.935 -0.0979 -0.5543  0.0902
14379TIP3   OH264551   1.794   3.722   4.346  0.1008  0.6155  0.0034
14379TIP3    H164552   1.780   3.716   4.441 -0.0012  0.1598 -0.0374
14379TIP3    H264553   1.726   3.782   4.316 -1.2874 -0.9454 -0.0790
14380TIP3   OH264554   3.923   6.356   3.558  0.0975  0.2603  0.3924
14380TIP3    H164555   3.841   6.317   3.527 -0.5459  0.6786  1.5362
14380TIP3    H264556   3.897   6.437   3.602  1.1720  0.6388  0.3673
14381TIP3   OH264557   4.091   1.357   0.766 -0.0082 -0.0462  0.3656
14381TIP3    H164558   4.032   1.372   0.840 -1.6533 -2.9828 -0.2080
14381TIP3    H264559   4.140   1.279   0.789  0.6882 -0.0152 -0.9359
14382TIP3   OH264560   2.390   0.073   4.064 -0.4219  0.4391  0.4846
14382TIP3    H164561   2.370   0.122   3.985 -0.7340 -0.1366  0.1987
14382TIP3    H264562   2.331  -0.003   4.061 -0.3399  0.3414  1.1959
14383TIP3   OH264563   6.731   4.930  10.781 -0.1346 -0.0855 -0.2466
14383TIP3    H164564   6.653   4.975  10.748 -0.9256 -1.5515 -0.4794
14383TIP3    H264565   6.797   4.941  10.713 -0.2101  0.9361 -0.1700
14384TIP3   OH264566   6.319   4.898   2.522  0.2039 -0.7521  0.1882
14384TIP3    H164567   6.379   4.838   2.479  0.0921 -0.4962 -0.3354
14384TIP3    H264568   6.240   4.895   2.469  0.1125 -0.3240  0.2949
14385TIP3   OH264569   1.175   5.337   6.530 -0.4656 -0.1937 -0.5459
14385TIP3    H164570   1.213   5.422   6.505  1.9067  0.1451  3.3836
14385TIP3    H264571   1.203   5.278   6.460  0.9814  1.5655 -1.5713
14386TIP3   OH264572   3.627   3.238  15.562 -0.0704 -0.3880  0.0439
14386TIP3    H164573   3.544   3.282  15.547  0.3516 -0.4303 -3.1400
14386TIP3    H264574   3.644   3.249  15.655 -2.4616  1.6976  0.3357
14387TIP3   OH264575   4.002   6.019   6.732 -0.2859 -0.0753  0.6424
14387TIP3    H164576   3.993   6.030   6.637 -0.6024 -1.5350  0.4730
14387TIP3    H264577   4.025   5.927   6.743  1.3218  0.4345  1.9164
14388TIP3   OH264578   3.702   3.352   5.158  0.5967 -0.1015 -0.0590
14388TIP3    H164579   3.631   3.361   5.095 -0.7125 -2.4917  0.9837
14388TIP3    H264580   3.709   3.439   5.198  0.1773  0.9265 -2.0598
14389TIP3   OH264581   3.780   2.732   0.583  0.0320  0.1594 -0.0674
14389TIP3    H164582   3.806   2.672   0.513  0.4289  2.5701 -2.1747
14389TIP3    H264583   3.849   2.724   0.648  1.5783  0.2855 -1.6039
14390TIP3   OH264584   2.914   6.289   3.331 -0.3846  0.2476  0.5301
14390TIP3    H164585   2.927   6.384   3.329  1.1239  0.0551 -0.1208
14390TIP3    H264586   3.003   6.253   3.336 -0.7320 -1.1756 -1.9530
14391TIP3   OH264587   2.596   1.339   4.528 -0.5344  0.2041 -0.0589
14391TIP3    H164588   2.586   1.431   4.555  0.8574  0.0662  1.0460
14391TIP3    H264589   2.679   1.312   4.566 -0.0741 -1.0279 -1.8371
14392TIP3   OH264590   5.984   4.281   1.524  0.4744 -0.2732  0.0806
14392TIP3    H164591   6.043   4.337   1.474  0.0710 -0.4246 -0.5787
14392TIP3    H264592   5.922   4.248   1.459 -0.2813 -0.1828  0.7443
14393TIP3   OH264593   1.888   6.011   2.148 -0.4405  0.3387  0.8762
14393TIP3    H164594   1.939   5.983   2.072 -0.0519  0.0947  1.2219
14393TIP3    H264595   1.953   6.025   2.217 -0.8063  0.3597  1.2244
14394TIP3   OH264596   5.044   5.432   2.167 -0.3415  0.1847  0.3221
14394TIP3    H164597   5.036   5.462   2.258  0.0808 -2.2585  1.2530
14394TIP3    H264598   5.137   5.417   2.156 -0.4290  0.1967 -0.4384
14395TIP3   OH264599   1.167   0.105   2.225  0.2271  0.0360 -0.3206
14395TIP3    H164600   1.220   0.155   2.163  2.7304  1.2110  2.5443
14395TIP3    H264601   1.160   0.018   2.186  2.7477  0.3649 -1.7081
14396TIP3   OH264602   4.260   1.456   4.506  0.0010 -0.5637 -0.0026
14396TIP3    H164603   4.296   1.382   4.457 -1.2919  0.0250 -1.9647
14396TIP3    H264604   4.284   1.533   4.453  1.8721  0.5641  2.3113
14397TIP3   OH264605   6.520   4.463  12.332 -0.9182 -0.5996 -0.4277
14397TIP3    H164606   6.529   4.555  12.354  0.2890 -0.9081  0.4613
14397TIP3    H264607   6.431   4.455  12.298 -0.8516  0.9858 -1.0443
14398TIP3   OH264608   0.525   2.130   3.392 -0.1315  0.1610  0.6326
14398TIP3    H164609   0.505   2.223   3.377 -0.7731 -0.2207 -1.0897
14398TIP3    H264610   0.601   2.132   3.450 -0.4215  1.7524  1.0287
14399TIP3   OH264611   4.088   3.587  13.507 -0.1065 -0.1328 -0.4820
14399TIP3    H164612   4.093   3.495  13.535  0.2025 -0.1923 -0.7176
14399TIP3    H264613   4.167   3.600  13.455  0.6429  0.7116  0.8248
14400TIP3   OH264614   4.549   0.856  14.295  0.1743  0.1215  0.8159
14400TIP3    H164615   4.572   0.853  14.388 -0.5060  1.8824  1.0697
14400TIP3    H264616   4.544   0.949  14.274  0.2186 -0.2379 -0.9748
14401TIP3   OH264617   3.626   5.917  13.371  0.9840 -0.2433  0.0655
14401TIP3    H164618   3.535   5.889  13.375  0.6041  0.9901  0.3960
14401TIP3    H264619   3.652   5.904  13.279  0.0906  0.5579 -0.3110
14402TIP3   OH264620   0.437   5.523   0.526 -0.5558  0.3239  0.0991
14402TIP3    H164621   0.417   5.440   0.569  0.4589 -0.0371 -0.0799
14402TIP3    H264622   0.388   5.521   0.444 -0.1620 -0.3237 -0.1249
14403TIP3   OH264623   1.676   5.930  12.667 -0.3740 -0.0725  0.1558
14403TIP3    H164624   1.598   5.916  12.720  0.1554 -0.6909  0.8000
14403TIP3    H264625   1.684   5.851  12.614  0.5961 -0.6732  1.1450
14404TIP3   OH264626   0.105   2.061  12.496  0.0051  0.4010  0.3371
14404TIP3    H164627   0.088   2.013  12.576  0.3318  0.2620  0.3234
14404TIP3    H264628   0.101   1.995  12.426 -1.6046  0.7245  0.0703
14405TIP3   OH264629   3.046   1.864   3.372  0.1748  0.2755 -0.1324
14405TIP3    H164630   3.081   1.779   3.346 -1.4982 -0.0530 -1.4546
14405TIP3    H264631   2.961   1.844   3.410 -0.1959  1.3466 -0.3694
14406TIP3   OH264632   0.978   2.363  13.964 -0.3551  0.0025 -0.2352
14406TIP3    H164633   0.892   2.405  13.961 -1.6837 -2.4901  0.8246
14406TIP3    H264634   1.030   2.420  14.021 -1.5932  0.9933 -0.0572
14407TIP3   OH264635   3.228   5.037  13.053 -0.5171  0.5712  0.3171
14407TIP3    H164636   3.227   4.952  13.096 -0.7511  1.1998  1.5975
14407TIP3    H264637   3.139   5.051  13.023  0.3024 -1.4869 -3.8292
14408TIP3   OH264638   4.477   1.707   2.458  0.4318  0.3182  0.7008
14408TIP3    H164639   4.464   1.612   2.465  0.3462  0.2903  0.2175
14408TIP3    H264640   4.512   1.733   2.543 -2.0313  0.2628  1.8050
14409TIP3   OH264641   4.243   4.560  16.587  0.6089 -0.8249  0.0138
14409TIP3    H164642   4.292   4.498  16.641  1.5837  2.0468  2.7616
14409TIP3    H264643   4.159   4.570  16.632 -0.3516 -1.5331 -1.5270
14410TIP3   OH264644   6.499   2.109   2.750  0.0491  0.0496  0.0919
14410TIP3    H164645   6.465   2.144   2.668 -0.6166 -1.1697 -0.1714
14410TIP3    H264646   6.450   2.156   2.818  0.6977  1.1618 -0.1779
14411TIP3   OH264647   4.927   3.641   0.828  0.6954  0.2511 -0.3603
14411TIP3    H164648   4.949   3.624   0.920 -0.7884  2.0436  0.4135
14411TIP3    H264649   4.894   3.558   0.795 -0.3483 -0.0480  1.2856
14412TIP3   OH264650   2.938   2.174   6.124 -0.7700 -0.1379  0.0903
14412TIP3    H164651   2.951   2.242   6.189 -0.0030 -0.9180  0.7899
14412TIP3    H264652   2.959   2.216   6.040  0.6602  0.2397  0.6035
14413TIP3   OH264653   0.290   6.193   2.251 -0.1570  0.2867  0.3014
14413TIP3    H164654   0.196   6.174   2.244  0.1613 -0.6883 -3.5938
14413TIP3    H264655   0.332   6.107   2.243  1.0799  0.8705  0.3688
14414TIP3   OH264656   3.331   5.945  13.506  0.1980  0.3049 -0.2356
14414TIP3    H164657   3.312   5.905  13.421 -1.5509  0.6594 -0.0501
14414TIP3    H264658   3.314   6.038  13.493  2.8540  0.8488 -0.2773
14415TIP3   OH264659   5.986   2.852   0.638 -0.9430  0.3723  0.7277
14415TIP3    H164660   5.961   2.864   0.546 -3.2975  1.2075  1.4237
14415TIP3    H264661   6.055   2.785   0.635 -2.8526 -1.6682 -1.4241
14416TIP3   OH264662   5.368   4.509   1.565  0.1329  0.0161  0.7535
14416TIP3    H164663   5.346   4.540   1.652  3.0721 -0.2781  1.7120
14416TIP3    H264664   5.428   4.576   1.530 -1.3093  0.3538 -1.2566
14417TIP3   OH264665   2.522   1.175  14.940  0.0327  0.3429  0.1670
14417TIP3    H164666   2.469   1.254  14.938 -0.6402 -0.1028  0.2196
14417TIP3    H264667   2.612   1.206  14.950 -0.3470  1.0512  1.5886
14418TIP3   OH264668   4.272   2.766  12.981  0.7134  0.6481 -0.0166
14418TIP3    H164669   4.177   2.754  12.982  0.5574  1.5918 -1.0015
14418TIP3    H264670   4.284   2.859  13.000  1.6036  0.0713  2.7212
14419TIP3   OH264671   1.002   2.743   2.569 -0.1486 -0.1156  0.1944
14419TIP3    H164672   1.070   2.807   2.590  1.2563 -1.3142 -0.5317
14419TIP3    H264673   0.957   2.728   2.652 -1.7364  3.0793  0.0843
14420TIP3   OH264674   2.282   4.673   1.713 -0.6104  0.1028 -0.5455
14420TIP3    H164675   2.237   4.725   1.646  1.3576  1.8987 -0.5781
14420TIP3    H264676   2.369   4.657   1.676  0.3854  0.7764  1.3807
14421TIP3   OH264677   2.926   1.077  15.944 -0.4596  0.3880  0.0813
14421TIP3    H164678   2.983   1.084  15.868  1.9933  0.4300  1.7851
14421TIP3    H264679   2.892   0.988  15.941  0.2288  0.1346 -0.6530
14422TIP3   OH264680   5.756   3.774  16.931 -0.4931 -0.2123 -1.0925
14422TIP3    H164681   5.823   3.742  16.871 -0.2117  0.6683 -1.2586
14422TIP3    H264682   5.675   3.732  16.900 -0.2575 -0.1931 -1.7533
14423TIP3   OH264683   6.636   5.029  16.554  0.2345  0.0734 -0.4321
14423TIP3    H164684   6.608   5.121  16.554 -0.2330 -0.0617 -1.1175
14423TIP3    H264685   6.627   5.001  16.645 -1.1390  0.2539 -0.5042
14424TIP3   OH264686   0.308   2.335   0.172  0.0337  0.0595  0.4037
14424TIP3    H164687   0.273   2.246   0.173 -0.6526  0.2388 -1.9426
14424TIP3    H264688   0.398   2.326   0.201 -0.4393 -1.1609  1.6090
14425TIP3   OH264689   2.204   2.677  14.817 -0.1593  0.6963  0.8767
14425TIP3    H164690   2.281   2.728  14.794  0.3811  0.4540  2.0831
14425TIP3    H264691   2.228   2.632  14.898 -0.0907 -2.5678 -0.7965
14426TIP3   OH264692   6.761   2.123   1.097  0.0180 -0.6375  1.2188
14426TIP3    H164693   6.809   2.040   1.093 -0.5647 -0.9552  0.6923
14426TIP3    H264694   6.732   2.129   1.188 -0.5759 -1.3777  1.0834
14427TIP3   OH264695   4.493   5.062  16.394 -0.3432  0.1608  0.6843
14427TIP3    H164696   4.453   5.145  16.419 -0.4059 -0.0521  1.3029
14427TIP3    H264697   4.420   5.011  16.357 -0.3458  0.3000  0.4952
14428TIP3   OH264698   3.008   1.329  13.025 -0.4138 -1.2867  0.1073
14428TIP3    H164699   2.981   1.361  13.111 -0.0259 -0.7687  0.0413
14428TIP3    H264700   2.969   1.242  13.018  0.6316 -1.8700  1.3360
14429TIP3   OH264701   5.682   2.145   5.847 -0.3023 -0.4216  0.2479
14429TIP3    H164702   5.719   2.181   5.928 -1.4970  1.7777 -0.1009
14429TIP3    H264703   5.682   2.218   5.785 -1.0545 -1.5632 -1.1848
14430TIP3   OH264704   3.781   3.865  15.494 -0.0457 -0.2696  0.0067
14430TIP3    H164705   3.694   3.855  15.531  0.0681 -1.3648  0.0103
14430TIP3    H264706   3.773   3.940  15.433 -0.7480  0.1932  0.6529
14431TIP3   OH264707   3.156   1.482   4.447  0.3539  0.3417  0.0391
14431TIP3    H164708   3.185   1.459   4.359  0.9935 -0.8283  0.5338
14431TIP3    H264709   3.170   1.576   4.453  2.0415  0.1489 -0.4840
14432TIP3   OH264710   2.161   1.686   3.945 -0.4488  0.2498 -0.1097
14432TIP3    H164711   2.236   1.675   4.003  0.9299 -0.0649 -1.8525
14432TIP3    H264712   2.198   1.681   3.857 -1.9006  3.9100 -1.1458
14433TIP3   OH264713   3.598   3.025  12.207  0.2941  0.4256 -0.3677
14433TIP3    H164714   3.532   3.022  12.138  0.4806  0.5136 -0.5503
14433TIP3    H264715   3.560   2.973  12.278 -0.3207  1.1454 -0.1624
14434TIP3   OH264716   5.835   4.231   1.249 -0.3338 -0.5010  0.3368
14434TIP3    H164717   5.904   4.260   1.190 -0.2953 -0.4661  0.3978
14434TIP3    H264718   5.759   4.283   1.224  0.1584  0.8463  1.4984
14435TIP3   OH264719   2.078   4.451   1.595  0.9600  0.0220 -0.2710
14435TIP3    H164720   2.055   4.358   1.590 -0.6743  0.3814  0.0216
14435TIP3    H264721   2.170   4.451   1.620  0.3907 -1.5574  2.2342
14436TIP3   OH264722   1.139   1.375   5.420 -0.0975  0.1530  0.5988
14436TIP3    H164723   1.120   1.292   5.376 -1.7873  0.5391  0.5660
14436TIP3    H264724   1.188   1.349   5.498  0.9313 -0.7113 -0.2900
14437TIP3   OH264725   5.575   2.125   0.285 -0.3193  0.1927  0.0223
14437TIP3    H164726   5.587   2.112   0.379  1.3966 -1.9334 -0.4007
14437TIP3    H264727   5.622   2.206   0.266 -0.1556  0.3253  0.9199
14438TIP3   OH264728   2.975   5.644   4.255  0.1533  0.1161  0.8438
14438TIP3    H164729   3.049   5.701   4.273  0.8141 -0.2863 -0.4481
14438TIP3    H264730   2.903   5.705   4.233  0.8719  0.4869 -0.6004
14439TIP3   OH264731   3.421   0.812   2.014  0.6465 -0.3216  0.3554
14439TIP3    H164732   3.384   0.737   2.060  1.6331 -1.4692 -0.6509
14439TIP3    H264733   3.495   0.840   2.068 -0.3402  0.6093  1.2608
14440TIP3   OH264734   3.423   0.937   0.555  0.3595  0.4281 -0.0571
14440TIP3    H164735   3.505   0.937   0.505  1.1588  0.9734  1.1929
14440TIP3    H264736   3.361   0.890   0.500  2.1562 -2.2830  0.0256
14441TIP3   OH264737   4.241   3.184  13.707 -0.5176 -0.3851  0.2812
14441TIP3    H164738   4.207   3.222  13.626  0.1468  0.2229  0.2742
14441TIP3    H264739   4.206   3.240  13.776 -2.9178 -2.1849  0.6446
14442TIP3   OH264740   4.131   6.008  12.482 -0.5000  0.0266 -0.0151
14442TIP3    H164741   4.175   6.064  12.546  0.7498 -0.4047 -0.4670
14442TIP3    H264742   4.119   6.063  12.405  0.0479 -0.1005 -0.1953
14443TIP3   OH264743   6.464   1.147   0.888 -0.6600 -0.8393  0.7261
14443TIP3    H164744   6.392   1.106   0.839  0.9325 -0.8726 -1.7467
14443TIP3    H264745   6.534   1.082   0.888  0.0692 -0.0760  1.3609
14444TIP3   OH264746   4.199   1.636   2.749 -0.3291  0.9156  0.1650
14444TIP3    H164747   4.250   1.717   2.747 -1.8817  1.9272  0.1390
14444TIP3    H264748   4.119   1.658   2.796 -1.4995 -0.1550 -1.2126
14445TIP3   OH264749   6.245   2.100   4.201  0.1630 -0.3457  0.4232
14445TIP3    H164750   6.235   2.163   4.273  1.8200 -0.3622  0.6998
14445TIP3    H264751   6.160   2.101   4.157  0.4672  2.9872 -0.3327
14446TIP3   OH264752   4.952   4.688  14.724 -0.5254 -0.2920  0.2934
14446TIP3    H164753   4.913   4.602  14.713  0.2368 -0.5988 -0.1038
14446TIP3    H264754   5.020   4.676  14.790 -1.3150  0.3125  1.2387
14447TIP3   OH264755   2.000   6.628   3.671  0.1782 -0.2682  0.4648
14447TIP3    H164756   2.093   6.621   3.651  0.5175  2.3712  0.7807
14447TIP3    H264757   1.997   6.643   3.766 -0.6319 -0.9221  0.5572
14448TIP3   OH264758   3.999   3.679   4.413  0.0068  0.4298  0.0232
14448TIP3    H164759   4.085   3.703   4.449  0.8715 -1.4054 -0.6491
14448TIP3    H264760   3.962   3.621   4.480  0.2397 -0.4660 -0.6080
14449TIP3   OH264761   0.061   3.209  16.031  0.1949  0.2026 -0.0949
14449TIP3    H164762   0.044   3.258  16.111  2.4921  2.0723 -0.6440
14449TIP3    H264763   0.095   3.124  16.062  1.5331  1.0802  0.9775
14450TIP3   OH264764   6.122   6.034   1.945  0.0727  0.0214 -0.4728
14450TIP3    H164765   6.200   5.979   1.932 -0.7944 -1.1618 -0.8353
14450TIP3    H264766   6.087   6.006   2.029  0.2447  0.8155 -0.1347
14451TIP3   OH264767   6.009   3.327  16.092  0.5112  0.1264 -0.1979
14451TIP3    H164768   6.082   3.277  16.129  0.5535 -0.4624 -1.0349
14451TIP3    H264769   6.024   3.417  16.121  1.0738 -0.1517  0.3840
14452TIP3   OH264770   0.394   5.849  12.897  0.0367 -0.1115  0.4099
14452TIP3    H164771   0.424   5.791  12.827 -1.1744 -0.6396  0.3045
14452TIP3    H264772   0.306   5.819  12.918 -0.6201  1.6657  0.3878
14453TIP3   OH264773   5.315   5.181  13.106 -0.3241 -0.3313 -0.2190
14453TIP3    H164774   5.224   5.200  13.131 -0.3441 -1.4400  0.6116
14453TIP3    H264775   5.309   5.101  13.054  0.2359 -0.8311  0.4671
14454TIP3   OH264776   1.908   0.840   5.915  0.2380  0.2124 -0.2763
14454TIP3    H164777   1.844   0.776   5.886 -0.2747  0.6516 -0.1451
14454TIP3    H264778   1.874   0.872   5.999  1.3882 -0.6107  0.5472
14455TIP3   OH264779   5.861   6.426  17.194  0.1513 -0.1405  0.2214
14455TIP3    H164780   5.943   6.463  17.227  1.2229 -1.2688 -1.0400
14455TIP3    H264781   5.794   6.488  17.222  1.7772  2.5809 -1.3710
14456TIP3   OH264782   3.045   4.641   6.226 -0.8357  0.1718 -0.3275
14456TIP3    H164783   3.139   4.657   6.214 -0.6553 -1.5737 -1.6290
14456TIP3    H264784   3.003   4.723   6.199  0.3506  2.4942  3.9641
14457TIP3   OH264785   0.297   2.235  11.775 -0.2910 -0.5195  0.3627
14457TIP3    H164786   0.351   2.157  11.766 -0.3650 -0.7938  2.0677
14457TIP3    H264787   0.347   2.293  11.832 -0.3412  0.6150 -0.6939
14458TIP3   OH264788   1.852   2.361  14.310  0.1844 -0.8322 -0.1296
14458TIP3    H164789   1.890   2.281  14.347  0.2290 -0.5620  0.4151
14458TIP3    H264790   1.926   2.408  14.273  0.4404 -0.1524  1.2160
14459TIP3   OH264791   5.765   5.650  13.209  0.2480  0.0298  0.0229
14459TIP3    H164792   5.736   5.685  13.124 -0.8234 -1.8919 -0.4539
14459TIP3    H264793   5.699   5.681  13.271 -0.1981 -0.4117 -0.2327
14460TIP3   OH264794   4.810   4.908   5.011 -0.5153 -0.0203  0.3787
14460TIP3    H164795   4.722   4.933   5.039  0.1175 -0.4817  2.9959
14460TIP3    H264796   4.859   4.990   5.012 -0.5997  0.0363  0.1068
14461TIP3   OH264797   5.238   4.479  12.030  0.1883 -0.8846  0.3078
14461TIP3    H164798   5.202   4.392  12.012  0.1121 -0.5233 -1.5143
14461TIP3    H264799   5.331   4.470  12.010  0.0797 -0.4164 -0.4229
14462TIP3   OH264800   6.141   2.209  11.102 -0.0375 -0.1050 -0.1249
14462TIP3    H164801   6.141   2.135  11.163  3.4622  1.0793  1.5523
14462TIP3    H264802   6.102   2.174  11.022 -0.9381 -2.9423  1.4111
14463TIP3   OH264803   2.751   0.561   4.677 -0.0101 -0.1698 -0.3517
14463TIP3    H164804   2.729   0.471   4.700 -1.0187  0.0142 -0.5373
14463TIP3    H264805   2.752   0.608   4.760 -0.6417 -0.1214 -0.3680
14464TIP3   OH264806   1.537   5.316   1.681  0.1355 -0.1881  0.0455
14464TIP3    H164807   1.531   5.266   1.600  0.4145  1.7356 -1.2366
14464TIP3    H264808   1.630   5.333   1.693  0.0696 -0.1898  0.6159
14465TIP3   OH264809   0.905   0.701  11.384  0.1516 -0.0368 -0.2324
14465TIP3    H164810   0.925   0.690  11.477  0.6308  1.2248 -0.1619
14465TIP3    H264811   0.973   0.760  11.352  0.8743 -1.6266 -1.7504
14466TIP3   OH264812   2.810   0.146   3.592  0.2675 -0.3871  0.5368
14466TIP3    H164813   2.880   0.153   3.527  1.3781 -2.9082  1.3217
14466TIP3    H264814   2.814   0.228   3.641  2.6760 -0.4026  0.4973
14467TIP3   OH264815   5.856   1.246  12.638 -0.4414 -0.3854  0.0477
14467TIP3    H164816   5.916   1.211  12.571 -2.2248 -2.6733 -0.4712
14467TIP3    H264817   5.865   1.341  12.630  3.5883 -0.5515  0.4956
14468TIP3   OH264818   3.009   0.093  15.454  1.1428 -0.4928 -0.1624
14468TIP3    H164819   2.928   0.107  15.503  1.4072  2.4154 -0.3970
14468TIP3    H264820   3.079   0.110  15.517  1.5064  0.6767 -0.8557
14469TIP3   OH264821   3.794   2.689  13.439 -0.1029  0.7449 -0.1579
14469TIP3    H164822   3.769   2.639  13.361  0.1352 -0.8188  0.7122
14469TIP3    H264823   3.747   2.646  13.511 -0.8844  2.5963  0.4958
14470TIP3   OH264824   2.127   2.262  15.988 -0.0437 -0.1021 -0.7232
14470TIP3    H164825   2.184   2.226  15.920  2.9396  0.6198  1.1931
14470TIP3    H264826   2.110   2.352  15.960  1.6725  0.3864 -0.3270
14471TIP3   OH264827   3.206   3.845   0.976 -0.0939  0.1004  0.5733
14471TIP3    H164828   3.137   3.896   1.016 -0.9794 -0.9924  0.4868
14471TIP3    H264829   3.250   3.906   0.917 -1.7088  0.5537 -0.2243
14472TIP3   OH264830   4.024   0.829   5.708 -0.1045 -0.1112  0.6450
14472TIP3    H164831   4.083   0.830   5.633 -1.5653  0.2493 -0.5493
14472TIP3    H264832   4.081   0.821   5.784  1.4721  0.3249 -0.4545
14473TIP3   OH264833   3.179   0.011   5.836 -0.3819 -0.1646 -0.1643
14473TIP3    H164834   3.222   0.013   5.750 -0.2640  0.7845 -0.0937
14473TIP3    H264835   3.113   0.080   5.831 -0.1026  0.1727  0.6435
14474TIP3   OH264836   0.163   0.972   5.131 -0.2751 -0.1064  0.1752
14474TIP3    H164837   0.222   0.899   5.151  1.1649  0.8766 -0.3525
14474TIP3    H264838   0.118   0.944   5.051 -2.5933 -2.0074  1.9788
14475TIP3   OH264839   1.113   0.497   4.633  0.1004 -0.7381  0.3281
14475TIP3    H164840   1.040   0.551   4.603  2.0265  1.2226 -1.0192
14475TIP3    H264841   1.077   0.408   4.635 -2.1417  0.0697 -0.8655
14476TIP3   OH264842   5.167   4.172   3.604 -0.0867  0.4109  0.3358
14476TIP3    H164843   5.169   4.265   3.581 -0.7989  0.2158 -0.5604
14476TIP3    H264844   5.259   4.146   3.607  0.0987  0.9949 -0.0357
14477TIP3   OH264845   3.629   0.526  13.648  0.0482  0.2964  0.3630
14477TIP3    H164846   3.540   0.490  13.648  0.0435  0.2981 -0.5976
14477TIP3    H264847   3.677   0.472  13.586  0.3671  1.1312 -0.1437
14478TIP3   OH264848   4.104   2.429  16.687  0.1837  0.2453  0.8880
14478TIP3    H164849   4.064   2.516  16.690 -1.1582 -0.3549  1.0173
14478TIP3    H264850   4.141   2.417  16.774  0.6500  0.7941  0.7774
14479TIP3   OH264851   1.698   0.753   2.968 -0.1995  0.0644 -0.3219
14479TIP3    H164852   1.697   0.684   2.901 -0.2542 -1.5219  1.2456
14479TIP3    H264853   1.606   0.777   2.979 -0.1062  1.0412 -1.4704
14480TIP3   OH264854   1.261   1.229  17.226 -0.0397 -0.9669  0.3493
14480TIP3    H164855   1.286   1.320  17.243  1.1789 -1.3509  0.6972
14480TIP3    H264856   1.254   1.224  17.130 -0.4129 -0.4320  0.3459
14481TIP3   OH264857   0.435   4.770  17.221 -0.2535  0.3774 -0.2150
14481TIP3    H164858   0.364   4.733  17.170  0.2396  0.7296 -1.1749
14481TIP3    H264859   0.443   4.861  17.191 -1.2621  1.2376  1.9036
14482TIP3   OH264860   5.824   0.831   1.284  0.1985 -0.3748 -0.0087
14482TIP3    H164861   5.913   0.824   1.248  0.7246 -1.0048  1.3135
14482TIP3    H264862   5.798   0.740   1.300 -1.0859 -0.2565 -1.2393
14483TIP3   OH264863   3.340   2.099   5.015  0.5402 -0.6854  0.3649
14483TIP3    H164864   3.376   2.187   5.015 -0.7751 -0.1211  0.3636
14483TIP3    H264865   3.416   2.041   5.016  1.4154  0.4467  0.4120
14484TIP3   OH264866   3.141   2.181   5.256 -0.1759 -0.4307  0.3746
14484TIP3    H164867   3.192   2.166   5.335  0.6695  0.0486 -0.0598
14484TIP3    H264868   3.206   2.201   5.189 -0.9116 -0.2168 -0.2962
14485TIP3   OH264869   3.251   5.868   2.550  0.3581 -0.3080  0.0863
14485TIP3    H164870   3.286   5.832   2.468  1.0688 -0.2761  0.3689
14485TIP3    H264871   3.308   5.943   2.569 -0.9309  0.8179 -0.3457
14486TIP3   OH264872   0.044   5.110   3.850  0.1370  0.1594  0.1128
14486TIP3    H164873  -0.015   5.035   3.844 -0.3020  0.3943  1.2342
14486TIP3    H264874   0.028   5.160   3.770 -1.4564  0.4023  0.5541
14487TIP3   OH264875   4.118   2.568   3.194  0.2640 -0.1209  0.5324
14487TIP3    H164876   4.121   2.628   3.268 -0.4564 -0.7372  1.0801
14487TIP3    H264877   4.201   2.521   3.197  0.8073  0.7818  0.1363
14488TIP3   OH264878   0.602   3.443  13.784  0.2405  0.0379 -0.3350
14488TIP3    H164879   0.620   3.533  13.758  0.7719  0.1121  0.2498
14488TIP3    H264880   0.689   3.401  13.788 -0.0063 -0.5206 -0.6871
14489TIP3   OH264881   3.598   0.279  11.970  0.5182 -0.3193 -0.3053
14489TIP3    H164882   3.659   0.347  11.943 -4.2418  4.0936 -1.4433
14489TIP3    H264883   3.597   0.217  11.897  1.1553  1.3872 -1.8169
14490TIP3   OH264884   5.244   2.447  11.271  0.1072  0.0128 -1.0281
14490TIP3    H164885   5.195   2.398  11.204 -1.1773 -2.2016  1.3369
14490TIP3    H264886   5.332   2.410  11.267 -0.1452 -0.6031 -1.0634
14491TIP3   OH264887   1.717   4.544  11.118  0.2059  0.4713 -0.3640
14491TIP3    H164888   1.639   4.582  11.078  1.0544  2.4542 -0.2357
14491TIP3    H264889   1.789   4.595  11.083  1.5213 -1.5968 -0.8019
14492TIP3   OH264890   3.849   2.170   4.605 -0.2684  0.1223  0.1535
14492TIP3    H164891   3.829   2.095   4.548  3.1590 -0.7456 -0.1919
14492TIP3    H264892   3.861   2.131   4.692 -0.5199  0.6163  0.4094
14493TIP3   OH264893   6.293   0.200  16.040  0.3645  0.0379  0.3046
14493TIP3    H164894   6.231   0.232  16.105  0.4463  0.6662  0.0791
14493TIP3    H264895   6.378   0.205  16.084  0.4086  0.3767  0.1822
14494TIP3   OH264896   3.888   5.206  14.633  0.2459  0.4390 -0.0284
14494TIP3    H164897   3.830   5.270  14.592  0.5780  1.1782  0.6344
14494TIP3    H264898   3.840   5.123  14.628 -0.7110  0.9649  0.1727
14495TIP3   OH264899   2.738   6.218  10.925  0.4972 -0.3558 -0.5500
14495TIP3    H164900   2.729   6.124  10.935 -1.7833 -0.2978 -1.5497
14495TIP3    H264901   2.679   6.256  10.990  1.8889  0.4430  0.3074
14496TIP3   OH264902   4.165   0.940   0.055  0.3193 -0.1452 -0.2582
14496TIP3    H164903   4.256   0.946   0.085 -0.2678 -0.5462  1.7498
14496TIP3    H264904   4.150   1.021   0.007  1.5427  0.2419 -0.0332
14497TIP3   OH264905   6.239   4.964   2.789  0.2838  0.0780  0.0922
14497TIP3    H164906   6.268   4.952   2.699  1.1886 -0.6389  0.4627
14497TIP3    H264907   6.296   5.033   2.824  0.1981  0.0781  0.2353
14498TIP3   OH264908   2.567   2.854   4.738  0.8993 -0.2455 -0.2782
14498TIP3    H164909   2.522   2.770   4.749  2.3844 -0.9294  1.0806
14498TIP3    H264910   2.552   2.900   4.821  0.7378  0.5070 -0.7217
14499TIP3   OH264911   3.028   0.027  12.543  0.2086 -0.0766 -0.0166
14499TIP3    H164912   2.940   0.003  12.511  1.0598 -2.8956 -0.4960
14499TIP3    H264913   3.055  -0.047  12.597  0.7424  2.4907  3.6527
14500TIP3   OH264914   6.442   1.615   0.798 -0.2064  0.3683 -0.0327
14500TIP3    H164915   6.499   1.688   0.777 -0.7602  0.9123  0.3208
14500TIP3    H264916   6.354   1.652   0.797 -0.5973 -0.5474 -0.9674
14501TIP3   OH264917   4.284   2.120  16.108 -0.1904 -0.6657 -0.4149
14501TIP3    H164918   4.313   2.156  16.192 -1.4416  0.8389 -0.5826
14501TIP3    H264919   4.354   2.142  16.047  0.2334 -0.8091  0.0136
14502TIP3   OH264920   4.995   0.024  14.333  0.3161  0.1523  0.2958
14502TIP3    H164921   4.934   0.025  14.260  0.6652  2.1842 -0.0383
14502TIP3    H264922   4.942   0.047  14.409  0.5782  1.8114  0.0223
14503TIP3   OH264923   3.216   1.918  15.323  0.2707  0.8416 -0.8766
14503TIP3    H164924   3.144   1.961  15.369  0.1418 -0.7281  0.4971
14503TIP3    H264925   3.198   1.824  15.331  1.3277  0.4435 -2.4264
14504TIP3   OH264926   0.829   5.046   3.956 -0.3113 -0.0170 -0.1532
14504TIP3    H164927   0.830   5.035   3.861 -1.5486  2.0987 -0.4774
14504TIP3    H264928   0.782   4.969   3.989  2.2406 -2.0681 -0.9406
14505TIP3   OH264929   2.116   5.081  14.764 -0.1773 -0.2992  0.2183
14505TIP3    H164930   2.048   5.021  14.796 -1.5546  1.2278  0.2905
14505TIP3    H264931   2.072   5.134  14.698  0.6517  1.3815  0.9574
14506TIP3   OH264932   0.054   2.660  13.472  0.0814  0.3604 -0.3636
14506TIP3    H164933  -0.027   2.609  13.472  1.3804 -1.9010  1.6006
14506TIP3    H264934   0.056   2.701  13.558  0.7438  0.9023 -0.6260
14507TIP3   OH264935   2.736   6.138   3.841  0.2620  0.1985  0.3528
14507TIP3    H164936   2.771   6.112   3.756 -1.5012 -0.3172 -0.2475
14507TIP3    H264937   2.746   6.060   3.896  1.0891  0.4258  0.5445
14508TIP3   OH264938   0.980   1.182   3.328 -0.0779  0.1449  0.3090
14508TIP3    H164939   0.988   1.277   3.330 -2.1862  0.4004  2.5867
14508TIP3    H264940   1.068   1.150   3.349  1.2367  1.4223 -2.7606
14509TIP3   OH264941   2.484   4.817   4.002  0.0502 -0.4759 -0.1225
14509TIP3    H164942   2.515   4.862   3.924 -0.0209 -1.3581 -0.6645
14509TIP3    H264943   2.487   4.724   3.980 -2.6036 -0.6505 -0.1009
14510TIP3   OH264944   3.792   3.887   5.963  0.1660 -0.0768  0.0815
14510TIP3    H164945   3.764   3.798   5.941 -0.1011  0.1974 -0.7265
14510TIP3    H264946   3.778   3.894   6.057  0.5225 -1.0054  0.2144
14511TIP3   OH264947   5.477   3.306  12.327 -0.2315 -0.0825  0.3268
14511TIP3    H164948   5.520   3.235  12.374  0.1758 -1.1364 -1.5727
14511TIP3    H264949   5.384   3.290  12.338 -0.1468 -0.0819  1.0850
14512TIP3   OH264950   4.507   2.147  14.154  0.8058  0.4250 -0.5593
14512TIP3    H164951   4.536   2.202  14.227 -0.8475 -0.8176  1.1175
14512TIP3    H264952   4.498   2.059  14.192 -0.4659 -0.1926 -2.1614
14513TIP3   OH264953   6.243   4.456  13.996  0.6428 -0.3173  0.2809
14513TIP3    H164954   6.326   4.453  14.044  2.2416 -0.0006 -2.2769
14513TIP3    H264955   6.245   4.539  13.948 -0.1409 -1.2266 -1.4524
14514TIP3   OH264956   3.605   4.740   0.947 -0.0023  0.0105  0.3484
14514TIP3    H164957   3.656   4.784   0.879  0.6159 -0.8192  0.2630
14514TIP3    H264958   3.667   4.727   1.019 -0.3648 -0.1008  0.6449
14515TIP3   OH264959   2.810   0.154  17.044  0.4145 -0.1769 -0.4931
14515TIP3    H164960   2.903   0.133  17.050  0.7365  0.9261 -1.3639
14515TIP3    H264961   2.781   0.159  17.135  1.0972 -0.9577 -0.2146
14516TIP3   OH264962   0.389   4.862  14.508  0.3137 -0.1123  0.6898
14516TIP3    H164963   0.376   4.834  14.598  1.8089  1.0587  1.3136
14516TIP3    H264964   0.449   4.797  14.471 -0.4134 -0.6733  0.4778
14517TIP3   OH264965   5.727   4.690   4.133 -0.1525 -0.3713  0.8024
14517TIP3    H164966   5.791   4.629   4.171  0.3988 -0.1560  0.2182
14517TIP3    H264967   5.779   4.762   4.100 -0.3014 -1.7595 -2.8503
14518TIP3   OH264968   4.055   6.051  15.843 -0.6349  0.6463  0.7069
14518TIP3    H164969   4.138   6.059  15.796  0.1900 -1.7414  1.5539
14518TIP3    H264970   3.989   6.085  15.783  0.3435 -2.2170 -2.3030
14519TIP3   OH264971   1.947   3.429  16.916 -0.5851 -0.2024 -0.3016
14519TIP3    H164972   1.990   3.513  16.932  0.9748 -0.6811 -1.6539
14519TIP3    H264973   2.007   3.364  16.954 -0.6997 -0.8291 -1.1718
14520TIP3   OH264974   4.490   2.026   3.297 -0.2379 -0.2326  0.1688
14520TIP3    H164975   4.433   2.029   3.220 -0.3622  0.4174  0.2762
14520TIP3    H264976   4.569   2.072   3.269 -0.5407  0.5934  0.6222
14521TIP3   OH264977   4.886   4.757   0.892  0.0351  0.3860 -0.2784
14521TIP3    H164978   4.927   4.840   0.866 -2.5590  1.7071 -0.4726
14521TIP3    H264979   4.826   4.780   0.963  0.1324 -1.5694  0.5096
14522TIP3   OH264980   3.086   2.469  13.846 -0.1898 -0.0235 -0.5498
14522TIP3    H164981   3.098   2.467  13.751 -0.0551  1.1882 -0.5800
14522TIP3    H264982   3.042   2.553  13.863 -0.6893 -0.4670  0.4101
14523TIP3   OH264983   6.136   5.610   2.518 -0.0366 -0.7059  0.2964
14523TIP3    H164984   6.048   5.640   2.538  0.7413  0.4129  2.2222
14523TIP3    H264985   6.162   5.557   2.593  1.5739  0.4539  0.6113
14524TIP3   OH264986   4.721   0.861  14.037  0.0480  0.0409 -0.0462
14524TIP3    H164987   4.762   0.774  14.035 -1.9107 -0.9173 -0.5114
14524TIP3    H264988   4.655   0.855  14.106 -1.5676  0.4250 -1.4938
14525TIP3   OH264989   2.385   2.892  12.350 -0.5661 -0.6790 -0.0346
14525TIP3    H164990   2.339   2.820  12.307  1.7294 -3.3393  1.6193
14525TIP3    H264991   2.468   2.899  12.302  0.4876 -1.2658  1.5904
14526TIP3   OH264992   3.087   5.459  16.406 -0.2234  0.1375  0.3405
14526TIP3    H164993   2.999   5.422  16.406 -0.7831  1.3870  1.4567
14526TIP3    H264994   3.116   5.453  16.315 -0.6806 -2.0156  0.2818
14527TIP3   OH264995   4.647   5.415  14.094 -0.2400  0.1813  0.2073
14527TIP3    H164996   4.597   5.445  14.170  1.2274  0.9039  0.9531
14527TIP3    H264997   4.738   5.437  14.116  0.2825 -0.0864 -1.5384
14528TIP3   OH264998   0.595   6.059   2.744 -0.2603 -0.4522  0.4391
14528TIP3    H164999   0.509   6.085   2.779 -0.9484  1.3609 -2.2582
14528TIP3    H265000   0.657   6.119   2.786 -0.3034 -1.4039  1.9755
14529TIP3   OH265001   1.206   2.911   2.709 -0.1905  0.5885 -0.6133
14529TIP3    H165002   1.254   2.986   2.675  0.0371  0.9222  0.4097
14529TIP3    H265003   1.140   2.949   2.768  0.1904 -0.0141  0.2309
14530TIP3   OH265004   5.451   0.841  16.428  0.2202  0.1369  0.2193
14530TIP3    H165005   5.485   0.822  16.341  1.1802  1.4695  0.2767
14530TIP3    H265006   5.463   0.760  16.477  0.9320 -0.2080 -0.5095
14531TIP3   OH265007   1.937   6.687  10.708 -0.5288 -0.0391 -0.4659
14531TIP3    H165008   2.028   6.698  10.738 -0.2301  2.0127 -1.9332
14531TIP3    H265009   1.903   6.776  10.703 -2.3988 -0.7385 -0.7018
14532TIP3   OH265010   4.051   5.785   2.110 -0.5737 -0.3397 -0.3948
14532TIP3    H165011   4.070   5.856   2.171 -0.1859 -0.6048 -0.1987
14532TIP3    H265012   3.979   5.817   2.056 -0.7557 -0.0056  0.0416
14533TIP3   OH265013   1.094   1.443  10.822  0.4150 -0.1034  0.2309
14533TIP3    H165014   1.161   1.509  10.840 -1.2307  1.7574 -0.0004
14533TIP3    H265015   1.096   1.432  10.727  1.3901 -1.2198  0.3639
14534TIP3   OH265016   0.879   0.090   3.405 -0.2853  0.2771  0.7592
14534TIP3    H165017   0.842   0.174   3.377  1.5165  1.7764  2.6126
14534TIP3    H265018   0.834   0.026   3.351 -1.9534  2.3873 -0.5403
14535TIP3   OH265019   4.919   6.311   4.126  0.2217 -0.1887  0.1689
14535TIP3    H165020   4.958   6.236   4.082  2.1341  0.9554 -0.1776
14535TIP3    H265021   4.956   6.387   4.082 -0.3362  0.9845  1.6392
14536TIP3   OH265022   0.850   2.473  11.651 -0.1656 -0.1829 -0.0264
14536TIP3    H165023   0.762   2.510  11.642  0.6318  1.8536 -0.0839
14536TIP3    H265024   0.891   2.526  11.719  0.2752 -2.6718  1.7571
14537TIP3   OH265025   0.612   2.041   1.190  0.3441  0.2195  0.4196
14537TIP3    H165026   0.676   2.027   1.120 -0.0174 -0.3515  0.1976
14537TIP3    H265027   0.649   2.113   1.241  0.3530  1.0218 -0.6675
14538TIP3   OH265028   2.332   6.279   4.957 -0.0348 -0.0211  0.0594
14538TIP3    H165029   2.412   6.318   4.990  0.1652 -0.4350  0.0640
14538TIP3    H265030   2.269   6.290   5.028  0.0218  0.2810  0.0653
14539TIP3   OH265031   4.210   2.733  14.253 -0.2477  0.2974 -0.1910
14539TIP3    H165032   4.251   2.728  14.339 -0.7324  1.7466  0.1597
14539TIP3    H265033   4.214   2.644  14.219  0.2187 -0.2439  1.2068
14540TIP3   OH265034   5.745   0.969  16.467 -0.2429 -0.4548 -0.3410
14540TIP3    H165035   5.691   0.891  16.483 -0.4879 -0.2446 -0.1547
14540TIP3    H265036   5.683   1.035  16.436  0.0100 -0.4224 -0.7889
14541TIP3   OH265037   0.204   4.913  12.607  0.0432  0.2178 -0.4530
14541TIP3    H165038   0.233   4.822  12.612 -0.8081 -0.1325 -1.3744
14541TIP3    H265039   0.139   4.922  12.677 -0.1045  0.0183 -0.5633
14542TIP3   OH265040   3.818   3.245   3.276  0.1462  0.4194  0.0388
14542TIP3    H165041   3.904   3.249   3.236  0.4757  1.8432  0.8079
14542TIP3    H265042   3.812   3.325   3.329 -1.6170  0.3264  0.0556
14543TIP3   OH265043   5.501   6.605  14.054 -0.3646  0.1868 -0.3370
14543TIP3    H165044   5.535   6.602  14.143 -1.2744  0.0636  0.0206
14543TIP3    H265045   5.445   6.683  14.052 -0.6688 -0.0319 -0.6721
14544TIP3   OH265046   5.527   6.562   4.958  0.5437 -0.3919  0.0267
14544TIP3    H165047   5.550   6.551   4.865 -2.7178 -0.4221 -0.9016
14544TIP3    H265048   5.563   6.484   5.001  1.3818 -0.8108 -1.3635
14545TIP3   OH265049   3.606   0.653   2.188  0.4946 -0.1225 -0.1909
14545TIP3    H165050   3.516   0.634   2.161  1.2560 -0.3046 -2.8356
14545TIP3    H265051   3.627   0.583   2.250 -0.3758 -1.6095 -1.4770
14546TIP3   OH265052   6.674   4.146  12.860  0.1710  0.4690  0.6962
14546TIP3    H165053   6.758   4.120  12.821 -0.5188  0.2835 -0.7288
14546TIP3    H265054   6.661   4.083  12.931  0.1685 -0.9781 -0.5305
14547TIP3   OH265055   5.854   4.076  16.436  0.5110  0.4984  0.3513
14547TIP3    H165056   5.912   4.113  16.369  0.1561 -0.0939 -0.2932
14547TIP3    H265057   5.911   4.064  16.512  0.9961  0.8802  0.0558
14548TIP3   OH265058   4.589   1.167   3.832  0.5256 -0.4676  0.4782
14548TIP3    H165059   4.526   1.094   3.827 -0.4063  0.3586 -0.6041
14548TIP3    H265060   4.539   1.239   3.871  1.0631 -0.0486  0.4022
14549TIP3   OH265061   3.138   3.175  15.981  0.0455  0.3497 -0.1911
14549TIP3    H165062   3.142   3.080  15.988 -0.3246  0.4532  4.4245
14549TIP3    H265063   3.220   3.206  16.021 -0.4943  1.9849 -0.2620
14550TIP3   OH265064   2.331   5.729  16.644 -0.3477  0.4317 -0.1151
14550TIP3    H165065   2.309   5.709  16.735 -0.8392  0.4987 -0.2132
14550TIP3    H265066   2.267   5.796  16.619 -0.0964  0.5449 -0.4531
14551TIP3   OH265067   1.806   0.968   2.599  0.2754  0.1358 -0.3418
14551TIP3    H165068   1.774   1.030   2.665  2.0821  1.0262 -0.2543
14551TIP3    H265069   1.895   0.945   2.627  0.9315  0.1868 -2.2091
14552TIP3   OH265070   0.658   4.360   2.280 -0.7665 -0.2327 -0.4087
14552TIP3    H165071   0.711   4.356   2.201  0.9284 -0.3020  0.6717
14552TIP3    H265072   0.639   4.269   2.301  0.2403 -0.3381  0.1489
14553TIP3   OH265073   3.746   2.838  16.243 -0.2657 -0.6532  0.3764
14553TIP3    H165074   3.783   2.829  16.331  0.2926 -1.3446  0.0786
14553TIP3    H265075   3.667   2.784  16.244 -0.3896 -0.4721  0.5201
14554TIP3   OH265076   2.872   1.571   4.543  0.2061  0.5189  0.2495
14554TIP3    H165077   2.962   1.546   4.520  0.8516  1.2301  1.8162
14554TIP3    H265078   2.824   1.569   4.460  1.3196 -1.2342 -0.4251
14555TIP3   OH265079   1.642   6.344   1.196  0.2472 -0.0264  0.3153
14555TIP3    H165080   1.720   6.399   1.204 -1.5157  2.3927  2.5052
14555TIP3    H265081   1.609   6.362   1.109  0.0019  2.1033  0.7871
14556TIP3   OH265082   6.462   5.326  12.472 -0.5119 -0.5736 -0.4714
14556TIP3    H165083   6.509   5.349  12.392  2.8281 -0.3427  1.3728
14556TIP3    H265084   6.409   5.403  12.493  3.4598  2.1279  0.7594
14557TIP3   OH265085   1.950   2.953   4.256  0.1340  0.4471  0.2661
14557TIP3    H165086   1.863   2.931   4.289 -0.5969  3.1256  0.3151
14557TIP3    H265087   1.934   3.020   4.190  2.1232  0.3764 -0.3490
14558TIP3   OH265088   4.875   4.090   6.416 -0.2076  0.4682 -0.5060
14558TIP3    H165089   4.794   4.140   6.405 -0.1812  0.6681  0.2221
14558TIP3    H265090   4.873   4.060   6.506 -0.6362 -1.5822 -1.1571
14559TIP3   OH265091   2.117   5.832   3.407  0.2502 -0.3952  0.3450
14559TIP3    H165092   2.205   5.842   3.370 -0.3225  0.9478 -0.7507
14559TIP3    H265093   2.072   5.775   3.345 -0.1416  0.3165 -0.0427
14560TIP3   OH265094   1.942   2.173   0.009  0.1266  0.4004 -0.5770
14560TIP3    H165095   1.962   2.256   0.052 -0.0662  0.2307 -0.1574
14560TIP3    H265096   1.853   2.153   0.036  0.9117 -1.0352  1.1056
14561TIP3   OH265097   5.407   0.745   5.170  0.3431  0.0394 -0.2779
14561TIP3    H165098   5.490   0.730   5.215  1.1361  2.2218 -0.9042
14561TIP3    H265099   5.430   0.789   5.088 -1.4542  2.1303  0.2188
14562TIP3   OH265100   2.471   4.271  14.470  0.0711 -0.0012  0.1078
14562TIP3    H165101   2.400   4.214  14.501  0.9372 -0.0417  2.1518
14562TIP3    H265102   2.452   4.356  14.510  0.6504  0.2323 -0.1144
14563TIP3   OH265103   2.084   1.745   3.624  0.3715  0.6115  0.3193
14563TIP3    H165104   2.162   1.690   3.632  2.0330  2.7959  0.0291
14563TIP3    H265105   2.118   1.834   3.624 -2.2007  1.6633  0.6768
14564TIP3   OH265106   6.187   1.206  10.365  0.4763  0.0890  0.2590
14564TIP3    H165107   6.251   1.276  10.350  1.1668 -0.7017 -0.6406
14564TIP3    H265108   6.230   1.148  10.428 -0.6356  1.1235  2.0494
14565TIP3   OH265109   6.504   2.714  13.750 -0.3746  0.2419  0.7690
14565TIP3    H165110   6.538   2.784  13.805  0.5842  0.4631 -0.0758
14565TIP3    H265111   6.481   2.644  13.812  0.3119  0.6351  1.4903
14566TIP3   OH265112   1.183   4.856  16.504  0.0558  0.3120 -0.5459
14566TIP3    H165113   1.266   4.878  16.461  1.0069  1.1618  1.5866
14566TIP3    H265114   1.207   4.793  16.572 -1.4258 -1.1031 -1.2591
14567TIP3   OH265115   1.781   3.780  11.925 -0.3004  0.0162  0.1510
14567TIP3    H165116   1.776   3.867  11.886 -1.1847  1.1672  2.6236
14567TIP3    H265117   1.818   3.794  12.012 -0.1205 -2.1491  0.4897
14568TIP3   OH265118   2.139   0.230   4.260 -0.1886 -0.6462 -0.5323
14568TIP3    H165119   2.069   0.261   4.318 -0.8943  1.4636 -2.3549
14568TIP3    H265120   2.220   0.253   4.305 -0.6892 -0.7507  0.4463
14569TIP3   OH265121   1.994   1.957   4.973 -0.7517  0.0639  0.2756
14569TIP3    H165122   2.028   1.872   4.944 -0.6120  0.6455 -1.3914
14569TIP3    H265123   1.907   1.963   4.933  0.0222  1.5145 -1.3356
14570TIP3   OH265124   4.780   3.568   2.547 -0.2694 -0.3712  0.1834
14570TIP3    H165125   4.834   3.580   2.625 -1.1933 -0.7437  0.8975
14570TIP3    H265126   4.713   3.637   2.554 -0.8358 -0.9073  0.1600
14571TIP3   OH265127   1.192   2.162  11.331 -0.6278  0.3776  0.0014
14571TIP3    H165128   1.273   2.130  11.291 -1.6041 -0.7772 -1.1354
14571TIP3    H265129   1.126   2.153  11.262 -2.0295 -0.1033  1.3508
14572TIP3   OH265130   4.909   4.443  16.081  0.1027 -0.0693  0.4340
14572TIP3    H165131   4.818   4.413  16.077  0.7186 -1.9958 -0.5513
14572TIP3    H265132   4.925   4.482  15.995  1.0533 -2.6084 -0.6296
14573TIP3   OH265133   1.162   4.051  16.392  0.6201 -0.5592  0.2603
14573TIP3    H165134   1.140   3.964  16.425 -0.1437 -0.3503  0.3371
14573TIP3    H265135   1.190   4.100  16.469 -0.3731 -0.3130  0.4843
14574TIP3   OH265136   3.504   5.371   0.922  0.1262  0.0926  0.0415
14574TIP3    H165137   3.530   5.280   0.905  0.9661 -0.0016  1.6868
14574TIP3    H265138   3.549   5.421   0.854  1.2534 -0.5188  0.3162
14575TIP3   OH265139   3.069   0.237  15.980  0.2421  0.7828  0.0454
14575TIP3    H165140   3.032   0.322  16.002  2.4452  2.7312 -3.0367
14575TIP3    H265141   3.024   0.211  15.900 -1.4180 -1.7830  1.6760
14576TIP3   OH265142   0.021   5.388  12.238  0.1404 -0.2623  0.6529
14576TIP3    H165143   0.086   5.445  12.197  0.0793  0.1609  1.1314
14576TIP3    H265144   0.062   5.302  12.241 -0.4316 -0.6975 -1.7089
14577TIP3   OH265145   3.101   5.068  15.245  0.3554 -0.3721  0.0544
14577TIP3    H165146   3.154   5.061  15.166 -1.3558 -0.7291 -1.1172
14577TIP3    H265147   3.075   4.978  15.264 -1.6600 -0.0234 -0.7611
14578TIP3   OH265148   0.049   5.935  11.283 -0.0251 -0.4438 -0.2442
14578TIP3    H165149  -0.023   5.908  11.226 -1.3310  1.2076  0.5553
14578TIP3    H265150   0.078   6.019  11.247  0.2626 -0.2076  0.5261
14579TIP3   OH265151   4.920   1.461   1.061 -0.5926  0.1876 -0.3523
14579TIP3    H165152   4.912   1.383   1.117  0.9370  0.5515  0.4181
14579TIP3    H265153   4.987   1.437   0.996  0.7093  1.2042  0.5660
14580TIP3   OH265154   2.645   3.690  10.379  0.6846  0.7293  0.1480
14580TIP3    H165155   2.642   3.603  10.420  2.8193  0.8949  0.7562
14580TIP3    H265156   2.587   3.743  10.434 -0.4233 -0.2128 -0.0625
14581TIP3   OH265157   3.857   1.940   2.982  0.3258 -0.8276  0.1676
14581TIP3    H165158   3.935   1.970   2.935 -0.5125  0.2377 -0.6031
14581TIP3    H265159   3.784   1.963   2.924 -0.4973 -3.2135  0.1498
14582TIP3   OH265160   5.308   5.836   1.190 -0.3043 -0.2146  0.5769
14582TIP3    H165161   5.335   5.876   1.108 -1.3248  0.3858  0.5173
14582TIP3    H265162   5.387   5.836   1.244  0.2925 -0.3242 -0.2867
14583TIP3   OH265163   3.670   3.434   4.289 -0.2694  0.3634  0.2945
14583TIP3    H165164   3.714   3.364   4.339  1.6793  0.7520 -0.7541
14583TIP3    H265165   3.653   3.394   4.203 -2.0530  0.2249  0.6851
14584TIP3   OH265166   1.167   6.667   0.184  0.0295  0.3279 -0.3464
14584TIP3    H165167   1.111   6.689   0.109  0.1555  2.0979  0.0476
14584TIP3    H265168   1.110   6.615   0.241 -0.3583 -0.2212 -1.2081
14585TIP3   OH265169   3.069   3.428   2.291  0.1791 -0.4852  0.0493
14585TIP3    H165170   3.131   3.429   2.364  0.6076 -0.4237 -0.3090
14585TIP3    H265171   3.034   3.339   2.291 -0.5748 -0.1994  0.9463
14586TIP3   OH265172   3.751   2.418   4.512  0.0800  0.0657 -0.1141
14586TIP3    H165173   3.811   2.492   4.508  0.1252 -0.0177 -2.6528
14586TIP3    H265174   3.803   2.347   4.550  0.9015  0.5977 -0.2172
14587TIP3   OH265175   0.175   6.636   1.393  0.6171  0.4511 -0.0099
14587TIP3    H165176   0.088   6.640   1.353 -0.2344 -1.5163  1.4654
14587TIP3    H265177   0.183   6.718   1.441 -0.4875  0.5994 -0.0532
14588TIP3   OH265178   1.738   1.450  14.359 -0.0165  0.4999 -0.1212
14588TIP3    H165179   1.711   1.417  14.273 -3.1217 -1.4423  1.4162
14588TIP3    H265180   1.662   1.498  14.391  0.3434 -0.3639  2.2405
14589TIP3   OH265181   3.800   2.706  14.556 -0.0302 -0.2863 -0.1896
14589TIP3    H165182   3.758   2.789  14.535  0.4698  0.1187  0.3439
14589TIP3    H265183   3.729   2.643  14.562 -0.2073 -0.5129 -3.2528
14590TIP3   OH265184   1.665   1.508  15.536 -0.0388 -0.1286  0.3514
14590TIP3    H165185   1.652   1.434  15.476 -0.7917 -0.9897  1.5292
14590TIP3    H265186   1.594   1.569  15.516 -1.4203 -1.2604  1.5501
14591TIP3   OH265187   3.314   6.512   5.267 -0.2371 -0.4838  0.0192
14591TIP3    H165188   3.335   6.522   5.175  1.2318 -0.8700  0.2813
14591TIP3    H265189   3.373   6.572   5.312 -2.1155  1.0002  0.6427
14592TIP3   OH265190   6.241   1.369  14.032  0.1554  0.0182 -0.0959
14592TIP3    H165191   6.183   1.425  14.083  0.3503 -1.9560  2.4832
14592TIP3    H265192   6.186   1.336  13.961 -0.7791  1.1098  0.0900
14593TIP3   OH265193   3.478   2.946   5.954  0.0839 -0.2937  0.2307
14593TIP3    H165194   3.420   2.874   5.978 -0.0225 -0.4339 -0.4340
14593TIP3    H265195   3.472   2.952   5.859  1.5542 -0.6439  0.0896
14594TIP3   OH265196   2.594   5.861  15.409 -0.3153 -0.3372  0.0557
14594TIP3    H165197   2.572   5.948  15.376 -3.8568 -0.3255  1.9582
14594TIP3    H265198   2.675   5.874  15.458 -0.1253  1.6040 -0.6895
14595TIP3   OH265199   5.485   2.321   3.144  0.1346  0.1333 -0.1378
14595TIP3    H165200   5.525   2.242   3.183  1.9570  1.0684 -0.0250
14595TIP3    H265201   5.410   2.339   3.200 -0.6479 -1.8186 -0.4851
14596TIP3   OH265202   0.555   1.245  12.316 -0.4732 -0.0756 -0.1658
14596TIP3    H165203   0.473   1.288  12.293 -0.7644 -0.2850  0.4513
14596TIP3    H265204   0.619   1.315  12.322 -0.3865 -0.0216 -1.6046
14597TIP3   OH265205   4.819   6.534  15.514  0.1073 -0.3278 -0.0727
14597TIP3    H165206   4.906   6.495  15.501  0.4721  1.3184 -3.4686
14597TIP3    H265207   4.835   6.609  15.572  1.0692  0.2224 -1.0179
14598TIP3   OH265208   0.561   4.583  15.539  0.0595  0.3509 -0.1461
14598TIP3    H165209   0.596   4.499  15.511  1.5618  0.9665 -0.2112
14598TIP3    H265210   0.474   4.588  15.498 -0.5075 -1.5892  0.7091
14599TIP3   OH265211   5.922   0.270  15.217 -0.0371  0.1814 -0.4268
14599TIP3    H165212   5.965   0.201  15.266 -2.2021  0.3454  1.9590
14599TIP3    H265213   5.934   0.349  15.271 -0.0605  1.0421 -1.6360
14600TIP3   OH265214   2.644   5.441   1.494  0.4520 -0.4039  0.3367
14600TIP3    H165215   2.675   5.525   1.459 -2.0476  0.2424 -0.5504
14600TIP3    H265216   2.612   5.462   1.582 -2.8267  0.3518 -0.8881
14601TIP3   OH265217   3.418   6.558  15.936 -0.3272  0.3029 -0.2391
14601TIP3    H165218   3.382   6.643  15.964 -0.0524  0.5737 -0.6889
14601TIP3    H265219   3.503   6.580  15.899  1.0124 -0.4860  2.1295
14602TIP3   OH265220   1.402   3.475  14.089  0.0932 -0.1221 -0.1874
14602TIP3    H165221   1.325   3.494  14.037 -0.7035 -1.4470  0.4735
14602TIP3    H265222   1.476   3.489  14.029 -0.6892  0.3903 -1.0487
14603TIP3   OH265223   3.918   2.837   5.523 -0.0274  0.0548 -0.0318
14603TIP3    H165224   3.831   2.850   5.486  0.1956  2.5817  0.1752
14603TIP3    H265225   3.907   2.853   5.617  0.5732 -0.0549  0.0631
14604TIP3   OH265226   0.934   2.606  13.263  0.6888  0.0523  0.0037
14604TIP3    H165227   0.920   2.512  13.256 -2.4170  0.3364  0.9927
14604TIP3    H265228   1.011   2.614  13.321  0.5505 -1.8563  0.5294
14605TIP3   OH265229   5.641   0.044   6.526  0.0644 -0.1591  0.4766
14605TIP3    H165230   5.587   0.012   6.598 -0.5088  0.4870  0.3535
14605TIP3    H265231   5.662  -0.034   6.475 -0.7727 -0.4280  0.5209
14606TIP3   OH265232   6.005   4.700   0.007  0.3850  0.3404  0.0580
14606TIP3    H165233   5.917   4.662   0.004  0.8451 -0.7214 -1.0955
14606TIP3    H265234   5.998   4.781  -0.045 -0.0876  0.6998  0.6662
14607TIP3   OH265235   5.985   4.401  11.689 -0.5587 -0.2046  0.1026
14607TIP3    H165236   6.009   4.443  11.772 -1.6629 -1.0423  0.8761
14607TIP3    H265237   5.929   4.465  11.645 -1.5420 -0.4893  0.8944
14608TIP3   OH265238   2.840   1.563   6.036 -0.4736 -0.1335  1.0827
14608TIP3    H165239   2.779   1.489   6.037 -0.7552  0.0312 -0.6317
14608TIP3    H265240   2.813   1.617   6.110 -1.1961 -1.0144  1.4865
14609TIP3   OH265241   2.866   5.907   3.268 -0.0382  0.0191 -0.4061
14609TIP3    H165242   2.939   5.870   3.219  0.5692  1.2201 -0.4521
14609TIP3    H265243   2.837   5.836   3.325  0.8604 -0.6232 -0.7195
14610TIP3   OH265244   4.650   3.099  14.308 -0.1088  0.8195 -0.0435
14610TIP3    H165245   4.556   3.090  14.291 -0.4867  1.4022  1.5588
14610TIP3    H265246   4.690   3.028  14.259 -1.5695 -0.5860  0.6937
14611TIP3   OH265247   0.075   2.190  15.937  0.1215 -0.6848 -0.3934
14611TIP3    H165248   0.157   2.224  15.902 -0.7818 -0.4147 -2.3649
14611TIP3    H265249   0.078   2.211  16.031  1.9306  0.0115 -0.5774
14612TIP3   OH265250   3.325   6.539   1.212 -0.0357 -0.2243  0.7915
14612TIP3    H165251   3.325   6.548   1.308 -0.0068  0.0330  0.7699
14612TIP3    H265252   3.237   6.567   1.186  0.5020  1.4164  0.6019
14613TIP3   OH265253   0.376   6.323   5.041  0.1517 -0.0649  0.1598
14613TIP3    H165254   0.434   6.248   5.026 -0.9117 -1.1977  1.5086
14613TIP3    H265255   0.368   6.364   4.955  3.2091  0.3672 -0.0187
14614TIP3   OH265256   0.467   3.635  12.964  0.1560  0.1298 -0.0017
14614TIP3    H165257   0.542   3.577  12.954  0.7765  0.6293  1.4073
14614TIP3    H265258   0.457   3.644  13.059 -0.7805  1.2161 -0.1828
14615TIP3   OH265259   4.562   3.446   1.818  0.0504  0.0496 -0.2528
14615TIP3    H165260   4.561   3.509   1.745  1.3931  0.6139  0.1737
14615TIP3    H265261   4.623   3.484   1.881 -1.3008 -0.2680  1.3285
14616TIP3   OH265262   4.767   5.187  13.070 -0.1641  0.5529 -0.0672
14616TIP3    H165263   4.712   5.143  13.135 -0.5825  0.6002 -0.3853
14616TIP3    H265264   4.731   5.276  13.064 -0.7325  0.2744 -1.0475
14617TIP3   OH265265   6.762   1.973   0.140 -0.1696 -0.1430  0.4043
14617TIP3    H165266   6.719   1.889   0.160 -0.7356  0.4942  2.0448
14617TIP3    H265267   6.747   1.985   0.046 -2.3960 -0.6254  0.6222
14618TIP3   OH265268   3.448   3.279   5.556 -0.5807  0.5050  0.1993
14618TIP3    H165269   3.465   3.219   5.484  1.0026  0.1051  0.8768
14618TIP3    H265270   3.406   3.225   5.623 -1.0558  0.6321  0.0075
14619TIP3   OH265271   4.772   6.777   2.962 -0.1534  0.6252  0.0834
14619TIP3    H165272   4.771   6.726   3.042  0.5737 -1.6835 -1.2787
14619TIP3    H265273   4.769   6.712   2.892 -1.2534  2.5562 -1.7843
14620TIP3   OH265274   4.680   1.448   2.187  0.6451 -0.0962 -0.2169
14620TIP3    H165275   4.638   1.434   2.102  0.8103 -0.3270 -0.2632
14620TIP3    H265276   4.725   1.532   2.178 -0.3551  0.4841  0.0605
14621TIP3   OH265277   4.206   1.702  15.249 -0.3690  0.2604  0.8052
14621TIP3    H165278   4.255   1.677  15.327  0.8052  0.3109  0.0985
14621TIP3    H265279   4.239   1.645  15.180 -0.2439  1.2933 -0.0138
14622TIP3   OH265280   6.310   5.751   0.746  0.1781  0.3375  0.0517
14622TIP3    H165281   6.221   5.716   0.745  0.4501 -0.4397  1.0409
14622TIP3    H265282   6.326   5.780   0.656 -1.1845  0.8075 -0.0627
14623TIP3   OH265283   5.960   4.119   4.922  0.2826 -0.4277 -0.5979
14623TIP3    H165284   6.050   4.128   4.953 -0.2181  1.2668  0.5494
14623TIP3    H265285   5.946   4.196   4.867 -0.7617 -0.0703  0.1254
14624TIP3   OH265286   2.536   0.643  14.797 -0.0051  0.1845 -0.0217
14624TIP3    H165287   2.631   0.649  14.792 -0.0464  1.2315  0.2684
14624TIP3    H265288   2.519   0.552  14.824  1.0199  0.6517  2.4135
14625TIP3   OH265289   3.513   2.645  14.200  0.6748  0.1668 -0.2267
14625TIP3    H165290   3.551   2.714  14.146  0.4282  0.0591 -0.5324
14625TIP3    H265291   3.447   2.603  14.145  0.3734  0.1025  0.1767
14626TIP3   OH265292   0.936   5.865  16.156  0.4696 -0.2193  0.4435
14626TIP3    H165293   0.950   5.942  16.101  1.9625 -0.5217  0.3551
14626TIP3    H265294   0.905   5.798  16.096  0.0969  0.0408  0.3453
14627TIP3   OH265295   2.738   1.871  15.108  0.2031 -0.8850  0.2829
14627TIP3    H165296   2.753   1.835  15.195  0.2194 -1.5072  0.0264
14627TIP3    H265297   2.651   1.912  15.114  0.9999  0.7844  1.1306
14628TIP3   OH265298   3.241   4.171   6.255  0.3464 -0.1690  1.2721
14628TIP3    H165299   3.329   4.188   6.289  0.5677  0.3089  0.4640
14628TIP3    H265300   3.250   4.091   6.203  0.5276  0.4276  0.3656
14629TIP3   OH265301   1.131   3.535  13.202 -0.0449  0.1122 -0.1087
14629TIP3    H165302   1.120   3.457  13.148  0.2158 -0.6555  0.9176
14629TIP3    H265303   1.071   3.600  13.164  0.3791 -0.2940 -1.5000
14630TIP3   OH265304   2.741   0.413   1.226  0.1730 -0.0530 -0.0924
14630TIP3    H165305   2.686   0.379   1.156 -0.0710  1.0374 -0.4369
14630TIP3    H265306   2.680   0.441   1.294  0.4314 -2.8092  1.4284
14631TIP3   OH265307   4.743   2.058  14.928 -0.8056 -0.0359  0.1755
14631TIP3    H165308   4.681   2.121  14.892  1.5050  2.7061  0.6755
14631TIP3    H265309   4.829   2.089  14.899  0.5717 -2.1018  1.7529
14632TIP3   OH265310   6.015   6.144   5.727 -0.0460 -0.0322 -0.1845
14632TIP3    H165311   5.929   6.111   5.751  0.2517  0.3855  1.5899
14632TIP3    H265312   6.002   6.190   5.644 -0.8787 -2.7148 -1.6686
14633TIP3   OH265313   5.555   3.737   5.236  0.5758 -0.1374  0.0276
14633TIP3    H165314   5.554   3.747   5.331  1.4286  2.1793 -0.1309
14633TIP3    H265315   5.493   3.802   5.204 -0.2618 -1.4014 -1.0006
14634TIP3   OH265316   0.935   3.533   3.070 -0.7296  0.3971  0.7625
14634TIP3    H165317   0.971   3.444   3.061 -1.2511  0.1333  1.2134
14634TIP3    H265318   0.841   3.519   3.082 -1.2384  1.1356 -1.8163
14635TIP3   OH265319   1.086   4.914  11.419  0.6753  0.4687 -0.4543
14635TIP3    H165320   1.103   5.003  11.448  0.7481  0.4597 -0.4699
14635TIP3    H265321   1.015   4.923  11.355  0.8070  0.5376 -0.5931
14636TIP3   OH265322   5.688   2.909   0.086  0.0800 -0.0257 -0.2478
14636TIP3    H165323   5.757   2.920   0.021  0.0924 -0.9745 -0.4002
14636TIP3    H265324   5.709   2.973   0.154  0.4347  0.5200 -0.8571
14637TIP3   OH265325   1.407   5.623  13.571  0.2578  0.4912 -0.0841
14637TIP3    H165326   1.324   5.596  13.532 -1.6019  1.2211  3.0537
14637TIP3    H265327   1.472   5.565  13.531 -1.7681 -0.4457 -2.2816
14638TIP3   OH265328   1.934   5.320  13.079  0.1209 -0.5144  0.5563
14638TIP3    H165329   2.006   5.328  13.017 -0.3705 -0.9587 -0.0783
14638TIP3    H265330   1.975   5.284  13.158  0.4781 -1.4154 -0.0221
14639TIP3   OH265331   4.698   1.133   4.192  0.1145  0.4388  0.1541
14639TIP3    H165332   4.673   1.063   4.132 -3.5023  1.9510 -0.3504
14639TIP3    H265333   4.745   1.196   4.137  0.4440 -0.0476 -0.1295
14640TIP3   OH265334   3.045   5.674  14.174  0.4463  0.1367 -0.0566
14640TIP3    H165335   2.960   5.631  14.179  1.3770 -1.7240  2.2376
14640TIP3    H265336   3.079   5.652  14.087 -1.2159  0.5760 -0.8453
14641TIP3   OH265337   0.927   1.536  16.294 -0.0686  0.5239  0.2101
14641TIP3    H165338   0.867   1.603  16.264 -0.1254  0.5752  0.4335
14641TIP3    H265339   0.988   1.582  16.351  0.9040  0.6936 -0.9409
14642TIP3   OH265340   4.563   1.888   2.954 -0.1662 -0.0122  0.0074
14642TIP3    H165341   4.570   1.842   3.038 -0.8152  1.3053  0.8118
14642TIP3    H265342   4.649   1.928   2.942  0.1937 -0.8743 -0.3819
14643TIP3   OH265343   1.270   1.459  11.106  0.1113  0.0016  0.3883
14643TIP3    H165344   1.282   1.475  11.012 -1.6636  1.8475  0.4062
14643TIP3    H265345   1.348   1.496  11.147  0.9521 -0.9174 -0.3380
14644TIP3   OH265346   6.319   2.312   0.323  0.1617 -0.2926  0.5540
14644TIP3    H165347   6.361   2.305   0.408 -1.2060  0.6208  1.3481
14644TIP3    H265348   6.243   2.368   0.339 -2.5035 -3.3757 -0.3041
14645TIP3   OH265349   0.929   2.207  11.579  0.1973 -0.4403  0.0682
14645TIP3    H165350   0.915   2.298  11.603 -1.4393 -1.0730  1.7633
14645TIP3    H265351   0.869   2.158  11.635  0.6996 -2.5355 -1.1189
14646TIP3   OH265352   1.412   2.255   0.693  0.1337  0.6159  0.3284
14646TIP3    H165353   1.443   2.203   0.618 -0.3204  2.9626 -1.6129
14646TIP3    H265354   1.317   2.255   0.684  0.0793  0.9588  0.8958
14647TIP3   OH265355   5.096   2.285   3.155 -0.1955 -0.2120  0.0722
14647TIP3    H165356   5.154   2.345   3.203 -1.3543  1.5879 -0.6773
14647TIP3    H265357   5.016   2.282   3.207 -0.6772  0.0846 -0.6297
14648TIP3   OH265358   2.637   0.258   3.365  0.1194 -0.3286  0.7514
14648TIP3    H165359   2.564   0.314   3.339 -0.3173 -0.3611  1.8369
14648TIP3    H265360   2.624   0.244   3.459  1.7377 -0.0275  1.0504
14649TIP3   OH265361   0.899   0.943  13.336  0.2719 -0.2218  0.0639
14649TIP3    H165362   0.993   0.927  13.341  0.4198 -0.8073 -2.7073
14649TIP3    H265363   0.888   1.033  13.366  1.4671 -0.6361  1.8680
14650TIP3   OH265364   6.011   4.025   0.209 -0.7103  0.9251 -0.8784
14650TIP3    H165365   5.973   3.937   0.216 -1.4083  1.3095  0.4806
14650TIP3    H265366   6.097   4.017   0.250 -0.2542  0.6099 -1.8563
14651TIP3   OH265367   3.474   1.291   3.467 -0.7139  0.1047 -0.7068
14651TIP3    H165368   3.447   1.365   3.412  3.1415  1.4516 -1.1230
14651TIP3    H265369   3.517   1.332   3.543 -2.5368 -1.7655  1.4778
14652TIP3   OH265370   6.495   2.627  15.142  0.6205  0.4651  0.7360
14652TIP3    H165371   6.542   2.701  15.104  0.2272 -0.5143 -1.8493
14652TIP3    H265372   6.554   2.553  15.130 -1.1754 -0.6703 -2.0124
14653TIP3   OH265373   4.109   6.330   1.972 -0.4286 -0.8188  0.3158
14653TIP3    H165374   4.029   6.284   1.997 -1.3340  1.1418  1.3200
14653TIP3    H265375   4.112   6.405   2.031  1.4268 -0.0878 -0.6315
14654TIP3   OH265376   1.303   2.586   1.215 -0.4714 -0.0825 -0.0571
14654TIP3    H165377   1.326   2.618   1.128  0.1484 -1.2925 -0.3599
14654TIP3    H265378   1.386   2.579   1.261 -0.9043  1.8297  1.1296
14655TIP3   OH265379   5.118   4.127  14.583 -0.0129 -0.5481  0.6650
14655TIP3    H165380   5.120   4.046  14.531 -2.2244 -0.4493  0.3396
14655TIP3    H265381   5.145   4.099  14.670 -1.9340 -1.9708  0.8825
14656TIP3   OH265382   0.570   1.738   4.769  0.0355  0.6449 -0.2274
14656TIP3    H165383   0.580   1.762   4.677 -1.8320 -1.0755 -0.9433
14656TIP3    H265384   0.660   1.732   4.802  0.7585  0.8554 -2.0506
14657TIP3   OH265385   1.154   5.141   4.675  0.3215  0.0866  0.0429
14657TIP3    H165386   1.169   5.230   4.640 -1.1443  0.0531 -0.7790
14657TIP3    H265387   1.117   5.155   4.762 -1.8740  0.4077 -0.8698
14658TIP3   OH265388   0.633   4.481  12.756  0.2160  0.4778  0.2410
14658TIP3    H165389   0.688   4.559  12.766  1.2397 -0.0587 -0.9485
14658TIP3    H265390   0.684   4.422  12.702 -0.6628 -0.9310  0.8713
14659TIP3   OH265391   0.720   5.823   5.684  0.4677 -0.1299  0.2257
14659TIP3    H165392   0.631   5.857   5.692  0.8856  0.6021  2.7455
14659TIP3    H265393   0.764   5.883   5.625 -0.5198 -0.1040 -0.4989
14660TIP3   OH265394   5.550   2.993  11.983 -0.4718  0.3185 -0.3270
14660TIP3    H165395   5.530   3.069  12.037  0.9355  0.4309  0.0772
14660TIP3    H265396   5.545   3.025  11.893  2.6804  1.6433 -0.1368
14661TIP3   OH265397   6.690   6.084  15.678  0.6410  0.4243  0.4855
14661TIP3    H165398   6.733   6.150  15.623  0.0769  0.9410  0.6531
14661TIP3    H265399   6.598   6.090  15.654  0.8277 -1.8373 -1.1127
14662TIP3   OH265400   3.333   0.088  11.836  0.3226 -0.3220 -0.1180
14662TIP3    H165401   3.347  -0.003  11.859 -2.5035 -1.6692 -2.9459
14662TIP3    H265402   3.277   0.085  11.759  1.2397  3.8242 -1.1901
14663TIP3   OH265403   4.666   2.886  16.486 -0.3365  0.2988 -0.0856
14663TIP3    H165404   4.572   2.871  16.478 -0.6645  1.9245  0.5404
14663TIP3    H265405   4.695   2.904  16.396 -0.5515 -0.4560 -0.3181
14664TIP3   OH265406   1.668   6.486   1.506 -0.0265 -0.1484 -0.2172
14664TIP3    H165407   1.693   6.561   1.451 -2.6311  0.5448 -0.5880
14664TIP3    H265408   1.718   6.499   1.587 -0.2693  1.9322 -0.3255
14665TIP3   OH265409   1.271   1.425  16.075 -0.5126  0.0482 -0.4945
14665TIP3    H165410   1.235   1.366  16.141 -1.3682  0.2859 -0.7441
14665TIP3    H265411   1.312   1.367  16.011 -2.1523 -0.3672 -1.2290
14666TIP3   OH265412   5.322   1.068   2.863  0.4575 -0.3391 -0.1919
14666TIP3    H165413   5.340   1.161   2.847 -3.2596  0.4854 -0.5731
14666TIP3    H265414   5.317   1.029   2.776  3.4101 -1.3555 -0.0173
14667TIP3   OH265415   1.208   5.330  13.268  0.2775  0.0412  0.0062
14667TIP3    H165416   1.195   5.241  13.234  0.1564 -0.1906  0.6451
14667TIP3    H265417   1.178   5.387  13.197 -1.3256 -0.4450  0.2591
14668TIP3   OH265418   2.044   1.410  16.275 -0.4914 -0.2774 -0.7671
14668TIP3    H165419   1.988   1.486  16.288  1.5094  1.1565 -0.0924
14668TIP3    H265420   2.023   1.352  16.349 -1.6515 -0.1610 -0.9920
14669TIP3   OH265421   2.797   0.590  13.476  0.5552  0.3468  0.0035
14669TIP3    H165422   2.773   0.597  13.384  1.0356 -0.3770 -0.1884
14669TIP3    H265423   2.893   0.586  13.476  0.5306 -0.9015  0.4127
14670TIP3   OH265424   3.204   3.940  14.761  0.3081  0.0085  0.3948
14670TIP3    H165425   3.223   4.025  14.721 -1.0869  0.6629  1.0507
14670TIP3    H265426   3.127   3.909  14.714  0.4810 -0.6399  0.5350
14671TIP3   OH265427   1.462   6.730  12.462  0.3823 -0.1960 -0.0425
14671TIP3    H165428   1.426   6.643  12.443 -0.1705  0.3900 -1.8379
14671TIP3    H265429   1.557   6.718  12.457  0.3025 -0.6122 -0.7193
14672TIP3   OH265430   2.947   2.978  10.454 -0.2742  0.1123  0.3602
14672TIP3    H165431   2.916   2.964  10.543  0.7193  0.3886  0.7676
14672TIP3    H265432   3.042   2.990  10.463  0.1428 -1.7494 -0.9264
14673TIP3   OH265433   3.221   5.315  15.423 -0.4293  0.2236 -0.0142
14673TIP3    H165434   3.249   5.252  15.357 -0.8147 -0.0837  0.1129
14673TIP3    H265435   3.176   5.263  15.489 -1.7929  0.7470 -0.4824
14674TIP3   OH265436   1.128   4.368  10.926  0.2388  0.1398  0.4118
14674TIP3    H165437   1.068   4.442  10.929  0.6741  0.5277 -0.2902
14674TIP3    H265438   1.154   4.354  11.017  2.5927  2.8651  0.2871
14675TIP3   OH265439   5.155   1.217  14.807 -0.7057 -0.1210 -0.5540
14675TIP3    H165440   5.173   1.212  14.713 -0.8625  0.7657 -0.6330
14675TIP3    H265441   5.235   1.251  14.845 -1.0803  0.7574 -0.5280
14676TIP3   OH265442   2.496   0.814   1.075 -0.7078 -0.2417 -0.1680
14676TIP3    H165443   2.556   0.797   1.002 -0.2799 -1.2533  0.3962
14676TIP3    H265444   2.552   0.816   1.152 -1.2527  0.0463  0.2256
14677TIP3   OH265445   0.276   1.726  15.708 -0.4022 -0.4937  0.4924
14677TIP3    H165446   0.293   1.648  15.761  3.5900 -0.2429 -0.0814
14677TIP3    H265447   0.289   1.799  15.769  0.8986 -0.2674 -0.0167
14678TIP3   OH265448   6.421   6.266  13.509 -0.2497  0.4381  0.3368
14678TIP3    H165449   6.332   6.228  13.512 -1.0390  2.2246  0.6311
14678TIP3    H265450   6.437   6.294  13.599 -0.2495  1.9723 -0.1124
14679TIP3   OH265451   4.084   6.445   5.156 -0.1149  0.1140 -0.3025
14679TIP3    H165452   4.175   6.444   5.125 -0.6024  1.1918 -1.8983
14679TIP3    H265453   4.079   6.522   5.213  0.2954 -0.7516  0.9395
14680TIP3   OH265454   4.589   4.303  11.546 -0.3514  0.4838  0.1585
14680TIP3    H165455   4.644   4.264  11.614 -0.5595  1.1467  0.7169
14680TIP3    H265456   4.499   4.289  11.577 -0.4481  0.7884  0.0190
14681TIP3   OH265457   1.775   5.126  12.121 -0.1853 -0.4025  0.7355
14681TIP3    H165458   1.832   5.093  12.051 -0.3467 -1.6129  1.1526
14681TIP3    H265459   1.809   5.213  12.140 -0.2364  0.0273 -0.9529
14682TIP3   OH265460   5.105   1.710  11.803  0.0587  0.8418  0.4382
14682TIP3    H165461   5.013   1.699  11.783 -0.0812  0.0613  1.3959
14682TIP3    H265462   5.121   1.650  11.877  1.8192 -0.6696 -1.0529
14683TIP3   OH265463   6.371   0.313   6.445 -0.0575 -0.5505 -0.1413
14683TIP3    H165464   6.409   0.275   6.525 -1.5977 -0.9458  0.4389
14683TIP3    H265465   6.277   0.298   6.454 -0.3615  0.3473 -1.5505
14684TIP3   OH265466   5.851   2.010  11.955 -0.4711  0.2593  0.0011
14684TIP3    H165467   5.765   2.044  11.930 -2.6861 -4.5104  0.0426
14684TIP3    H265468   5.841   1.987  12.047  0.2189 -1.7127 -0.3658
14685TIP3   OH265469   0.989   5.696  15.719 -0.3227 -0.5936  0.5592
14685TIP3    H165470   1.052   5.639  15.675 -0.8279 -0.1718 -0.7559
14685TIP3    H265471   0.908   5.683  15.671 -0.5989  0.7730  0.6248
14686TIP3   OH265472   0.460   3.967  13.235 -0.1717 -0.0182 -0.0948
14686TIP3    H165473   0.448   4.047  13.287 -0.6424  0.1162 -0.4116
14686TIP3    H265474   0.424   3.988  13.149  0.2009 -0.3922 -0.3460
14687TIP3   OH265475   5.221   5.913  15.420  0.0678  0.1057  0.2690
14687TIP3    H165476   5.177   5.835  15.383 -0.0724  0.2931  0.0340
14687TIP3    H265477   5.308   5.882  15.444  0.9008  0.4165 -2.0719
14688TIP3   OH265478   3.050   6.555  13.077  0.4076  0.1177  0.1764
14688TIP3    H165479   2.959   6.585  13.082 -0.0672 -1.2259  0.2974
14688TIP3    H265480   3.088   6.580  13.161 -0.6559 -1.6046  1.2423
14689TIP3   OH265481   2.405   5.351   4.973 -0.0555  0.7392 -0.1111
14689TIP3    H165482   2.478   5.411   4.956  0.0102  0.7342  0.1573
14689TIP3    H265483   2.335   5.408   5.005  0.2361  0.5832  0.8162
14690TIP3   OH265484   5.017   1.221   5.660  0.1837 -0.3469 -0.7082
14690TIP3    H165485   4.940   1.243   5.608 -1.1762  0.2257  1.4253
14690TIP3    H265486   4.993   1.139   5.704  0.8114 -0.2238 -0.1212
14691TIP3   OH265487   5.564   1.551   4.156 -0.8314  0.1668 -0.2610
14691TIP3    H165488   5.551   1.535   4.250 -0.9720 -1.4770 -0.5448
14691TIP3    H265489   5.476   1.563   4.121 -0.7173  2.3903  0.0339
14692TIP3   OH265490   4.117   3.615  15.579 -0.1847 -0.9381  0.5291
14692TIP3    H165491   4.123   3.520  15.569  2.8689 -0.7962  0.1683
14692TIP3    H265492   4.188   3.637  15.638  0.0110  1.2550 -0.4418
14693TIP3   OH265493   4.217   5.511   4.527  0.3260 -0.3720 -0.1067
14693TIP3    H165494   4.293   5.538   4.476  0.7273 -2.0478 -0.4578
14693TIP3    H265495   4.252   5.455   4.596 -0.0249  2.8374  2.9821
14694TIP3   OH265496   1.196   4.369   1.730  0.1993 -0.2057  0.2353
14694TIP3    H165497   1.185   4.405   1.642  2.4309 -0.3658 -0.1565
14694TIP3    H265498   1.242   4.438   1.778  3.5924 -1.9158 -0.2231
14695TIP3   OH265499   6.014   0.759   1.646 -0.2425  0.1853  0.8285
14695TIP3    H165500   6.055   0.755   1.559  1.5213  0.0975  1.6140
14695TIP3    H265501   5.948   0.828   1.638  0.7730  1.0842 -0.2482
14696TIP3   OH265502   1.675   2.226   5.512  0.5191  0.0655 -0.3092
14696TIP3    H165503   1.732   2.235   5.588  1.6426 -0.4576 -1.0682
14696TIP3    H265504   1.682   2.134   5.488 -1.3090 -0.2113  0.0677
14697TIP3   OH265505   4.804   5.935   6.354 -0.3353  0.1032 -0.4266
14697TIP3    H165506   4.756   5.900   6.430  2.0022  0.2689  1.2494
14697TIP3    H265507   4.808   6.030   6.370 -0.4887  0.2454 -1.1931
14698TIP3   OH265508   2.786   2.910   3.645 -0.1863 -0.1595  0.1529
14698TIP3    H165509   2.833   2.869   3.718 -3.3139 -1.1884  1.7600
14698TIP3    H265510   2.822   2.999   3.641  2.7509 -1.2121  0.3398
14699TIP3   OH265511   5.196   3.895  16.879 -0.5165  0.0918  0.4447
14699TIP3    H165512   5.162   3.965  16.824 -0.2161  0.2298  0.4343
14699TIP3    H265513   5.118   3.852  16.913 -0.7802 -1.3718 -1.7807
14700TIP3   OH265514   1.021   4.458   2.347  0.6465 -0.4868  0.2473
14700TIP3    H165515   1.005   4.421   2.260  0.3552  1.0512 -0.3898
14700TIP3    H265516   1.116   4.461   2.355  0.6863  0.0092 -0.3270
14701TIP3   OH265517   5.379   5.405   5.864 -0.2952 -0.1810  0.2581
14701TIP3    H165518   5.445   5.336   5.866 -0.4179 -0.3753 -1.2066
14701TIP3    H265519   5.372   5.430   5.771 -1.3984  0.6817  0.5386
14702TIP3   OH265520   1.703   6.144  12.354 -0.5339 -0.4684  0.0740
14702TIP3    H165521   1.628   6.198  12.329 -0.5226 -1.2634 -1.7977
14702TIP3    H265522   1.771   6.166  12.292  0.5389 -0.3790  1.2350
14703TIP3   OH265523   2.220   0.215   0.781 -0.5204 -0.4294  0.5989
14703TIP3    H165524   2.176   0.140   0.742  3.0402 -0.9526 -3.0399
14703TIP3    H265525   2.249   0.184   0.867 -0.2466 -2.7937 -0.2854
14704TIP3   OH265526   3.998   1.541  15.419 -0.4405 -0.1535 -0.2174
14704TIP3    H165527   3.910   1.522  15.452 -2.3989  2.6981 -3.2143
14704TIP3    H265528   4.029   1.457  15.386 -1.0202 -1.6849  2.7601
14705TIP3   OH265529   5.150   6.643  12.139  0.3720 -0.9367 -0.5181
14705TIP3    H165530   5.066   6.638  12.185  0.1057  1.6692 -0.5557
14705TIP3    H265531   5.215   6.620  12.205 -0.0986  1.4868  0.9259
14706TIP3   OH265532   2.353   5.850   3.282  0.2751 -0.2079  0.3528
14706TIP3    H165533   2.410   5.784   3.321  0.0724 -1.9259 -2.0233
14706TIP3    H265534   2.401   5.881   3.206 -0.5835  0.7380  0.1790
14707TIP3   OH265535   2.052   2.633  12.539 -0.1476 -0.3222  0.0260
14707TIP3    H165536   2.046   2.572  12.613  0.4675 -1.3845 -0.7808
14707TIP3    H265537   2.127   2.603  12.488 -2.0935 -1.2769 -2.4743
14708TIP3   OH265538   2.422   0.824   6.052 -0.6489  0.7851 -0.4239
14708TIP3    H165539   2.362   0.770   6.103  0.1199  0.2820 -0.0549
14708TIP3    H265540   2.484   0.858   6.115  0.6117 -0.2377 -1.0689
14709TIP3   OH265541   6.108   5.021   4.839 -0.3082  0.2112 -0.0559
14709TIP3    H165542   6.185   4.995   4.890  1.7781  1.4135 -2.3336
14709TIP3    H265543   6.044   5.049   4.904  1.2093 -0.7341  1.9521
14710TIP3   OH265544   0.459   3.254   1.800 -0.3743  0.1780 -0.3766
14710TIP3    H165545   0.516   3.188   1.838 -0.3229 -0.1424 -0.9901
14710TIP3    H265546   0.497   3.272   1.714  0.8646  2.5845  0.5686
14711TIP3   OH265547   0.187   3.036   5.340 -0.3730 -0.3076 -0.5856
14711TIP3    H165548   0.149   2.957   5.303 -0.5112 -0.5084 -0.0120
14711TIP3    H265549   0.170   3.030   5.434 -0.6712  0.5545 -0.5775
14712TIP3   OH265550   2.821   0.338  11.826  0.0809 -0.2915  0.8572
14712TIP3    H165551   2.727   0.338  11.809  0.5779  1.4509 -3.1853
14712TIP3    H265552   2.845   0.431  11.830  1.7031 -0.6747  0.9766
14713TIP3   OH265553   4.510   5.957   3.331 -0.4750  0.3735 -0.3889
14713TIP3    H165554   4.442   5.894   3.305 -1.2433  0.8702  0.3339
14713TIP3    H265555   4.475   5.997   3.411  0.0006  1.6977 -0.8102
14714TIP3   OH265556   5.259   6.280   1.835 -0.0521 -0.1133 -0.4577
14714TIP3    H165557   5.182   6.243   1.791 -0.8154  1.3488 -0.4104
14714TIP3    H265558   5.240   6.273   1.928  0.8476 -1.7011 -0.3508
14715TIP3   OH265559   3.697   6.021  16.895 -0.0537 -0.2983  0.6422
14715TIP3    H165560   3.744   5.965  16.833 -0.0628 -2.3253  2.3971
14715TIP3    H265561   3.620   5.971  16.920 -0.6720  0.9921  1.4250
14716TIP3   OH265562   2.701   0.324  14.070  0.2637 -0.3268  0.2944
14716TIP3    H165563   2.718   0.274  13.990  0.3271 -0.1754  0.2123
14716TIP3    H265564   2.764   0.291  14.133  1.4160  0.7610 -0.2281
14717TIP3   OH265565   6.704   5.681   2.248  0.6901 -0.0733  1.0197
14717TIP3    H165566   6.627   5.658   2.300  0.4506 -0.3697  0.5392
14717TIP3    H265567   6.763   5.606   2.257 -0.5252 -1.4263 -1.3951
14718TIP3   OH265568   5.875   1.452  16.255  0.3822  0.5102 -0.0860
14718TIP3    H165569   5.896   1.378  16.198 -0.5895 -0.3568  0.6441
14718TIP3    H265570   5.960   1.492  16.275  1.0047 -0.8412  0.0749
14719TIP3   OH265571   1.092   0.881  12.006 -0.4810  0.7487  0.2489
14719TIP3    H165572   1.057   0.893  11.917  0.2217  1.4961  0.0592
14719TIP3    H265573   1.059   0.796  12.033 -3.1160  1.7481  0.3972
14720TIP3   OH265574   5.955   3.188   3.973  0.7045 -0.4230  0.6370
14720TIP3    H165575   5.964   3.113   4.032  1.7339 -0.5405  0.3467
14720TIP3    H265576   6.045   3.215   3.955  0.3709  0.2036 -0.1288
14721TIP3   OH265577   0.599   6.232  12.553  0.0715  0.0997 -0.2442
14721TIP3    H165578   0.554   6.316  12.553  0.4529  0.3039 -0.4590
14721TIP3    H265579   0.546   6.176  12.611  0.0113  0.5798  0.1645
14722TIP3   OH265580   6.627   4.067   3.260  0.2319 -0.2151 -0.2949
14722TIP3    H165581   6.591   4.144   3.305  0.2515  0.0099 -0.6571
14722TIP3    H265582   6.686   4.104   3.195 -0.8286 -0.4753 -1.4332
14723TIP3   OH265583   1.127   4.702   2.964 -0.3856  0.4713 -0.2799
14723TIP3    H165584   1.065   4.630   2.952 -1.1387  0.9630  0.5288
14723TIP3    H265585   1.171   4.711   2.879  1.0671 -2.1387  0.1025
14724TIP3   OH265586   1.435   1.233  16.933 -0.1801  0.0075  0.0833
14724TIP3    H165587   1.471   1.263  17.017 -0.9550  0.5450  0.2358
14724TIP3    H265588   1.487   1.280  16.867 -1.9503  2.5258  0.3226
14725TIP3   OH265589   3.152   4.234   5.047  0.1836  0.7952  0.4467
14725TIP3    H165590   3.241   4.252   5.017  0.0457  0.4126 -0.2055
14725TIP3    H265591   3.134   4.302   5.112  0.8038  1.1093  0.2936
14726TIP3   OH265592   1.292   1.656  12.639  0.0678  0.2006 -0.6635
14726TIP3    H165593   1.355   1.713  12.595 -0.2361  2.4931  1.6373
14726TIP3    H265594   1.346   1.587  12.679  0.8954  1.0069 -0.3686
14727TIP3   OH265595   1.430   0.015   2.691  0.2317 -0.0271 -0.1258
14727TIP3    H165596   1.514   0.045   2.657  0.0332  0.2569 -0.3643
14727TIP3    H265597   1.365   0.044   2.626 -0.4882  2.8831  1.7187
14728TIP3   OH265598   3.188   0.472  12.109  0.4650  0.4309 -0.3044
14728TIP3    H165599   3.166   0.565  12.109 -1.0310  0.1176  0.1778
14728TIP3    H265600   3.182   0.446  12.201 -3.1009 -0.9188 -0.7564
14729TIP3   OH265601   3.425   2.134   0.444 -1.0145  0.6758  0.1433
14729TIP3    H165602   3.511   2.173   0.460 -0.9966  1.0647 -0.8317
14729TIP3    H265603   3.418   2.064   0.509  0.6689 -0.3568 -0.7355
14730TIP3   OH265604   5.558   3.052  15.475  0.8245  0.1884 -0.1643
14730TIP3    H165605   5.478   3.099  15.495 -0.0798 -1.7534  1.1641
14730TIP3    H265606   5.555   3.037  15.381 -0.6426 -0.2802 -0.0585
14731TIP3   OH265607   0.905   3.239  14.022  0.1802 -0.5252  0.0507
14731TIP3    H165608   0.887   3.298  13.949 -0.4910 -0.3680  0.3369
14731TIP3    H265609   0.886   3.152  13.988  0.4130 -0.5082 -0.1289
14732TIP3   OH265610   4.067   4.858   6.652  0.2241  0.6245 -0.5043
14732TIP3    H165611   4.127   4.863   6.727 -0.7969  1.1667  0.3117
14732TIP3    H265612   4.119   4.820   6.582  0.9802 -0.7619  0.7341
14733TIP3   OH265613   1.436   5.759  10.525  0.1540  0.3238 -0.8436
14733TIP3    H165614   1.494   5.701  10.476  2.4187  1.2087  0.6012
14733TIP3    H265615   1.465   5.847  10.502 -0.6968  0.8100 -0.1280
14734TIP3   OH265616   3.238   4.154  16.801 -0.1280  0.2275  0.9156
14734TIP3    H165617   3.240   4.239  16.844 -0.4834  0.0939  1.2113
14734TIP3    H265618   3.144   4.132  16.798 -0.2236  0.7513 -0.9664
14735TIP3   OH265619   2.676   5.195  17.156 -0.1453  0.1696 -0.1225
14735TIP3    H165620   2.646   5.138  17.086  0.2566  1.4009 -1.3496
14735TIP3    H265621   2.600   5.250  17.176 -0.8475 -1.3949  1.7510
14736TIP3   OH265622   4.852   0.951   6.255 -0.5214 -0.0189  0.0111
14736TIP3    H165623   4.779   0.906   6.213 -0.5925  0.6788 -0.6281
14736TIP3    H265624   4.930   0.923   6.208 -0.7298  1.7858 -1.5388
14737TIP3   OH265625   1.451   0.863  15.498  0.3532  0.1762  0.3595
14737TIP3    H165626   1.519   0.895  15.557  0.0378 -1.5139  1.7290
14737TIP3    H265627   1.462   0.768  15.497 -0.2523  0.0754 -1.6215
14738TIP3   OH265628   5.535   5.740   1.961 -0.3174  0.0531 -0.1605
14738TIP3    H165629   5.563   5.830   1.982  0.4008  0.6626 -3.2208
14738TIP3    H265630   5.612   5.686   1.983  0.3872  0.6416 -1.0867
14739TIP3   OH265631   2.692   1.060   4.393 -0.2019 -0.0744  0.1408
14739TIP3    H165632   2.759   1.121   4.361  1.3115 -1.5544  0.3627
14739TIP3    H265633   2.697   1.068   4.489  0.6778 -1.1819  0.2125
14740TIP3   OH265634   3.690   0.354   6.654 -0.0080 -0.0302 -0.6497
14740TIP3    H165635   3.766   0.299   6.673  0.6304  1.2295  0.6227
14740TIP3    H265636   3.622   0.322   6.713  0.1872  0.1814 -0.3093
14741TIP3   OH265637   4.654   1.851   4.076  0.5352  0.3073 -0.1274
14741TIP3    H165638   4.627   1.874   3.987  2.1983 -0.3131 -0.8200
14741TIP3    H265639   4.676   1.758   4.072  0.6752  0.2834  0.9290
14742TIP3   OH265640   2.911   4.677   4.898 -0.3832  0.1358 -0.2516
14742TIP3    H165641   2.843   4.688   4.832  0.8466 -0.3493 -1.6499
14742TIP3    H265642   2.918   4.582   4.909  0.8589  0.1380 -0.9782
14743TIP3   OH265643   1.495   3.629   4.870  0.6440 -0.5021  0.8334
14743TIP3    H165644   1.441   3.552   4.889  1.2795 -0.6329  2.1738
14743TIP3    H265645   1.512   3.668   4.955 -1.9121  2.7321  0.0853
14744TIP3   OH265646   3.081   0.588  17.100 -0.2468  0.1561  0.1298
14744TIP3    H165647   3.089   0.600  17.005 -0.8462  0.8105  0.1541
14744TIP3    H265648   3.151   0.527  17.122  0.2779  0.4597 -0.6431
14745TIP3   OH265649   5.677   1.213  12.121 -0.6295  0.2136 -0.6285
14745TIP3    H165650   5.660   1.212  12.027  0.4658  0.4704 -0.8517
14745TIP3    H265651   5.705   1.123  12.141 -1.7185 -0.0825 -0.3576
14746TIP3   OH265652   4.886   1.083   3.839  0.1054  0.8093 -0.4876
14746TIP3    H165653   4.866   0.992   3.821  0.5242  0.4195  0.8560
14746TIP3    H265654   4.805   1.120   3.873  0.3231  0.5399  0.3389
14747TIP3   OH265655   3.704   0.933  16.572 -0.8213 -0.8210  0.0558
14747TIP3    H165656   3.709   0.999  16.641  0.2318 -0.2310 -0.5452
14747TIP3    H265657   3.636   0.965  16.513  1.5774  1.3355 -1.7577
14748TIP3   OH265658   5.826   6.612  13.625 -0.5744 -0.4981  0.2507
14748TIP3    H165659   5.835   6.685  13.563 -0.9896 -0.2093  0.5272
14748TIP3    H265660   5.871   6.642  13.704  1.1450 -1.4000 -0.3372
14749TIP3   OH265661   5.192   6.316   5.960  0.1436 -0.4470  0.3681
14749TIP3    H165662   5.232   6.318   5.874 -0.3401 -2.1280  0.0769
14749TIP3    H265663   5.111   6.367   5.950  0.8093  0.6297  0.2558
14750TIP3   OH265664   5.823   1.324   4.940 -0.3589 -0.4531  0.3580
14750TIP3    H165665   5.791   1.369   5.018 -1.4716  1.3517 -1.0525
14750TIP3    H265666   5.756   1.258   4.921  0.4522 -1.6478  1.4891
14751TIP3   OH265667   5.093   3.425   3.082 -0.6605 -0.1390 -0.1662
14751TIP3    H165668   5.074   3.361   3.151 -1.8596 -0.5444 -0.8461
14751TIP3    H265669   5.040   3.501   3.103  1.2878  0.9789  1.0317
14752TIP3   OH265670   1.061   0.306  15.857  0.0815 -0.3387  0.3411
14752TIP3    H165671   1.069   0.309  15.761  1.5998 -0.6590  0.4286
14752TIP3    H265672   1.109   0.382  15.888 -0.4212 -0.2258  0.8567
14753TIP3   OH265673   1.020   5.516   2.567  0.8226 -0.1114  0.1898
14753TIP3    H165674   0.926   5.514   2.587  1.2568 -0.3603  2.4838
14753TIP3    H265675   1.054   5.435   2.606  1.8799 -0.4939 -1.4159
14754TIP3   OH265676   3.515   0.016  13.903  0.3887  0.3437  0.2002
14754TIP3    H165677   3.531   0.108  13.925 -0.2304  1.3876 -3.2094
14754TIP3    H265678   3.584  -0.007  13.842 -1.0777 -0.5087 -1.2248
14755TIP3   OH265679   5.369   4.248   0.551 -0.2884 -0.1982 -0.2214
14755TIP3    H165680   5.361   4.305   0.475  0.8273 -1.1303 -1.0886
14755TIP3    H265681   5.323   4.168   0.525 -0.9806 -0.0688  0.5878
14756TIP3   OH265682   5.861   0.503   2.820  0.0588 -0.4723 -0.4023
14756TIP3    H165683   5.887   0.578   2.872  2.0248 -0.9045 -0.6961
14756TIP3    H265684   5.777   0.528   2.781 -0.6412  0.4982  1.6004
14757TIP3   OH265685   3.042   5.090   5.685 -0.1561  0.0550 -0.1332
14757TIP3    H165686   3.090   5.166   5.718  1.3163 -1.0222  0.3135
14757TIP3    H265687   2.954   5.123   5.668  0.3066  1.7387  0.5151
14758TIP3   OH265688   3.720   4.143  13.513  0.1829 -0.1336  0.3251
14758TIP3    H165689   3.632   4.110  13.496  1.0232 -0.6915 -4.3086
14758TIP3    H265690   3.754   4.087  13.583 -2.1854 -1.7330  0.2887
14759TIP3   OH265691   2.473   2.433   0.001  0.3947  0.3683 -0.5364
14759TIP3    H165692   2.442   2.513   0.043  0.7714  0.1358  0.2166
14759TIP3    H265693   2.395   2.377  -0.004 -0.4310  1.6138 -3.2098
14760TIP3   OH265694   3.298   6.143   4.963  0.6486 -0.2282 -0.2542
14760TIP3    H165695   3.344   6.217   4.923  1.2873 -0.4348  0.0978
14760TIP3    H265696   3.235   6.183   5.022  3.1467  0.0743  2.4399
14761TIP3   OH265697   5.637   5.007   3.173  0.1764  0.3771  0.7275
14761TIP3    H165698   5.713   4.957   3.143  0.1754  0.1448  1.1149
14761TIP3    H265699   5.674   5.089   3.206  0.0689  1.2103 -1.1252
14762TIP3   OH265700   6.645   0.311  14.162  0.7512 -0.1349  0.3345
14762TIP3    H165701   6.558   0.279  14.185 -0.2561  1.9757 -0.3078
14762TIP3    H265702   6.677   0.353  14.242  1.6721 -1.8003  0.8880
14763TIP3   OH265703   1.030   1.340   3.834 -0.1408 -0.1162 -0.2083
14763TIP3    H165704   1.022   1.282   3.758 -0.2699 -1.5190  0.8318
14763TIP3    H265705   0.972   1.414   3.815  1.5360  0.7473 -2.4660
14764TIP3   OH265706   3.341   5.726   0.523 -0.7699 -0.3717 -0.3913
14764TIP3    H165707   3.280   5.727   0.597 -0.0021  0.4044  0.2502
14764TIP3    H265708   3.349   5.818   0.497 -0.8674 -0.6143 -1.3044
14765TIP3   OH265709   1.321   3.270   4.514  0.0043  0.3569  0.1995
14765TIP3    H165710   1.384   3.200   4.530 -1.0292 -0.5231  0.5226
14765TIP3    H265711   1.354   3.344   4.565  1.7979  0.5422 -1.1375
14766TIP3   OH265712   4.504   4.604   4.205  0.5475 -0.3077  0.0504
14766TIP3    H165713   4.541   4.579   4.120 -0.5559  2.2525 -1.2988
14766TIP3    H265714   4.429   4.659   4.183 -1.2500 -1.4894  2.7248
14767TIP3   OH265715   0.946   2.141   2.522 -0.4357 -0.3995  0.0504
14767TIP3    H165716   0.866   2.170   2.566 -0.5197 -0.5109 -0.0282
14767TIP3    H265717   0.992   2.089   2.588  0.9220  1.8992  1.0505
14768TIP3   OH265718   3.337   5.971   5.361  0.1102  0.3811  0.1085
14768TIP3    H165719   3.424   5.987   5.397  0.7325 -0.6842 -0.8957
14768TIP3    H265720   3.351   5.915   5.285 -1.2865  1.5705 -1.1008
14769TIP3   OH265721   5.612   6.212   5.898 -0.2348 -0.2226 -0.0519
14769TIP3    H165722   5.591   6.194   5.989  0.1131  0.5476  0.1867
14769TIP3    H265723   5.527   6.219   5.854 -0.4364 -3.3098 -0.3780
14770TIP3   OH265724   0.828   4.664  14.523 -0.0442  0.7228 -0.0177
14770TIP3    H165725   0.737   4.682  14.546 -0.2449 -1.5206  1.2826
14770TIP3    H265726   0.830   4.570  14.503  1.9311  0.7714 -0.2956
14771TIP3   OH265727   2.049   1.705  16.626  0.4876 -0.1075 -0.4283
14771TIP3    H165728   2.083   1.771  16.566 -1.8048 -0.7828 -2.6366
14771TIP3    H265729   2.061   1.622  16.580 -0.2279 -0.7881  0.5723
14772TIP3   OH265730   1.339   4.396   4.835 -0.6255 -0.1951  0.2710
14772TIP3    H165731   1.412   4.339   4.860 -0.6268  0.2367  1.3055
14772TIP3    H265732   1.265   4.337   4.825 -0.3693 -0.5110  0.2238
14773TIP3   OH265733   6.354   2.733   4.745 -0.7243 -0.3364  0.2228
14773TIP3    H165734   6.364   2.781   4.827  1.4908 -0.3077 -0.0256
14773TIP3    H265735   6.397   2.649   4.761  0.1709 -0.1386 -1.0420
14774TIP3   OH265736   5.302   4.768   6.341  0.1558 -0.5594  0.4175
14774TIP3    H165737   5.250   4.794   6.264  1.1377  1.2759  0.3341
14774TIP3    H265738   5.388   4.747   6.305  1.0920  1.7897  1.1083
14775TIP3   OH265739   3.263   6.399  14.828 -0.3423  0.1701 -0.3159
14775TIP3    H165740   3.224   6.438  14.906 -1.6009 -1.6955  0.0259
14775TIP3    H265741   3.358   6.405  14.844 -0.5437  1.2982  0.5826
14776TIP3   OH265742   2.753   4.213   2.479  0.0771  0.0363 -0.1106
14776TIP3    H165743   2.661   4.229   2.500  0.0145  0.2992 -0.5473
14776TIP3    H265744   2.753   4.201   2.384  0.5459  0.4769 -0.1723
14777TIP3   OH265745   1.123   6.602   2.100  0.3600  0.0359 -0.0527
14777TIP3    H165746   1.112   6.644   2.015  0.6691 -2.6106 -1.4866
14777TIP3    H265747   1.132   6.509   2.081  0.3853 -0.6834  2.8968
14778TIP3   OH265748   5.238   6.122  15.917 -0.4354  0.2018 -0.7604
14778TIP3    H165749   5.286   6.088  15.992  0.3698  2.3968 -0.2165
14778TIP3    H265750   5.220   6.044  15.863 -0.0605 -1.2689  1.1144
14779TIP3   OH265751   3.546   0.033  16.156  0.2302  0.2355 -0.0414
14779TIP3    H165752   3.637   0.062  16.166  0.5075 -0.0790 -1.4710
14779TIP3    H265753   3.495   0.100  16.202  1.2168 -0.1642  1.7524
14780TIP3   OH265754   6.330   6.500  11.169 -0.3129 -0.2648  0.1902
14780TIP3    H165755   6.290   6.553  11.099 -1.7234 -1.4055  0.0728
14780TIP3    H265756   6.396   6.447  11.124 -0.5895 -0.3427 -0.1358
14781TIP3   OH265757   6.705   2.988   4.455 -0.4823  0.5762 -0.0607
14781TIP3    H165758   6.791   3.017   4.487  0.3103  0.1791 -1.7384
14781TIP3    H265759   6.646   3.003   4.529  1.2850 -0.5419  1.6788
14782TIP3   OH265760   0.071   4.475  13.596 -0.0727 -0.0217  0.6461
14782TIP3    H165761   0.135   4.513  13.536 -0.6457 -1.2348 -0.7756
14782TIP3    H265762  -0.008   4.528  13.583  0.4304  1.1356  2.0132
14783TIP3   OH265763   3.853   1.807   2.276 -0.2228 -0.4825  0.4249
14783TIP3    H165764   3.936   1.850   2.258 -1.0057  0.4540 -1.1432
14783TIP3    H265765   3.808   1.867   2.337  0.4176 -1.2302  1.6694
14784TIP3   OH265766   4.283   3.944   3.401 -0.4852 -0.2480 -1.0936
14784TIP3    H165767   4.313   4.011   3.340 -1.1924  0.1334 -1.0301
14784TIP3    H265768   4.352   3.940   3.468 -0.1562 -0.0050 -1.4135
14785TIP3   OH265769   0.348   1.656  12.327 -0.4047  0.2389 -0.2309
14785TIP3    H165770   0.405   1.697  12.391  1.4666  0.8207 -2.1457
14785TIP3    H265771   0.400   1.585  12.290 -2.3677 -1.7849  0.6295
14786TIP3   OH265772   6.392   5.915  16.704 -0.0935  0.1654 -0.4096
14786TIP3    H165773   6.449   5.873  16.639  0.9723  1.0495 -0.0731
14786TIP3    H265774   6.307   5.919  16.661  0.6944  1.1947 -1.9899
14787TIP3   OH265775   2.201   4.818   4.621 -0.2060 -0.2368 -0.3223
14787TIP3    H165776   2.269   4.885   4.623  1.1316 -1.3720 -3.0502
14787TIP3    H265777   2.247   4.736   4.636 -1.1629 -0.9092 -0.9378
14788TIP3   OH265778   2.548   2.895  13.285  0.2961 -0.0945  0.2065
14788TIP3    H165779   2.590   2.956  13.225 -1.6709  1.4337  0.2688
14788TIP3    H265780   2.554   2.938  13.370 -3.5857  1.5798 -0.1668
14789TIP3   OH265781   6.621   6.753   2.319 -0.0933  0.4076  0.0843
14789TIP3    H165782   6.691   6.779   2.379  0.1915 -0.9705  0.3671
14789TIP3    H265783   6.658   6.682   2.267 -0.1299  1.9483 -2.1941
14790TIP3   OH265784   5.678   4.700   1.754  0.2705 -0.2181 -0.4313
14790TIP3    H165785   5.648   4.708   1.844  1.9778  1.6407  0.0373
14790TIP3    H265786   5.728   4.618   1.752 -0.4318 -0.6685  0.0778
14791TIP3   OH265787   4.515   1.865  12.793 -0.3161  0.5408  0.5050
14791TIP3    H165788   4.526   1.850  12.887  0.7737 -1.1574  0.1484
14791TIP3    H265789   4.574   1.803  12.751 -0.8663  1.1721 -1.3263
14792TIP3   OH265790   4.544   5.614  14.292  0.1826  0.2797 -0.6905
14792TIP3    H165791   4.534   5.691  14.236 -0.8508  0.1972 -0.6409
14792TIP3    H265792   4.459   5.570  14.287  0.9254 -1.1411 -1.1246
14793TIP3   OH265793   5.244   3.595  14.298 -0.3164  0.8111 -0.1516
14793TIP3    H165794   5.200   3.517  14.333  0.2222  0.6443  0.1607
14793TIP3    H265795   5.276   3.568  14.213  1.5435  0.0724  0.7357
14794TIP3   OH265796   2.413   4.175   0.431  0.2025  0.2070  0.1827
14794TIP3    H165797   2.369   4.146   0.512  0.1787 -2.8656 -0.7944
14794TIP3    H265798   2.382   4.265   0.418 -3.3777 -0.7144  1.2206
14795TIP3   OH265799   4.408   2.224  10.558 -0.2801  0.7096  1.2272
14795TIP3    H165800   4.373   2.144  10.517 -1.4003  0.7454  2.0655
14795TIP3    H265801   4.431   2.280  10.484 -1.5976  0.4862  0.6108
14796TIP3   OH265802   4.064   3.627  10.932  0.4797  0.0679 -0.0412
14796TIP3    H165803   4.156   3.608  10.949  0.1647 -0.3048  1.4242
14796TIP3    H265804   4.019   3.600  11.012 -0.6758  1.9907  0.0124
14797TIP3   OH265805   3.245   6.469  10.562 -0.5173  0.0017 -0.8027
14797TIP3    H165806   3.231   6.379  10.531 -0.7016 -0.1236 -0.3725
14797TIP3    H265807   3.166   6.516  10.536 -1.7348 -0.6570  1.4525
14798TIP3   OH265808   6.397   6.345  15.080  0.0483 -0.2211  0.4652
14798TIP3    H165809   6.391   6.292  15.159  1.1916 -1.4427 -0.2207
14798TIP3    H265810   6.307   6.374  15.063 -0.8619 -2.8546  0.2990
14799TIP3   OH265811   1.234   2.244   2.708 -0.3741 -0.1131  0.0974
14799TIP3    H165812   1.321   2.256   2.669  1.4728  0.9564  3.9990
14799TIP3    H265813   1.194   2.331   2.705 -0.0376  0.0783  0.8832
14800TIP3   OH265814   6.571   6.638  14.145 -0.0817  0.1175 -0.0513
14800TIP3    H165815   6.500   6.700  14.158 -1.4554 -0.5253 -3.6245
14800TIP3    H265816   6.535   6.554  14.172 -0.5691 -0.1269 -1.3962
14801TIP3   OH265817   6.441   2.407   5.363 -0.0574 -0.2331  0.1606
14801TIP3    H165818   6.478   2.405   5.451 -0.6259  1.8731  0.4765
14801TIP3    H265819   6.348   2.427   5.375 -0.1781 -0.0619 -0.9149
14802TIP3   OH265820   0.353   4.061  15.743 -0.0365  0.2302 -0.3502
14802TIP3    H165821   0.424   4.116  15.777 -0.6538  1.5224 -1.0832
14802TIP3    H265822   0.351   3.985  15.801 -2.0149  2.9374  3.5547
14803TIP3   OH265823   5.145   3.082  15.659 -0.2854  0.6534  0.3895
14803TIP3    H165824   5.116   3.028  15.733 -0.9161 -0.0157 -0.3374
14803TIP3    H265825   5.188   3.021  15.600  0.0031  1.1459  0.0864
14804TIP3   OH265826   4.470   3.595   3.576  0.1484  0.1231  0.5444
14804TIP3    H165827   4.530   3.586   3.650  2.0310 -2.3631 -1.1085
14804TIP3    H265828   4.483   3.515   3.525 -1.1739  1.6366 -2.4075
14805TIP3   OH265829   5.391   5.524  10.694  0.0393  0.5720  0.1758
14805TIP3    H165830   5.468   5.485  10.737  0.3722  0.6881 -0.3048
14805TIP3    H265831   5.351   5.451  10.647 -0.1239  0.5207  0.3910
14806TIP3   OH265832   0.780   0.224  15.175 -0.0792  0.1166 -0.1477
14806TIP3    H165833   0.862   0.213  15.224  0.7343 -0.0730 -1.5103
14806TIP3    H265834   0.766   0.319  15.174  0.6214  0.2267 -0.6605
14807TIP3   OH265835   4.604   4.228   1.284 -0.1101 -0.1862 -0.1805
14807TIP3    H165836   4.643   4.155   1.333 -2.2490 -1.2019  0.1347
14807TIP3    H265837   4.662   4.239   1.208  0.7962 -1.5689  0.2569
14808TIP3   OH265838   4.995   4.461   2.974  0.0930 -0.4549 -0.4596
14808TIP3    H165839   4.916   4.466   2.920 -0.5791 -1.8072  0.3460
14808TIP3    H265840   5.014   4.552   2.997 -0.8133 -0.0452 -1.2350
14809TIP3   OH265841   0.759   3.441  16.699  0.0766 -0.5373  0.3963
14809TIP3    H165842   0.752   3.418  16.607 -0.5694 -2.5682  0.8968
14809TIP3    H265843   0.673   3.476  16.722 -0.1922 -1.2521  0.5092
14810TIP3   OH265844   2.852   0.089   4.201  0.3684  0.5205  0.0577
14810TIP3    H165845   2.799   0.033   4.144 -0.6545  0.5787  0.9021
14810TIP3    H265846   2.867   0.035   4.279  4.3668 -0.7368 -1.3622
14811TIP3   OH265847   4.980   5.452  12.936  0.4612 -0.4502 -0.5837
14811TIP3    H165848   4.895   5.453  12.979  0.8737 -1.4641  0.3182
14811TIP3    H265849   5.039   5.497  12.996  0.6490 -0.1253 -1.0046
14812TIP3   OH265850   3.749   3.541  13.106  0.3179 -0.0126  0.3131
14812TIP3    H165851   3.805   3.466  13.127  1.2789  0.5422 -0.1808
14812TIP3    H265852   3.697   3.512  13.031 -0.2244 -0.6026  0.8973
14813TIP3   OH265853   4.437   6.005  12.002  0.0953  0.6335 -0.1337
14813TIP3    H165854   4.382   5.946  11.951 -0.1646  0.4628  0.3348
14813TIP3    H265855   4.517   5.954  12.019  0.6995  1.1191 -1.3861
14814TIP3   OH265856   4.336   4.206   4.623  0.6842 -0.2697  0.0812
14814TIP3    H165857   4.409   4.148   4.603  0.5705 -0.5259  0.3921
14814TIP3    H265858   4.333   4.268   4.551 -1.1475 -2.5367 -1.9548
14815TIP3   OH265859   6.423   1.168   5.401  0.4635 -0.2638  1.1739
14815TIP3    H165860   6.495   1.165   5.339 -0.1987  0.5696  0.3223
14815TIP3    H265861   6.345   1.179   5.347 -0.5448 -2.8514  1.9387
14816TIP3   OH265862   5.269   6.105  11.926 -0.3683  0.0230 -1.0244
14816TIP3    H165863   5.261   6.173  11.993  0.5759  0.5902 -1.4627
14816TIP3    H265864   5.223   6.030  11.963  0.0079  0.3676  0.1991
14817TIP3   OH265865   5.562   3.845   2.119 -0.1103 -0.1757 -0.3167
14817TIP3    H165866   5.482   3.890   2.092 -0.3057  0.3674  1.0892
14817TIP3    H265867   5.565   3.856   2.214 -0.5401 -3.7072  0.2494
14818TIP3   OH265868   6.531   2.565  16.701  0.0938 -0.2673 -0.6480
14818TIP3    H165869   6.471   2.603  16.637  0.4932 -0.2160 -0.9966
14818TIP3    H265870   6.552   2.637  16.760 -0.7118 -0.4488 -0.1132
14819TIP3   OH265871   0.402   4.859  11.773  0.2760 -0.2216  1.2071
14819TIP3    H165872   0.310   4.840  11.792 -0.7263  1.2179 -1.6026
14819TIP3    H265873   0.446   4.775  11.783 -1.3852 -1.0247  2.2846
14820TIP3   OH265874   5.046   3.962  12.758 -0.4996  0.3766  0.0677
14820TIP3    H165875   5.060   3.984  12.666 -2.2941 -1.2029 -0.6666
14820TIP3    H265876   5.070   3.870  12.765  1.0798  0.8412  1.5990
14821TIP3   OH265877   3.857   5.165   2.952 -0.1790  0.2133  0.1217
14821TIP3    H165878   3.899   5.083   2.929  1.7490  1.2582 -0.3165
14821TIP3    H265879   3.787   5.175   2.888 -0.0300 -0.7735 -0.2052
14822TIP3   OH265880   6.628   0.288   0.718 -0.0938 -0.3371 -0.8909
14822TIP3    H165881   6.721   0.268   0.719 -0.4944 -2.4533  0.6151
14822TIP3    H265882   6.621   0.372   0.763  0.9685 -0.9813  0.5378
14823TIP3   OH265883   3.211   3.473   3.067 -0.0942 -0.0673  0.2384
14823TIP3    H165884   3.132   3.497   3.115 -0.4992 -0.9302  0.0198
14823TIP3    H265885   3.224   3.380   3.086  0.5130 -0.0890 -0.2266
14824TIP3   OH265886   6.275   0.458  13.522 -0.0909  0.0183  0.6098
14824TIP3    H165887   6.191   0.503  13.512  0.4167  1.3109  1.8385
14824TIP3    H265888   6.312   0.456  13.434 -0.8485  0.5555  0.2708
14825TIP3   OH265889   5.771   4.269   0.818 -0.1682 -0.0381 -0.1206
14825TIP3    H165890   5.802   4.209   0.886  0.4296  0.2634 -0.1180
14825TIP3    H265891   5.755   4.352   0.864  0.2311  0.1650 -0.3351
14826TIP3   OH265892   1.523   5.429  12.668 -0.0691 -0.0040 -0.2853
14826TIP3    H165893   1.617   5.422  12.654  0.3055 -0.5228  1.9965
14826TIP3    H265894   1.485   5.365  12.608  0.9422  0.6511 -1.6843
14827TIP3   OH265895   5.205   2.419   2.614 -0.3598  0.0456  0.2894
14827TIP3    H165896   5.218   2.388   2.524 -0.5923  2.3254 -0.5984
14827TIP3    H265897   5.290   2.451   2.641 -0.5153  0.2971  0.4829
14828TIP3   OH265898   2.218   4.783   5.911 -0.3068  0.3663 -0.0531
14828TIP3    H165899   2.297   4.729   5.909  0.1408  1.0030  0.0201
14828TIP3    H265900   2.240   4.860   5.859 -0.0294  1.6574  1.8793
14829TIP3   OH265901   0.564   6.416   3.427 -0.5664 -0.1652  0.1302
14829TIP3    H165902   0.549   6.381   3.515 -1.9365 -0.8477 -0.3350
14829TIP3    H265903   0.494   6.377   3.374 -1.1863  2.0436 -0.7760
14830TIP3   OH265904   3.385   0.381  13.519  0.8748  0.0280  0.2660
14830TIP3    H165905   3.322   0.309  13.523  0.8005  0.1439  1.3175
14830TIP3    H265906   3.399   0.395  13.425 -0.4159 -0.2128  0.0184
14831TIP3   OH265907   3.912   2.598  15.340  0.2051  0.5052  0.0489
14831TIP3    H165908   3.981   2.608  15.275  0.4745  0.9970  0.4051
14831TIP3    H265909   3.846   2.663  15.314  1.0709  1.9000  1.2273
14832TIP3   OH265910   6.218   4.842   4.649  0.5882 -0.4722  0.4043
14832TIP3    H165911   6.279   4.847   4.723  0.0408 -1.0058  0.8965
14832TIP3    H265912   6.144   4.896   4.676  0.0618 -1.2625  0.5606
14833TIP3   OH265913   1.207   3.922  15.614 -0.5625  0.2796 -0.0134
14833TIP3    H165914   1.164   3.853  15.663  0.8551  0.1266  1.0789
14833TIP3    H265915   1.193   4.001  15.665  3.4078 -0.3412  2.4426
14834TIP3   OH265916   0.073   6.779   5.957 -0.0875 -0.4311  0.4560
14834TIP3    H165917   0.008   6.840   5.921  0.3105 -0.6027 -0.5711
14834TIP3    H265918   0.055   6.696   5.912 -0.1405 -0.8950  1.2991
14835TIP3   OH265919   2.768   6.474  10.795  0.1782 -0.0406 -0.0751
14835TIP3    H165920   2.765   6.544  10.861 -0.6501  0.3183 -0.4770
14835TIP3    H265921   2.716   6.403  10.833 -1.4564  0.6683 -0.8698
14836TIP3   OH265922   1.857   2.728   3.089 -0.3334  0.0846  0.1531
14836TIP3    H165923   1.819   2.816   3.096 -2.6651 -0.5939 -2.1996
14836TIP3    H265924   1.926   2.737   3.024  0.2479  0.3861  0.8030
14837TIP3   OH265925   6.232   1.324   0.364  0.0716  0.1913 -0.3201
14837TIP3    H165926   6.188   1.408   0.357  0.7275  0.4374 -2.1888
14837TIP3    H265927   6.275   1.326   0.449 -2.3038  0.5132  0.9360
14838TIP3   OH265928   2.333   4.859   2.796  0.4316 -0.8112  0.4806
14838TIP3    H165929   2.368   4.780   2.837 -1.1519 -0.6476  2.2988
14838TIP3    H265930   2.250   4.831   2.757  0.7991 -0.4417 -0.6075
14839TIP3   OH265931   3.921   5.695  16.451  0.4224 -0.0080 -0.0043
14839TIP3    H165932   3.836   5.721  16.415  0.1225 -0.6488  0.2264
14839TIP3    H265933   3.899   5.640  16.527  1.0465  0.3822  0.4655
14840TIP3   OH265934   4.963   2.636   2.995  0.3892 -0.2490 -0.0584
14840TIP3    H165935   4.980   2.568   2.930  1.9687  0.6450 -0.6171
14840TIP3    H265936   4.919   2.705   2.947  0.4594 -0.0974  0.0943
14841TIP3   OH265937   1.595   3.294  11.057  0.4426 -0.1132 -0.5457
14841TIP3    H165938   1.517   3.260  11.100  1.9493 -1.4264  1.2748
14841TIP3    H265939   1.561   3.339  10.979 -2.0403 -1.4136 -0.3188
14842TIP3   OH265940   5.879   4.943   4.356  0.4149  0.0173  0.3146
14842TIP3    H165941   5.879   5.021   4.300 -0.8678 -0.7451 -0.8058
14842TIP3    H265942   5.970   4.912   4.353  0.5739  0.5312 -0.5971
14843TIP3   OH265943   4.551   4.605   1.526  0.5051 -0.0630  0.5627
14843TIP3    H165944   4.583   4.538   1.586 -0.5886 -1.7341 -0.6222
14843TIP3    H265945   4.457   4.608   1.542  0.3325  0.0979 -0.4302
14844TIP3   OH265946   5.223   2.094  16.930  0.2120 -0.4122  0.5866
14844TIP3    H165947   5.141   2.117  16.974 -0.9007 -4.1141  0.7744
14844TIP3    H265948   5.283   2.071  17.002  2.0312  3.3561  0.5444
14845TIP3   OH265949   3.085   4.836   5.042 -0.0110  0.2069 -0.3717
14845TIP3    H165950   3.016   4.888   5.083 -0.8279 -0.1086 -1.3064
14845TIP3    H265951   3.039   4.779   4.980  1.1281  0.3738 -1.4259
14846TIP3   OH265952   1.808   5.271  14.885 -0.1571  0.0195 -0.2907
14846TIP3    H165953   1.866   5.336  14.846 -0.6956  0.9888  0.4766
14846TIP3    H265954   1.779   5.310  14.967 -0.6736 -1.1025  0.0898
14847TIP3   OH265955   2.971   6.027  11.188  0.4894 -0.7023  0.3473
14847TIP3    H165956   2.974   5.935  11.161  1.7663 -1.1905  1.9962
14847TIP3    H265957   3.036   6.071  11.132 -0.9428 -0.5366 -1.2407
14848TIP3   OH265958   4.200   3.006  12.313  0.0272 -0.0230 -0.0108
14848TIP3    H165959   4.181   2.917  12.284 -1.2257 -0.1592  1.1030
14848TIP3    H265960   4.209   2.999  12.408  2.3849  0.6638 -0.1193
14849TIP3   OH265961   5.583   0.023   5.765 -0.6831  0.5221 -0.2310
14849TIP3    H165962   5.510   0.060   5.814  0.7253  2.4966  0.4644
14849TIP3    H265963   5.604   0.089   5.699 -0.2419 -0.5318 -1.1777
14850TIP3   OH265964   2.034   6.413  16.161 -0.3309  0.0822 -0.1805
14850TIP3    H165965   2.052   6.500  16.196 -1.1947  0.4322 -0.5666
14850TIP3    H265966   2.107   6.395  16.102 -0.8506  1.1768 -1.2045
14851TIP3   OH265967   1.846   1.169   4.219 -0.3904  0.7179 -0.2786
14851TIP3    H165968   1.764   1.176   4.268 -0.1887  2.0367 -0.0854
14851TIP3    H265969   1.911   1.144   4.284 -0.4351  0.7757 -0.2119
14852TIP3   OH265970   1.070   3.817  12.678  0.1741  0.0230  0.2492
14852TIP3    H165971   1.078   3.732  12.635 -1.6331  0.1514 -0.4257
14852TIP3    H265972   1.050   3.878  12.607  1.7247  1.1074  0.6807
14853TIP3   OH265973   6.286   3.383   4.943 -0.2628 -0.0461 -0.4339
14853TIP3    H165974   6.231   3.458   4.968  1.3693  0.8751  0.5592
14853TIP3    H265975   6.236   3.338   4.875 -2.8253  0.0117  1.2762
14854TIP3   OH265976   1.404   3.708  12.549  0.2770  0.8015  0.4024
14854TIP3    H165977   1.427   3.758  12.471  2.3736  0.8882  1.0000
14854TIP3    H265978   1.374   3.624  12.516  2.4668  0.3125 -0.5325
14855TIP3   OH265979   3.129   0.409   0.906  0.3549  0.7982 -0.0117
14855TIP3    H165980   3.159   0.491   0.867 -1.8328  1.4932 -0.3447
14855TIP3    H265981   3.078   0.435   0.982 -1.6880 -0.1319 -1.0019
14856TIP3   OH265982   3.458   2.496  15.254  0.1750 -0.6624 -0.0150
14856TIP3    H165983   3.454   2.487  15.159  0.3250 -1.5895  0.0638
14856TIP3    H265984   3.394   2.432  15.287  1.3481 -1.5632  0.5656
14857TIP3   OH265985   3.080   1.475   6.620  0.5095 -0.3057  0.0857
14857TIP3    H165986   3.063   1.445   6.531  2.1635 -0.7705 -0.0945
14857TIP3    H265987   3.174   1.486   6.625  0.6533 -1.7188  2.2089
14858TIP3   OH265988   4.346   6.244  13.137  0.1358  0.1592 -0.2448
14858TIP3    H165989   4.310   6.278  13.055  0.1618  1.0015  0.0844
14858TIP3    H265990   4.408   6.311  13.166 -0.5324  0.2883  0.9251
14859TIP3   OH265991   1.998   0.965  13.164  0.4323 -0.3286 -0.1898
14859TIP3    H165992   2.004   0.870  13.175  4.5609 -0.5111 -2.3607
14859TIP3    H265993   1.959   0.977  13.077  0.5045 -0.0575 -0.1871
14860TIP3   OH265994   4.176   2.224  13.511  0.2837  0.5192  0.0428
14860TIP3    H165995   4.264   2.228  13.475  0.3466  2.3374  0.3196
14860TIP3    H265996   4.118   2.243  13.437 -0.0269 -1.8653 -0.4305
14861TIP3   OH265997   3.908   1.688   4.099 -0.5643 -0.1589  0.3952
14861TIP3    H165998   3.957   1.764   4.131  0.1800 -0.2997 -0.3784
14861TIP3    H265999   3.964   1.649   4.033 -1.0481 -1.2466  0.5958
14862TIP3   OH266000   2.481   2.387   5.043  0.3076  0.0948  0.3864
14862TIP3    H166001   2.481   2.441   5.122  0.8091 -0.2985  0.6605
14862TIP3    H266002   2.525   2.306   5.069 -0.1090 -0.3016 -0.1188
14863TIP3   OH266003   3.089   1.371   4.727  0.3126 -0.2051  0.3851
14863TIP3    H166004   3.096   1.425   4.648  1.9717  1.1809  1.4273
14863TIP3    H266005   3.102   1.432   4.799 -0.0584 -1.6376  1.7074
14864TIP3   OH266006   2.007   0.790  11.128  0.7521 -0.1232 -0.0529
14864TIP3    H166007   2.099   0.812  11.140  1.0281 -0.4956 -1.2802
14864TIP3    H266008   2.008   0.721  11.061 -0.5379  1.4961 -1.8393
14865TIP3   OH266009   2.550   6.188   5.698  0.1384  0.3752  0.2345
14865TIP3    H166010   2.549   6.271   5.746 -1.3545  1.3295 -1.3642
14865TIP3    H266011   2.642   6.178   5.670  0.2573  1.7075  0.0936
14866TIP3   OH266012   3.809   4.143   5.529 -0.1406 -0.4679 -0.3067
14866TIP3    H166013   3.786   4.197   5.454 -1.3859 -1.1120 -0.4086
14866TIP3    H266014   3.880   4.191   5.572 -0.4281  0.6553 -1.0459
14867TIP3   OH266015   2.514   6.356  16.985  0.0773  0.1549 -0.3710
14867TIP3    H166016   2.591   6.341  17.040 -0.0761  1.0230  0.0973
14867TIP3    H266017   2.547   6.409  16.912 -0.3703  1.9967  0.7078
14868TIP3   OH266018   5.309   0.759  16.896  0.3344  0.1456  0.3830
14868TIP3    H166019   5.375   0.693  16.873 -1.2701 -1.9587  1.4783
14868TIP3    H266020   5.270   0.783  16.813  0.0690 -1.3150  0.0517
14869TIP3   OH266021   2.487   4.265  11.192 -0.3276  0.0201 -0.6585
14869TIP3    H166022   2.481   4.354  11.226  0.9331  0.4974 -1.6213
14869TIP3    H266023   2.444   4.270  11.106  3.2528  0.7980 -2.6158
14870TIP3   OH266024   6.376   6.752   3.849  0.3964  0.0029  0.3375
14870TIP3    H166025   6.358   6.819   3.783 -2.4810 -0.8074  0.1857
14870TIP3    H266026   6.445   6.698   3.810  0.7487  1.1860 -0.7449
14871TIP3   OH266027   3.693   2.034   2.783 -0.4433 -0.3143 -0.2119
14871TIP3    H166028   3.750   2.079   2.721 -0.1704  0.4746  0.5846
14871TIP3    H266029   3.639   2.103   2.820 -2.3849 -1.1236 -1.3880
14872TIP3   OH266030   0.257   0.170   5.588  0.0742  0.1705 -0.1028
14872TIP3    H166031   0.306   0.118   5.651  0.9386  2.0061  0.8055
14872TIP3    H266032   0.206   0.232   5.641 -0.8164  0.3709 -1.1450
14873TIP3   OH266033   5.622   4.041   1.084 -0.0470  0.3322  0.7814
14873TIP3    H166034   5.566   4.110   1.120 -0.5332 -0.0737  0.8172
14873TIP3    H266035   5.615   3.970   1.148  1.2459  0.6095  1.2616
14874TIP3   OH266036   3.152   0.902  16.318  0.2393  0.1938  0.7053
14874TIP3    H166037   3.205   0.980  16.334  0.6367 -0.0919  0.7963
14874TIP3    H266038   3.068   0.936  16.288  0.9430  0.6452 -0.8985
14875TIP3   OH266039   6.351   6.268  15.382  0.4487 -0.2966  0.1240
14875TIP3    H166040   6.278   6.233  15.332  1.2451  2.1324 -3.1010
14875TIP3    H266041   6.343   6.363  15.373  3.2130  0.0884  0.8207
14876TIP3   OH266042   5.321   2.407   6.278  0.3267  0.3312 -0.1283
14876TIP3    H166043   5.359   2.396   6.366  0.1044 -3.2204 -0.3442
14876TIP3    H266044   5.391   2.380   6.219 -0.9370 -1.8653 -0.7407
14877TIP3   OH266045   0.103   1.520   4.354  0.0086  0.6972  0.0002
14877TIP3    H166046   0.069   1.529   4.265  0.8307  1.0524 -0.2829
14877TIP3    H266047   0.170   1.452   4.347 -1.1350 -0.5604  0.7056
14878TIP3   OH266048   1.230   0.972  14.587 -0.7529  0.6612  0.2430
14878TIP3    H166049   1.202   0.891  14.630 -0.8821 -0.2606 -1.5076
14878TIP3    H266050   1.149   1.018  14.567 -1.0197 -0.8538 -2.6126
14879TIP3   OH266051   4.128   3.843   4.050 -0.3908 -0.3677  0.4656
14879TIP3    H166052   4.059   3.864   4.114 -0.9271  0.2402 -0.2909
14879TIP3    H266053   4.208   3.835   4.103 -0.7128  0.7188  1.1530
14880TIP3   OH266054   3.254   5.770   0.934 -0.4640 -0.5778 -0.1766
14880TIP3    H166055   3.186   5.751   0.869 -0.6256  0.5344 -0.3485
14880TIP3    H266056   3.290   5.684   0.957 -1.4856 -1.1220 -0.5599
14881TIP3   OH266057   5.082   6.326  14.651 -0.3754 -0.1486 -0.2221
14881TIP3    H166058   5.079   6.392  14.721 -2.4592 -0.0101 -0.3799
14881TIP3    H266059   5.156   6.270  14.674 -1.3592 -0.4976  2.4742
14882TIP3   OH266060   4.246   2.484  14.156  0.2705  0.8627 -0.4751
14882TIP3    H166061   4.224   2.456  14.244  1.8560 -1.8353 -0.8453
14882TIP3    H266062   4.218   2.411  14.100  1.4253  1.4990 -1.9340
14883TIP3   OH266063   1.740   0.458   1.181  0.2832  0.1324 -0.4129
14883TIP3    H166064   1.706   0.483   1.267  1.1160  0.7971 -0.2579
14883TIP3    H266065   1.689   0.509   1.119 -0.2313 -0.2479 -0.3113
14884TIP3   OH266066   6.433   6.402  16.994 -0.7010 -0.0717  0.0467
14884TIP3    H166067   6.364   6.402  16.927 -2.0926  0.6856  1.3990
14884TIP3    H266068   6.499   6.462  16.960 -2.9310  3.0201  0.7394
14885TIP3   OH266069   5.173   0.312  14.514  0.5690  0.5173 -0.4008
14885TIP3    H166070   5.220   0.238  14.552  1.4877  0.2973 -1.8853
14885TIP3    H266071   5.209   0.321  14.426 -0.0604  2.2565 -0.5316
14886TIP3   OH266072   1.911   2.538   2.277  0.2525  1.2139 -0.3788
14886TIP3    H166073   1.858   2.497   2.345  0.8924 -1.2341 -1.2594
14886TIP3    H266074   1.966   2.601   2.325 -1.2989  1.6419  0.9287
14887TIP3   OH266075   0.667   0.860  14.095 -0.0795 -0.0321 -0.1282
14887TIP3    H166076   0.656   0.953  14.114  1.5674  0.3087 -0.6762
14887TIP3    H266077   0.742   0.832  14.147  0.5692 -0.5991 -1.3221
14888TIP3   OH266078   3.774   1.216  16.398 -0.2064  0.1708 -0.1608
14888TIP3    H166079   3.690   1.172  16.409 -0.8685  0.8871 -2.0424
14888TIP3    H266080   3.769   1.257  16.312  3.2323 -2.3212 -1.7785
14889TIP3   OH266081   1.309   5.060   5.607 -0.1625  0.1331  0.2584
14889TIP3    H166082   1.294   5.013   5.689 -0.5222  1.4473  0.9839
14889TIP3    H266083   1.239   5.126   5.604 -1.5982 -1.3630 -2.2994
14890TIP3   OH266084   5.867   3.305  12.284 -0.2527 -0.7417 -0.0187
14890TIP3    H166085   5.868   3.386  12.233 -1.1949 -1.3588 -1.0766
14890TIP3    H266086   5.852   3.333  12.374 -0.9492  0.2443 -0.4224
14891TIP3   OH266087   3.862   1.321   4.541 -0.3263 -0.6680 -0.0305
14891TIP3    H166088   3.848   1.401   4.592  0.0273  0.7585 -2.0747
14891TIP3    H266089   3.808   1.332   4.463 -1.4594 -3.1403  0.3230
14892TIP3   OH266090   1.633   0.396  14.119  0.3799  0.1806 -0.1069
14892TIP3    H166091   1.631   0.318  14.174  1.6412 -0.8162 -1.4037
14892TIP3    H266092   1.722   0.430  14.129 -0.4812  2.2237  1.3941
14893TIP3   OH266093   1.880   4.024   0.502  0.1158 -0.4231 -0.2869
14893TIP3    H166094   1.966   3.989   0.528 -1.1408 -2.3408  1.5839
14893TIP3    H266095   1.851   3.966   0.431  0.5223  0.5434 -1.2844
14894TIP3   OH266096   2.119   3.108  14.248  0.2903 -0.4600  0.3121
14894TIP3    H166097   2.075   3.130  14.330 -0.4829 -0.5371 -0.0704
14894TIP3    H266098   2.054   3.056  14.200  0.3734  0.3999 -0.7546
14895TIP3   OH266099   0.302   2.160  17.174  0.4959  0.5436  0.0230
14895TIP3    H166100   0.320   2.212  17.095  2.0009  0.1776  0.0915
14895TIP3    H266101   0.284   2.072  17.141 -1.2878  0.9036 -0.0443
14896TIP3   OH266102   1.212   1.974   2.989  0.7300 -0.1279  0.4251
14896TIP3    H166103   1.221   1.927   3.072 -0.1356  0.7217  1.0288
14896TIP3    H266104   1.126   2.015   2.994  1.3061  1.2284 -0.2260
14897TIP3   OH266105   3.963   2.263   3.737  0.1695 -0.3147  0.3794
14897TIP3    H166106   3.924   2.303   3.815 -0.5035  1.6388 -0.8855
14897TIP3    H266107   3.923   2.176   3.732 -2.0740  0.6418  0.5935
14898TIP3   OH266108   4.571   2.692   1.698 -0.2582 -0.1786  0.4289
14898TIP3    H166109   4.628   2.750   1.647 -0.8421 -0.6736 -0.7995
14898TIP3    H266110   4.585   2.720   1.789 -0.4697  1.8516 -0.1194
14899TIP3   OH266111   1.856   4.252  15.514  0.1983  0.4866  0.4856
14899TIP3    H166112   1.858   4.283  15.423 -0.8887  3.1700  1.2681
14899TIP3    H266113   1.816   4.165  15.510 -0.6007  0.9044 -1.5234
14900TIP3   OH266114   1.822   6.438   2.262  0.5784  0.3812 -0.7980
14900TIP3    H166115   1.785   6.398   2.340  1.2040  0.4851 -0.4455
14900TIP3    H266116   1.755   6.501   2.233  1.1755  1.8255  0.8171
14901TIP3   OH266117   1.439   0.469   4.280  0.3916  0.3818  0.3480
14901TIP3    H166118   1.414   0.377   4.279 -0.1476  0.4364  2.7590
14901TIP3    H266119   1.364   0.513   4.321  2.0629  1.3534  2.5466
14902TIP3   OH266120   4.759   2.055  17.214  0.6768 -0.3840  0.2583
14902TIP3    H166121   4.740   2.149  17.218  0.9659 -0.1069 -2.6312
14902TIP3    H266122   4.678   2.016  17.179  0.8336 -1.1102  0.6885
14903TIP3   OH266123   1.583   4.886  15.981  0.5456 -0.3079 -0.5300
14903TIP3    H166124   1.597   4.981  15.992  0.3058 -0.2950 -0.3470
14903TIP3    H266125   1.488   4.876  15.980  0.5720 -0.5318 -0.6947
14904TIP3   OH266126   3.619   0.702  11.991  0.3000 -0.2982  0.2635
14904TIP3    H166127   3.653   0.659  11.913 -0.4547  1.1429 -0.8998
14904TIP3    H266128   3.568   0.635  12.035  0.1015 -0.9211 -0.8878
14905TIP3   OH266129   6.647   2.666  15.666  0.1642 -0.4453 -0.0603
14905TIP3    H166130   6.727   2.705  15.701 -0.2425  0.2332  0.1518
14905TIP3    H266131   6.666   2.573  15.659  0.4653 -0.5284  1.4397
14906TIP3   OH266132   4.386   1.745  10.942  0.0380  0.4395 -0.2408
14906TIP3    H166133   4.398   1.655  10.910  2.0715 -0.3975  2.4932
14906TIP3    H266134   4.461   1.793  10.906  0.9218  0.1093  1.0822
14907TIP3   OH266135   1.859   4.621   0.661  1.0075 -0.9430 -0.0715
14907TIP3    H166136   1.919   4.600   0.733  1.4947 -0.0436 -0.1942
14907TIP3    H266137   1.916   4.633   0.586  0.7195  0.2420 -0.1239
14908TIP3   OH266138   4.886   5.526   1.510  0.0965 -0.2979 -0.5459
14908TIP3    H166139   4.898   5.503   1.417 -1.9159 -1.0021 -0.6821
14908TIP3    H266140   4.815   5.591   1.509 -0.3315 -0.7387  0.5424
14909TIP3   OH266141   5.008   6.108   1.811  0.0231 -0.0502  0.7084
14909TIP3    H166142   4.984   6.200   1.822  4.3129  1.9746 -3.4775
14909TIP3    H266143   4.963   6.080   1.731 -1.4934 -1.8818  2.0951
14910TIP3   OH266144   3.505   4.221  14.358  0.1841 -0.4126  0.1383
14910TIP3    H166145   3.505   4.125  14.349  0.0351 -0.4412  0.4291
14910TIP3    H266146   3.420   4.248  14.326  0.1468 -0.3972  0.2503
14911TIP3   OH266147   5.067   6.561  15.871 -0.0123 -0.2246  0.3683
14911TIP3    H166148   5.046   6.563  15.965  0.8503  0.4365  0.5593
14911TIP3    H266149   5.081   6.469  15.852  0.4693 -0.3087  1.0596
14912TIP3   OH266150   2.107   3.696   2.671 -0.3900 -0.4970  0.1437
14912TIP3    H166151   2.029   3.741   2.637 -0.7896  0.1411  1.8283
14912TIP3    H266152   2.147   3.759   2.731  1.1023 -1.0547 -0.2216
14913TIP3   OH266153   2.805   5.671   2.534 -0.5384  0.2377 -0.4387
14913TIP3    H166154   2.875   5.731   2.507  0.2192  1.0891  2.8992
14913TIP3    H266155   2.851   5.596   2.571 -1.3660  0.2617  0.7063
14914TIP3   OH266156   3.057   3.513   2.791  0.4358 -0.3349 -0.1776
14914TIP3    H166157   3.015   3.474   2.868  0.7608 -0.9244 -0.2923
14914TIP3    H266158   3.118   3.578   2.827  1.1484 -1.1419  0.1149
14915TIP3   OH266159   1.020   4.601  13.880 -0.5430 -0.0970 -0.2001
14915TIP3    H166160   1.019   4.514  13.841  2.0898  0.5785 -2.0269
14915TIP3    H266161   1.077   4.593  13.957  1.4402  0.3656 -1.5510
14916TIP3   OH266162   4.151   5.073  14.583 -0.2690  0.1104 -0.5590
14916TIP3    H166163   4.081   5.134  14.560 -0.9989 -0.8802 -1.0900
14916TIP3    H266164   4.226   5.128  14.602 -0.8589  1.1580 -1.1642
14917TIP3   OH266165   3.694   4.651  15.988 -0.0712 -0.1929  0.4425
14917TIP3    H166166   3.725   4.594  15.918 -1.6300  0.5366 -0.9066
14917TIP3    H266167   3.608   4.681  15.959 -0.0329  1.5125  1.8774
14918TIP3   OH266168   6.410   2.021  15.116 -0.0416 -0.3163 -0.9278
14918TIP3    H166169   6.333   1.975  15.149 -1.4983  2.7493  0.2376
14918TIP3    H266170   6.399   2.021  15.021 -1.1434 -0.4432 -0.8065
14919TIP3   OH266171   3.455   1.263   0.499  0.0528  0.0998 -0.2567
14919TIP3    H166172   3.465   1.170   0.514 -0.0383  0.2814  0.9929
14919TIP3    H266173   3.523   1.304   0.552 -0.3312  0.7697 -0.2621
14920TIP3   OH266174   1.421   1.538   5.419 -0.1265 -0.0972 -0.2042
14920TIP3    H166175   1.400   1.463   5.475 -1.1202  0.2048 -0.1575
14920TIP3    H266176   1.512   1.523   5.394  0.2542 -0.4122  1.2209
14921TIP3   OH266177   5.650   1.428   2.873  0.2025 -0.2584  0.0763
14921TIP3    H166178   5.560   1.459   2.883  0.1998 -0.2324 -0.0299
14921TIP3    H266179   5.665   1.427   2.779  0.8872  1.4075  0.1334
14922TIP3   OH266180   0.292   4.530  14.854 -0.2789 -0.3839 -0.0072
14922TIP3    H166181   0.257   4.504  14.769  1.1374 -3.0050  0.1078
14922TIP3    H266182   0.374   4.575  14.833 -1.0768  1.1343 -0.0542
14923TIP3   OH266183   3.049   4.785  15.230 -0.8262 -0.1841 -0.1829
14923TIP3    H166184   2.964   4.753  15.259 -0.2857  0.3515  2.1461
14923TIP3    H266185   3.113   4.732  15.277  0.0869  1.3937  0.4381
14924TIP3   OH266186   3.630   2.633   1.875 -0.0582  1.0754  0.1521
14924TIP3    H166187   3.591   2.665   1.956 -0.2065  1.4754 -0.0730
14924TIP3    H266188   3.713   2.680   1.868  0.3418  0.4373  0.4837
14925TIP3   OH266189   1.770   2.599   4.076  0.3945  0.2822  0.5428
14925TIP3    H166190   1.765   2.550   3.994  0.0682  0.9520  0.1635
14925TIP3    H266191   1.837   2.665   4.061  1.9587 -0.9991  1.5772
14926TIP3   OH266192   0.029   3.249   0.088 -0.6503 -0.5179  0.1921
14926TIP3    H166193   0.047   3.293   0.171 -0.1483 -0.3643  0.0028
14926TIP3    H266194   0.016   3.157   0.113 -2.3608 -0.1762  0.6671
14927TIP3   OH266195   0.428   6.544   5.250  0.0933  0.4887  0.2188
14927TIP3    H166196   0.428   6.473   5.186  0.7354  0.3204  0.4015
14927TIP3    H266197   0.519   6.552   5.277 -0.2162  0.3218  1.3703
14928TIP3   OH266198   1.959   6.247   3.445 -0.9909 -0.2529 -0.3590
14928TIP3    H166199   1.886   6.307   3.459 -0.2848  0.6410 -0.4544
14928TIP3    H266200   1.921   6.160   3.460 -1.7889  0.2592  0.7639
14929TIP3   OH266201   5.344   6.770   4.743 -0.0851 -0.1316  0.3329
14929TIP3    H166202   5.407   6.711   4.700  1.0208  0.3838  1.1906
14929TIP3    H266203   5.385   6.791   4.827 -0.7159  1.4307  0.2702
14930TIP3   OH266204   0.827   5.295   0.722 -0.4443  0.4681  0.3870
14930TIP3    H166205   0.771   5.297   0.644  1.6853 -0.2613 -1.2922
14930TIP3    H266206   0.771   5.262   0.792 -2.8027  2.3916 -0.4835
14931TIP3   OH266207   4.928   2.187   4.709  0.0873 -0.2811  0.2192
14931TIP3    H166208   4.914   2.105   4.661 -0.3181 -0.6224  0.9201
14931TIP3    H266209   4.982   2.240   4.649  1.0762 -1.3773  0.1106
14932TIP3   OH266210   3.566   1.486  13.012 -0.0128  0.0766  0.2924
14932TIP3    H166211   3.479   1.450  13.031 -0.3657  0.0050 -1.3240
14932TIP3    H266212   3.606   1.422  12.953 -0.1082  1.6094 -1.5183
14933TIP3   OH266213   3.066   0.053  16.525 -0.5483 -0.3990  0.2808
14933TIP3    H166214   3.048   0.083  16.436 -0.1673  0.4003  0.4575
14933TIP3    H266215   3.106  -0.033  16.514 -2.2925 -1.1916 -0.2216
14934TIP3   OH266216   5.640   4.696  11.904 -0.3216  0.5961 -1.0146
14934TIP3    H166217   5.692   4.723  11.828  0.8054  0.7369 -0.2206
14934TIP3    H266218   5.679   4.743  11.978  0.4929 -1.6855  0.1203
14935TIP3   OH266219   4.618   3.057   2.577  0.3266 -0.3518  0.8748
14935TIP3    H166220   4.625   3.148   2.548  3.8113 -0.6100  0.5516
14935TIP3    H266221   4.665   3.006   2.512  1.4085 -1.9593  2.7837
14936TIP3   OH266222   1.117   0.700  14.294 -0.1675  0.2949  0.2974
14936TIP3    H166223   1.139   0.613  14.262  1.2696 -0.8098  3.7237
14936TIP3    H266224   1.180   0.758  14.251  0.9463 -0.9014  0.2435
14937TIP3   OH266225   6.266   3.015  11.983 -0.2502  0.0112  0.0359
14937TIP3    H166226   6.247   2.957  11.910 -2.9620 -1.1963  1.5589
14937TIP3    H266227   6.206   3.089  11.971  1.3820  1.3329 -0.4864
14938TIP3   OH266228   4.161   3.698  14.873  0.1274 -0.4989 -0.2252
14938TIP3    H166229   4.246   3.718  14.911 -0.5645 -0.2260  1.2766
14938TIP3    H266230   4.156   3.603  14.871 -0.0331 -0.5286  0.9306
14939TIP3   OH266231   4.128   0.165   2.072 -0.0280 -0.4250  0.1042
14939TIP3    H166232   4.114   0.241   2.015  0.3732 -0.2798  0.1915
14939TIP3    H266233   4.086   0.093   2.027  1.0533 -0.4983 -0.8339
14940TIP3   OH266234   4.847   0.077  15.511 -0.0967  0.6464  0.1063
14940TIP3    H166235   4.756   0.093  15.490 -0.0944 -1.3977 -1.8735
14940TIP3    H266236   4.844   0.019  15.587 -0.5068 -0.0251 -0.4080
14941TIP3   OH266237   6.102   2.490   4.163  0.2959 -0.1027  0.0635
14941TIP3    H166238   6.180   2.471   4.215  0.4029  0.1042 -0.0218
14941TIP3    H266239   6.045   2.540   4.221 -0.4481 -1.5552  0.6523
14942TIP3   OH266240   2.757   2.542  12.367  0.1133  0.3912  0.4571
14942TIP3    H166241   2.713   2.460  12.390  0.8086  0.1517  0.9740
14942TIP3    H266242   2.774   2.534  12.273  0.3429 -0.1396  0.5402
14943TIP3   OH266243   3.227   3.187  13.906 -0.1717  0.4180 -0.0235
14943TIP3    H166244   3.228   3.114  13.967  0.1934 -1.2744 -1.9368
14943TIP3    H266245   3.135   3.196  13.881  0.0807 -1.1720 -1.7205
14944TIP3   OH266246   1.601   4.633   0.782  0.6878  0.7486  0.2636
14944TIP3    H166247   1.693   4.637   0.756  0.5559  2.0456 -0.0440
14944TIP3    H266248   1.556   4.693   0.722 -0.1704  1.0376  1.1686
14945TIP3   OH266249   1.716   0.169  15.384  0.1480 -0.3023 -0.2615
14945TIP3    H166250   1.648   0.222  15.343  0.4989  0.1551 -0.2656
14945TIP3    H266251   1.672   0.088  15.409 -0.9306  0.8280  1.7146
14946TIP3   OH266252   0.427   6.528  11.223 -0.1387 -0.0317  0.1356
14946TIP3    H166253   0.332   6.513  11.222 -0.0217 -0.7735 -0.7800
14946TIP3    H266254   0.459   6.487  11.142  0.8155  1.2120 -0.1375
14947TIP3   OH266255   2.996   1.651   5.177  0.4824 -0.2778 -0.0378
14947TIP3    H166256   3.018   1.693   5.260  1.1324 -0.6601 -0.0130
14947TIP3    H266257   3.035   1.707   5.110  1.4116 -0.8518 -0.0022
14948TIP3   OH266258   0.684   3.259  12.025 -0.0234  0.1332 -0.3551
14948TIP3    H166259   0.757   3.266  12.087 -0.1157 -1.1804 -0.0697
14948TIP3    H266260   0.726   3.252  11.939  0.1729  0.1051 -0.2574
14949TIP3   OH266261   3.426   1.512   3.317 -0.1716  0.3210  0.1099
14949TIP3    H166262   3.465   1.448   3.258 -0.8998  1.6350 -1.9185
14949TIP3    H266263   3.336   1.480   3.330 -0.5419  0.9027 -0.9194
14950TIP3   OH266264   0.344   0.015  14.562  0.0559 -0.0676 -0.0463
14950TIP3    H166265   0.317   0.054  14.645 -0.9014  1.0270 -0.8269
14950TIP3    H266266   0.370   0.089  14.508  1.5068 -0.8424 -0.4514
14951TIP3   OH266267   4.545   0.230   5.485 -0.0118  0.5706 -0.2129
14951TIP3    H166268   4.532   0.206   5.393  0.7215  1.1474 -0.4716
14951TIP3    H266269   4.466   0.280   5.508 -0.2262  0.3718 -0.4998
14952TIP3   OH266270   2.788   2.673  11.289  0.3828  0.3418 -0.3524
14952TIP3    H166271   2.821   2.637  11.371  0.2565  0.0738 -0.4217
14952TIP3    H266272   2.854   2.739  11.264 -0.5423  1.8297  0.9608
14953TIP3   OH266273   1.895   2.314   5.680 -0.0084  0.4858 -0.1571
14953TIP3    H166274   1.890   2.406   5.705  1.3027  1.5258 -3.2462
14953TIP3    H266275   1.986   2.301   5.655 -0.2883 -1.5168 -0.3058
14954TIP3   OH266276   0.540   5.797  13.555  0.3667  0.3938  0.2846
14954TIP3    H166277   0.533   5.707  13.588 -0.1026  1.0072  1.9605
14954TIP3    H266278   0.482   5.848  13.611  0.5175  1.7409 -0.7254
14955TIP3   OH266279   5.299   3.271   5.371  0.0571  0.2508 -0.1317
14955TIP3    H166280   5.290   3.177   5.384 -0.8192 -0.0337 -2.3947
14955TIP3    H266281   5.311   3.306   5.460  0.0320 -1.9247  0.7971
14956TIP3   OH266282   5.231   3.336   2.612  0.1625  0.6991  0.1004
14956TIP3    H166283   5.285   3.391   2.555 -0.8470  0.2463 -1.3566
14956TIP3    H266284   5.141   3.352   2.582 -0.1608 -1.7692 -0.4431
14957TIP3   OH266285   2.949   4.869   4.287  0.4647 -0.4242 -0.1979
14957TIP3    H166286   2.889   4.808   4.331 -2.8824  2.7061  0.0682
14957TIP3    H266287   2.912   4.880   4.200  1.0255  1.1249 -0.2673
14958TIP3   OH266288   5.999   0.958  16.558  0.2768  0.7694  0.2854
14958TIP3    H166289   5.917   0.981  16.515  0.7501 -0.7151 -1.5802
14958TIP3    H266290   5.973   0.902  16.631 -0.3818  0.3630 -0.2474
14959TIP3   OH266291   1.306   4.119  14.090 -0.0565 -0.5547 -0.1628
14959TIP3    H166292   1.381   4.178  14.087  0.6265 -1.3875  0.1214
14959TIP3    H266293   1.328   4.056  14.159 -1.5107 -0.1690  0.6895
14960TIP3   OH266294   2.066   1.148   1.073  0.0613  0.1546  0.1680
14960TIP3    H166295   2.126   1.122   1.143 -2.7291 -3.1001  1.6861
14960TIP3    H266296   2.014   1.219   1.111 -0.5988 -0.7389  0.9803
14961TIP3   OH266297   4.210   3.812   5.672 -0.1437  0.5044 -0.4301
14961TIP3    H166298   4.188   3.777   5.758 -0.6184 -0.1986 -0.8261
14961TIP3    H266299   4.285   3.869   5.687 -0.2884  0.4680  0.4603
14962TIP3   OH266300   4.339   6.295  14.122 -0.1924 -0.4134 -0.6841
14962TIP3    H166301   4.316   6.352  14.195  0.4250 -2.5401  1.3034
14962TIP3    H266302   4.418   6.334  14.084  0.0139  0.2382  0.3793
14963TIP3   OH266303   3.373   0.198  12.314  0.2762 -0.2969  0.6616
14963TIP3    H166304   3.325   0.209  12.232  1.3547  0.4726  0.1026
14963TIP3    H266305   3.463   0.223  12.293  0.2502  1.7042  2.4846
14964TIP3   OH266306   4.094   5.038   3.979 -0.5676 -0.0822  0.1383
14964TIP3    H166307   4.075   5.047   3.886  2.0635  1.6602 -0.3369
14964TIP3    H266308   4.117   4.945   3.990  0.0387 -0.1113 -1.1751
14965TIP3   OH266309   0.880   2.846   0.897  0.4197  0.1793 -0.2278
14965TIP3    H166310   0.898   2.917   0.959  0.8638 -0.2350  0.1305
14965TIP3    H266311   0.883   2.888   0.811  0.2249  0.6799  0.0044
14966TIP3   OH266312   1.448   5.897  13.548  0.3329  0.0887 -0.1507
14966TIP3    H166313   1.419   5.821  13.598 -1.1158  0.3717 -0.5168
14966TIP3    H266314   1.544   5.893  13.551  0.2742 -1.0747  0.8349
14967TIP3   OH266315   5.711   0.139   6.205  0.4541  0.2252  0.1532
14967TIP3    H166316   5.678   0.197   6.137  3.2119  0.7255 -0.8961
14967TIP3    H266317   5.731   0.057   6.159  1.1159  0.1245  0.5978
14968TIP3   OH266318   3.293   1.760   2.508 -0.1992 -0.4543 -0.0542
14968TIP3    H166319   3.237   1.834   2.531  0.6677  0.4332 -0.6715
14968TIP3    H266320   3.319   1.723   2.593  0.6566  0.9802  0.3544
14969TIP3   OH266321   0.463   2.984  12.752  0.3052  0.6156  0.0817
14969TIP3    H166322   0.543   2.931  12.754 -0.3272 -0.3610  0.0669
14969TIP3    H266323   0.467   3.037  12.831  1.3391  1.1570 -0.3100
14970TIP3   OH266324   3.740   1.469  11.475 -0.6210  0.5011 -0.0395
14970TIP3    H166325   3.776   1.419  11.548  2.6887  0.5339 -1.4607
14970TIP3    H266326   3.726   1.557  11.511 -0.2686  0.1841  0.8941
14971TIP3   OH266327   4.250   2.553  11.705  0.0221  0.4273 -0.4289
14971TIP3    H166328   4.327   2.592  11.746 -0.5949 -0.4377  1.6608
14971TIP3    H266329   4.287   2.491  11.641  0.9966  2.3733 -1.8490
14972TIP3   OH266330   2.329   2.766   1.038  0.0939 -0.3285  0.0383
14972TIP3    H166331   2.356   2.851   1.074 -0.8872 -0.7342  1.8804
14972TIP3    H266332   2.275   2.727   1.107 -1.2611 -1.5442 -1.6240
14973TIP3   OH266333   4.347   1.713  12.015  0.1083  0.3270 -0.0221
14973TIP3    H166334   4.307   1.732  11.931  0.3983 -2.6259 -0.9339
14973TIP3    H266335   4.282   1.742  12.080 -0.0142  2.8596 -1.1489
14974TIP3   OH266336   3.662   5.770   0.998 -0.5121 -0.3819  0.2251
14974TIP3    H166337   3.709   5.834   1.052  1.3281 -0.4890 -1.1562
14974TIP3    H266338   3.572   5.802   0.998 -0.0654  1.0256  1.2932
14975TIP3   OH266339   3.103   2.402  12.493 -0.3027 -0.3127  0.3473
14975TIP3    H166340   3.083   2.351  12.571  3.6038 -2.9533 -0.1073
14975TIP3    H266341   3.056   2.359  12.422 -1.0743 -0.0582  0.6944
14976TIP3   OH266342   1.854   4.968  13.967  0.5211  0.1178 -0.7020
14976TIP3    H166343   1.896   5.014  13.894 -0.8752 -0.2143 -1.7792
14976TIP3    H266344   1.900   4.998  14.045  0.5834  2.2644 -1.4951
14977TIP3   OH266345   1.893   1.921  12.518  0.4362 -0.5034  0.3651
14977TIP3    H166346   1.967   1.931  12.577  1.4451 -1.7430 -0.6218
14977TIP3    H266347   1.906   1.835  12.477 -1.9702 -1.1079  0.7238
14978TIP3   OH266348   0.640   0.363  14.108  0.2360  0.6289  0.9380
14978TIP3    H166349   0.629   0.269  14.119  0.6270  0.8066  3.4265
14978TIP3    H266350   0.706   0.372  14.039 -0.6071 -0.8543 -0.1134
14979TIP3   OH266351   1.441   3.054   3.586 -0.1155  0.2402 -0.3702
14979TIP3    H166352   1.376   3.122   3.569  0.4833  1.7413  2.6838
14979TIP3    H266353   1.389   2.976   3.607 -0.9096  0.9385  0.3107
14980TIP3   OH266354   1.586   1.950   4.917  0.1465  0.1060  0.3667
14980TIP3    H166355   1.659   1.952   4.855  0.3254 -1.7578  0.4607
14980TIP3    H266356   1.607   2.019   4.980  0.6658  1.1079 -0.8560
14981TIP3   OH266357   1.718   4.214  13.483 -0.5179  0.3524 -0.0590
14981TIP3    H166358   1.796   4.168  13.515 -1.1666 -0.4021  0.4777
14981TIP3    H266359   1.744   4.307  13.482 -0.1191  0.2949  1.6734
14982TIP3   OH266360   2.354   5.549  17.242  0.7431 -0.2922 -0.4108
14982TIP3    H166361   2.296   5.561  17.317 -0.5322 -1.0095 -1.2419
14982TIP3    H266362   2.322   5.471  17.198  1.5271  0.0333 -1.6373
14983TIP3   OH266363   2.504   1.661  12.069  0.4817 -0.1687 -0.4945
14983TIP3    H166364   2.425   1.610  12.087  1.5067 -1.9068 -0.6573
14983TIP3    H266365   2.479   1.721  11.998 -1.0906  0.4431  0.5105
14984TIP3   OH266366   5.766   3.655   3.271  0.3530  0.2143  0.2365
14984TIP3    H166367   5.738   3.570   3.305  0.3452 -0.2892 -0.9869
14984TIP3    H266368   5.843   3.677   3.324  0.3714 -0.5572  0.5562
14985TIP3   OH266369   3.508   0.287   2.213 -0.5826  0.1004  0.1803
14985TIP3    H166370   3.470   0.244   2.136 -1.2679 -0.5137  0.8512
14985TIP3    H266371   3.591   0.243   2.227  0.0345  0.9033 -0.8082
14986TIP3   OH266372   4.034   2.715   0.183  0.4811  0.4124  0.2783
14986TIP3    H166373   3.975   2.731   0.256  0.5119 -0.6710  0.5465
14986TIP3    H266374   4.116   2.689   0.223  1.2889  2.2029 -0.0786
14987TIP3   OH266375   3.550   4.935  14.364 -0.2416  0.0286  0.5130
14987TIP3    H166376   3.550   5.031  14.362  0.4222  0.0821  1.7021
14987TIP3    H266377   3.496   4.909  14.290  1.9390  1.2842 -1.6992
14988TIP3   OH266378   5.297   0.002   0.588  0.8076  0.1855  0.0254
14988TIP3    H166379   5.276  -0.074   0.643 -0.7018 -0.4246 -1.3462
14988TIP3    H266380   5.246  -0.010   0.508  1.1699  2.2352 -0.5820
14989TIP3   OH266381   1.832   6.081  15.609 -0.0267 -0.0632 -0.4802
14989TIP3    H166382   1.748   6.068  15.653 -0.5895  1.4345 -1.0277
14989TIP3    H266383   1.843   6.004  15.553  0.1780 -1.4654  1.4057
14990TIP3   OH266384   3.337   2.904   6.681 -0.2159 -0.4955 -0.1464
14990TIP3    H166385   3.316   2.829   6.624 -0.9770 -0.8159  0.5422
14990TIP3    H266386   3.431   2.897   6.695  0.2430  0.3024 -2.3573
14991TIP3   OH266387   5.100   2.153  16.522  0.1762 -0.9301  0.1605
14991TIP3    H166388   5.095   2.241  16.560 -0.7952 -1.5810  1.6250
14991TIP3    H266389   5.161   2.106  16.578 -0.0306 -1.4664 -0.0601
14992TIP3   OH266390   6.624   1.143  16.681  0.0212  0.2696  0.0151
14992TIP3    H166391   6.553   1.146  16.745 -0.1627  0.7517 -0.2060
14992TIP3    H266392   6.698   1.108  16.729 -0.2071  0.3166  0.4033
14993TIP3   OH266393   2.074   3.477  14.653 -0.3701  0.0676  0.0524
14993TIP3    H166394   2.076   3.550  14.715  2.3612  0.5599 -0.4899
14993TIP3    H266395   1.983   3.474  14.623 -1.0156  1.9469  1.5820
14994TIP3   OH266396   3.004   3.090  14.905  0.1980 -0.7716  0.0693
14994TIP3    H166397   2.920   3.046  14.916  0.3548 -1.4158 -1.1073
14994TIP3    H266398   3.063   3.021  14.875  0.8892 -0.1109 -0.1280
14995TIP3   OH266399   2.451   3.662   0.166 -0.1593 -0.3715 -0.4104
14995TIP3    H166400   2.464   3.708   0.248 -1.6798 -1.4551  0.5052
14995TIP3    H266401   2.482   3.573   0.183 -0.6168 -0.6449 -0.9494
14996TIP3   OH266402   2.998   6.553   0.838  0.1746  0.1442 -0.5838
14996TIP3    H166403   3.038   6.633   0.875  0.9962 -0.7307  0.5200
14996TIP3    H266404   2.981   6.498   0.915  0.6678 -1.1923 -1.3975
14997TIP3   OH266405   1.482   1.674  15.443 -0.1425  0.5436  0.3023
14997TIP3    H166406   1.389   1.695  15.446  0.1924  2.1388  2.5567
14997TIP3    H266407   1.525   1.759  15.428  0.9597 -0.3967 -2.5305
14998TIP3   OH266408   0.717   6.472  14.824 -0.3114  0.1983  0.0776
14998TIP3    H166409   0.685   6.530  14.756  2.3873  0.7310 -0.8508
14998TIP3    H266410   0.697   6.384  14.792  0.2952  0.4660 -1.1035
14999TIP3   OH266411   0.138   6.366   5.982  0.0610  0.3489  0.1760
14999TIP3    H166412   0.062   6.316   5.950 -0.7865  1.1700  0.8509
14999TIP3    H266413   0.120   6.379   6.075 -1.0665  4.0788 -0.3991
15000TIP3   OH266414   4.721   1.631  15.025  0.8576 -0.2457 -0.3554
15000TIP3    H166415   4.781   1.563  15.055  0.7158 -0.7423 -1.1622
15000TIP3    H266416   4.636   1.588  15.019  1.0407 -0.4365 -2.2889
15001TIP3   OH266417   2.355   0.099   6.165  0.5292  0.4412  0.4439
15001TIP3    H166418   2.300   0.163   6.211 -0.2869  1.6795 -2.0488
15001TIP3    H266419   2.438   0.145   6.150  0.3428  0.5227 -0.3809
15002TIP3   OH266420   4.431   2.748  17.191  0.1957  0.3995 -0.2872
15002TIP3    H166421   4.527   2.753  17.191  0.2438 -0.3941  0.0355
15002TIP3    H266422   4.411   2.676  17.132 -0.2185  0.6751 -0.4865
15003TIP3   OH266423   4.202   5.213  14.300 -0.1343  0.4601  0.3718
15003TIP3    H166424   4.166   5.185  14.216  1.9567  1.6568 -1.0198
15003TIP3    H266425   4.232   5.132  14.341 -2.3102 -0.2915  0.5967
15004TIP3   OH266426   2.335   5.748   2.503 -0.0463  0.5356 -0.1966
15004TIP3    H166427   2.374   5.771   2.587  1.1718 -0.4669 -0.4610
15004TIP3    H266428   2.328   5.653   2.504 -2.7246  0.6349 -0.1054
15005TIP3   OH266429   0.617   0.378   2.711  0.5547  0.0413  0.4287
15005TIP3    H166430   0.648   0.409   2.796  0.1882  0.9590  0.2405
15005TIP3    H266431   0.672   0.423   2.647  0.9408 -0.7768  0.1787
15006TIP3   OH266432   0.081   0.644   5.983 -0.2845  0.0284 -0.1772
15006TIP3    H166433   0.047   0.584   6.049 -0.1908  0.8517  0.6241
15006TIP3    H266434   0.141   0.701   6.030 -0.5374  0.8987 -0.8843
15007TIP3   OH266435   6.737   2.017   1.643 -0.2225  0.0529 -0.2678
15007TIP3    H166436   6.751   1.938   1.590  0.8827 -0.3637  0.6026
15007TIP3    H266437   6.711   1.983   1.728  2.5769  0.4556  0.8619
15008TIP3   OH266438   4.155   4.261  13.593  0.2653 -0.1858 -1.0088
15008TIP3    H166439   4.193   4.214  13.667  0.0990  2.0507  0.5975
15008TIP3    H266440   4.217   4.332  13.575 -0.4501  0.2058 -2.0147
15009TIP3   OH266441   0.510   2.875  10.959 -0.1119  0.4464  0.1750
15009TIP3    H166442   0.589   2.929  10.954  0.0027  0.4161  1.2727
15009TIP3    H266443   0.518   2.814  10.886  0.0727  1.4915 -0.6903
15010TIP3   OH266444   3.948   2.250  12.896 -0.2498 -0.0797  0.6721
15010TIP3    H166445   3.926   2.197  12.973 -2.8571 -0.0561  0.0133
15010TIP3    H266446   3.997   2.324  12.932 -1.5607  0.0179  2.3839
15011TIP3   OH266447   5.007   5.618   6.477  0.8328  0.5807 -0.3707
15011TIP3    H166448   4.937   5.627   6.541 -0.0705  0.9835 -1.3829
15011TIP3    H266449   5.063   5.548   6.512 -1.4154 -1.5241 -0.7158
15012TIP3   OH266450   6.106   5.374   3.249  0.0188 -0.7754 -0.3107
15012TIP3    H166451   6.065   5.351   3.165  1.5248 -2.5296 -0.6387
15012TIP3    H266452   6.142   5.291   3.281  2.3916  0.4449  0.4292
15013TIP3   OH266453   2.429   5.173   2.464 -0.2152 -0.2677 -0.2991
15013TIP3    H166454   2.445   5.215   2.379 -1.1481  0.9378  0.0936
15013TIP3    H266455   2.462   5.236   2.528  1.5369 -1.6590  0.2461
15014TIP3   OH266456   6.198   6.759  12.240 -0.7159  0.2289  0.6191
15014TIP3    H166457   6.107   6.763  12.212 -0.8750  0.4255  1.1527
15014TIP3    H266458   6.225   6.850  12.246 -0.0088  0.1558 -1.0218
15015TIP3   OH266459   5.882   4.997  17.213  0.3993 -0.1754 -0.0577
15015TIP3    H166460   5.911   4.990  17.304  2.5855  1.7822 -0.5169
15015TIP3    H266461   5.959   4.974  17.161 -0.0530  1.1373 -1.3884
15016TIP3   OH266462   4.145   5.018   0.966 -0.2635 -0.3184 -0.5413
15016TIP3    H166463   4.136   5.113   0.955 -0.2825 -0.1664  0.6059
15016TIP3    H266464   4.060   4.983   0.940 -0.3913  0.0246 -0.5939
15017TIP3   OH266465   4.652   3.253   1.000 -0.2652  0.2459  0.1234
15017TIP3    H166466   4.567   3.236   0.958 -0.2750  0.0205  0.2294
15017TIP3    H266467   4.671   3.172   1.048 -0.2521  0.4928  0.5487
15018TIP3   OH266468   0.880   6.162   0.287 -0.7223 -0.2581 -0.6222
15018TIP3    H166469   0.901   6.121   0.203 -1.6258 -2.5571  0.2120
15018TIP3    H266470   0.946   6.128   0.348 -1.0347  0.1239 -0.0608
15019TIP3   OH266471   6.329   2.846  13.426 -0.5781  0.3593 -0.1237
15019TIP3    H166472   6.357   2.794  13.501 -2.1222 -1.9612 -1.0258
15019TIP3    H266473   6.308   2.932  13.462  1.4575  0.2246  1.5659
15020TIP3   OH266474   0.183   3.850  13.349  0.1534  0.1404  0.4722
15020TIP3    H166475   0.200   3.806  13.266 -0.7403  0.3870  0.1503
15020TIP3    H266476   0.264   3.898  13.368 -0.1659  1.3673 -1.0736
15021TIP3   OH266477   3.070   6.267  15.927  0.0864  0.4420  0.1477
15021TIP3    H166478   2.999   6.327  15.900 -2.5425 -2.2395  0.5777
15021TIP3    H266479   3.045   6.239  16.015  2.7867  0.8202  1.1251
15022TIP3   OH266480   5.273   2.954   2.994 -0.4218  0.3808  0.4242
15022TIP3    H166481   5.314   3.013   3.057 -1.4974  0.7572  0.7959
15022TIP3    H266482   5.252   3.010   2.919  1.3594 -0.1754 -0.5315
15023TIP3   OH266483   3.553   0.043  12.931  0.0998 -0.1948 -0.1387
15023TIP3    H166484   3.571   0.042  12.837 -0.5529  1.4671 -0.3068
15023TIP3    H266485   3.600   0.120  12.964  1.3585 -1.4392  1.1571
15024TIP3   OH266486   5.723   6.195  17.128  0.1678  0.1736 -0.2342
15024TIP3    H166487   5.647   6.203  17.186  2.0596 -0.9810  2.6392
15024TIP3    H266488   5.785   6.261  17.160  2.1591 -2.0075  0.7152
15025TIP3   OH266489   5.928   0.494   1.621 -0.4351  0.0750 -0.0662
15025TIP3    H166490   5.959   0.585   1.616  3.0134 -0.9028  0.6785
15025TIP3    H266491   5.935   0.462   1.532  0.9000 -0.1299  0.0866
15026TIP3   OH266492   1.223   6.464  16.570 -0.9333  0.1405  0.2990
15026TIP3    H166493   1.150   6.521  16.545  0.7070  1.7623 -0.9994
15026TIP3    H266494   1.271   6.449  16.489 -0.1006 -1.3436  1.0333
15027TIP3   OH266495   0.068   2.133  14.554 -0.3372 -0.0994 -0.7434
15027TIP3    H166496   0.123   2.077  14.500 -0.8042  1.6734 -3.2770
15027TIP3    H266497  -0.005   2.157  14.496 -0.3637  2.7220  0.3018
15028TIP3   OH266498   4.368   5.087   5.803 -0.0266 -0.3182 -0.0001
15028TIP3    H166499   4.422   5.064   5.879 -0.2899  0.3303  0.3873
15028TIP3    H266500   4.280   5.098   5.839 -0.6614 -2.3196 -0.7676
15029TIP3   OH266501   4.875   4.794  13.822 -0.0863  0.3670  0.1874
15029TIP3    H166502   4.961   4.755  13.835 -0.2846  0.2951  1.3386
15029TIP3    H266503   4.817   4.746  13.881 -0.9356  0.3891 -0.5905
15030TIP3   OH266504   0.290   6.432   3.963 -0.1561  0.4288 -0.1173
15030TIP3    H166505   0.315   6.491   4.034  0.2653  1.9878 -1.5072
15030TIP3    H266506   0.331   6.348   3.986 -0.9708  0.5637  2.0246
15031TIP3   OH266507   0.643   5.422  13.346 -0.0971 -0.5449  0.0757
15031TIP3    H166508   0.638   5.512  13.316  0.7127 -0.5476 -0.0733
15031TIP3    H266509   0.622   5.427  13.440  0.4658 -0.1286  0.1836
15032TIP3   OH266510   6.723   4.420  12.947 -0.0625  0.5289 -0.3867
15032TIP3    H166511   6.634   4.450  12.929 -0.6682 -0.8029  0.2483
15032TIP3    H266512   6.720   4.325  12.931  1.2141  0.4497 -0.2406
15033TIP3   OH266513   4.791   0.846   3.472  0.1956 -0.1655  0.4339
15033TIP3    H166514   4.812   0.801   3.390 -1.1154 -0.3635  0.1850
15033TIP3    H266515   4.875   0.879   3.503  0.6450  0.4257 -1.2931
15034TIP3   OH266516   5.319   2.786   0.419 -0.1377  0.1604 -0.2018
15034TIP3    H166517   5.274   2.702   0.408 -1.2086  0.8141 -1.1100
15034TIP3    H266518   5.268   2.833   0.485 -0.2694  0.5595 -0.5812
15035TIP3   OH266519   3.232   0.838   3.165 -0.4471 -0.4429 -0.1417
15035TIP3    H166520   3.262   0.801   3.248 -0.6613  1.8453  1.0122
15035TIP3    H266521   3.262   0.928   3.166 -3.0425  0.5250 -1.1652
15036TIP3   OH266522   0.010   5.702  11.975 -0.9341 -0.4135  0.0329
15036TIP3    H166523  -0.079   5.681  12.002 -0.8887 -4.3820 -2.1355
15036TIP3    H266524   0.021   5.658  11.891  2.6385  1.1745 -0.5359
15037TIP3   OH266525   1.637   3.313   1.419 -0.3025  0.4771  0.3440
15037TIP3    H166526   1.669   3.394   1.460 -1.1700  1.0270 -0.0324
15037TIP3    H266527   1.568   3.343   1.360  0.2042 -0.4143 -0.7227
15038TIP3   OH266528   6.192   5.104   4.199 -0.1774  0.3664 -0.0460
15038TIP3    H166529   6.103   5.085   4.170 -0.1643 -1.0978  0.7601
15038TIP3    H266530   6.208   5.042   4.270  1.9964 -0.4366 -1.1384
15039TIP3   OH266531   1.875   6.443   0.979 -0.4954  0.0399 -0.0182
15039TIP3    H166532   1.949   6.432   0.921 -1.5495 -0.4024 -1.3285
15039TIP3    H266533   1.883   6.372   1.042  2.0469  1.9608  2.0603
15040TIP3   OH266534   4.468   2.999  14.922  0.0992 -0.1437  0.1705
15040TIP3    H166535   4.476   3.016  14.828  0.4411 -1.6389 -0.1059
15040TIP3    H266536   4.531   3.058  14.963  0.9559 -0.4501 -0.6642
15041TIP3   OH266537   1.267   4.208   2.430 -0.0313  0.0915  0.7889
15041TIP3    H166538   1.327   4.281   2.424  1.1424 -0.8670  0.4228
15041TIP3    H266539   1.258   4.177   2.340  2.3758 -2.4145  1.2623
15042TIP3   OH266540   2.263   1.044  12.672 -0.3638 -0.3882  0.2649
15042TIP3    H166541   2.194   1.087  12.724  1.1550  0.7547  1.4344
15042TIP3    H266542   2.337   1.105  12.676  0.3164 -0.9629 -2.0504
15043TIP3   OH266543   2.696   0.580   3.233 -0.3096  0.4408  0.3513
15043TIP3    H166544   2.761   0.543   3.174 -2.4033 -3.4951  0.1637
15043TIP3    H266545   2.738   0.579   3.319  0.0978 -1.6793  0.1802
15044TIP3   OH266546   6.525   6.463   5.789  0.4673  0.1751  0.1024
15044TIP3    H166547   6.588   6.410   5.837  1.1492 -1.2160 -2.1813
15044TIP3    H266548   6.489   6.522   5.855  0.9986 -1.8770  2.3844
15045TIP3   OH266549   3.184   4.280   2.278 -0.5021  0.1988 -0.3679
15045TIP3    H166550   3.139   4.347   2.227 -2.0435 -0.0350  0.6412
15045TIP3    H266551   3.128   4.265   2.354  0.3242 -1.4830 -0.0347
15046TIP3   OH266552   6.045   6.563   0.431 -0.1912  1.0518 -0.4212
15046TIP3    H166553   6.061   6.469   0.438 -2.4257  0.7256  1.3902
15046TIP3    H266554   6.085   6.600   0.509  1.0412  1.7341 -1.3304
15047TIP3   OH266555   2.132   4.342   3.782 -0.3697  0.4610 -0.1874
15047TIP3    H166556   2.156   4.428   3.748  2.2379 -1.0111 -2.5192
15047TIP3    H266557   2.060   4.314   3.726  0.4343  0.1828 -1.1196
15048TIP3   OH266558   2.914   4.081  15.915  0.1044  0.1710  1.0590
15048TIP3    H166559   2.975   4.117  15.980  1.8350 -1.2553  0.3079
15048TIP3    H266560   2.971   4.042  15.848 -1.5801 -2.7507  1.1588
15049TIP3   OH266561   1.625   4.261   1.313 -0.5249 -0.4438  0.2803
15049TIP3    H166562   1.675   4.204   1.371 -0.1146  0.7978  1.1974
15049TIP3    H266563   1.685   4.282   1.242 -0.6461 -1.0607 -0.0087
15050TIP3   OH266564   1.085   6.067  12.341 -0.4285  0.1320  0.4412
15050TIP3    H166565   1.022   6.100  12.404 -0.5364  1.2494 -0.2311
15050TIP3    H266566   1.032   6.032  12.269 -0.3005 -0.4349  0.6202
15051TIP3   OH266567   0.204   6.524  16.449 -0.1792 -0.0071 -0.3700
15051TIP3    H166568   0.178   6.583  16.378 -0.0113  1.5550  0.8159
15051TIP3    H266569   0.125   6.475  16.469 -0.5763  0.4496 -0.7858
15052TIP3   OH266570   0.731   0.106  14.726 -0.2892  0.1232  0.3136
15052TIP3    H166571   0.650   0.154  14.743 -0.4167  0.6416 -1.5334
15052TIP3    H266572   0.780   0.162  14.667  0.2719 -1.3189 -0.6413
15053TIP3   OH266573   4.048   6.517  15.403 -0.1711 -0.5691 -0.2790
15053TIP3    H166574   4.130   6.485  15.364  0.6034  1.5563 -0.5286
15053TIP3    H266575   4.033   6.459  15.478  1.3319 -1.2861 -0.4942
15054TIP3   OH266576   5.184   6.414  16.447  0.0222  0.4703 -0.1619
15054TIP3    H166577   5.137   6.476  16.504  0.1498  0.0593  0.3936
15054TIP3    H266578   5.116   6.354  16.417 -0.1766  1.0977 -1.0170
15055TIP3   OH266579   2.568   2.952  10.508 -0.1665 -0.5360  0.0861
15055TIP3    H166580   2.525   2.946  10.594 -2.6224  1.4713 -0.8772
15055TIP3    H266581   2.622   3.030  10.513  0.0165 -0.6542 -0.0493
15056TIP3   OH266582   1.589   4.318   4.522  0.5492  0.2782  0.2077
15056TIP3    H166583   1.681   4.325   4.496  0.6204 -0.9786  0.0244
15056TIP3    H266584   1.549   4.400   4.494  1.1991  0.0636 -1.5005
15057TIP3   OH266585   6.106   0.069  16.853  0.1382  0.3215  0.4394
15057TIP3    H166586   6.155  -0.001  16.895  0.1852  0.3824  0.4867
15057TIP3    H266587   6.014   0.044  16.862  0.2045 -0.5733 -0.9925
15058TIP3   OH266588   2.407   1.582  15.903  0.1812  0.7617  0.7004
15058TIP3    H166589   2.381   1.566  15.812  1.6670  1.3359  0.1476
15058TIP3    H266590   2.378   1.503  15.950  0.2533  0.0326 -0.4455
15059TIP3   OH266591   5.730   3.221   3.825 -0.4079 -0.0422  0.3965
15059TIP3    H166592   5.685   3.297   3.862  0.7075  0.6981  0.2912
15059TIP3    H266593   5.805   3.208   3.884  0.1963 -0.1777 -0.3954
15060TIP3   OH266594   6.526   1.378   2.864  0.3058  0.6817 -0.0508
15060TIP3    H166595   6.491   1.296   2.899 -0.3986 -0.0087 -2.1636
15060TIP3    H266596   6.580   1.351   2.790  1.4324  2.0565  0.2362
15061TIP3   OH266597   2.472   2.697  16.798  0.0460 -0.1691  0.0512
15061TIP3    H166598   2.487   2.686  16.705  2.6128  0.3945  0.3339
15061TIP3    H266599   2.459   2.608  16.831 -0.0573 -0.4427 -0.7091
15062TIP3   OH266600   3.274   1.644  13.106 -0.3133  0.0300 -0.1028
15062TIP3    H166601   3.268   1.734  13.074 -0.1027 -0.4344 -1.5248
15062TIP3    H266602   3.229   1.645  13.190 -2.8239  0.8588 -1.3727
15063TIP3   OH266603   3.954   1.396  14.607 -0.6267 -0.0533  0.3292
15063TIP3    H166604   3.997   1.318  14.572  0.7768  0.5831  0.5561
15063TIP3    H266605   3.951   1.382  14.702 -0.9200 -0.0807  0.3185
15064TIP3   OH266606   3.366   4.024   4.097  0.0585 -0.2880  0.4383
15064TIP3    H166607   3.432   4.053   4.160 -1.3411  1.4633  1.2111
15064TIP3    H266608   3.397   4.056   4.013  1.2748 -1.4762  0.3868
15065TIP3   OH266609   4.036   0.744  17.094 -0.4801  0.7692 -0.4858
15065TIP3    H166610   4.052   0.710  17.182  1.4684  0.0500 -1.0549
15065TIP3    H266611   4.009   0.835  17.107 -4.1599 -0.3331  0.9965
15066TIP3   OH266612   2.966   0.324  13.426  0.1660 -0.1879  1.2222
15066TIP3    H166613   2.986   0.417  13.428 -0.7706  0.0020  1.8471
15066TIP3    H266614   2.923   0.310  13.342 -0.3592  0.0865  1.4429
15067TIP3   OH266615   6.779   1.511   2.280  0.2380  0.1763  0.7649
15067TIP3    H166616   6.852   1.456   2.309  1.4706  1.1759 -0.3242
15067TIP3    H266617   6.718   1.510   2.354  0.1793 -2.6256  0.7978
15068TIP3   OH266618   4.920   6.011  12.485  0.6562 -0.3931 -0.4579
15068TIP3    H166619   4.978   6.068  12.434 -1.6911  1.1959 -1.5250
15068TIP3    H266620   4.894   6.065  12.559 -0.9908 -0.2968 -1.0713
15069TIP3   OH266621   0.540   6.054  16.901  0.3895 -0.5874  0.0761
15069TIP3    H166622   0.476   5.994  16.940  0.2224  0.3004  1.2206
15069TIP3    H266623   0.501   6.141  16.912  1.4443 -0.1030  0.0875
15070TIP3   OH266624   6.295   6.302  16.380 -0.0936 -0.2723  0.2264
15070TIP3    H166625   6.349   6.272  16.453  2.3327 -0.1996 -1.4447
15070TIP3    H266626   6.254   6.222  16.347 -1.0849 -0.3283  1.4836
15071TIP3   OH266627   3.536   1.240   0.844 -0.0736  0.0048 -0.3316
15071TIP3    H166628   3.586   1.298   0.786 -0.9986 -0.0466 -1.1997
15071TIP3    H266629   3.566   1.152   0.822  2.0822  0.1392  1.6956
15072TIP3   OH266630   6.598   1.286   1.297 -0.6915  0.1830 -0.5408
15072TIP3    H166631   6.608   1.366   1.245 -1.1209  0.1084 -0.7421
15072TIP3    H266632   6.544   1.228   1.242  2.2721 -1.5536 -1.8695
15073TIP3   OH266633   4.583   5.908   5.568  0.5398 -0.1880  0.9585
15073TIP3    H166634   4.490   5.886   5.578  0.3411  0.2367  0.1991
15073TIP3    H266635   4.593   5.992   5.613  0.5861 -0.2950  1.1486
15074TIP3   OH266636   5.787   4.631   3.755 -0.0828  0.0954  0.0630
15074TIP3    H166637   5.805   4.623   3.849 -2.3120  0.6326  0.5948
15074TIP3    H266638   5.757   4.544   3.729  0.9223 -0.1600 -0.2517
15075TIP3   OH266639   3.071   6.686   5.190 -0.2069  0.2466 -0.2726
15075TIP3    H166640   3.115   6.626   5.129  1.8501  0.0132  1.3108
15075TIP3    H266641   3.114   6.770   5.177 -0.2614  0.3717  0.2939
15076TIP3   OH266642   1.643   3.300   4.341  0.0586  0.0793 -0.0861
15076TIP3    H166643   1.549   3.287   4.328  0.0275  0.4257 -0.2175
15076TIP3    H266644   1.678   3.213   4.357 -0.4941  0.1055  1.3200
15077TIP3   OH266645   6.005   3.363   4.796 -0.1169 -0.2148 -0.0946
15077TIP3    H166646   6.054   3.400   4.723 -0.1100 -1.6101 -0.8296
15077TIP3    H266647   5.986   3.438   4.853  2.0649  0.5157 -0.2236
15078TIP3   OH266648   0.412   4.350   4.970  0.1267  0.3432  0.1301
15078TIP3    H166649   0.455   4.394   5.043  0.5477 -1.2735  0.9187
15078TIP3    H266650   0.320   4.346   4.996  0.5774 -2.0727  1.6495
15079TIP3   OH266651   0.619   3.239  14.115  0.9560  0.0035 -0.7009
15079TIP3    H166652   0.563   3.306  14.076  0.0953 -0.6717 -0.6373
15079TIP3    H266653   0.704   3.250  14.072  0.7874  1.0375 -0.7929
15080TIP3   OH266654   2.003   0.219  16.648 -0.5643  0.1148  0.5234
15080TIP3    H166655   1.985   0.245  16.557 -0.0971 -0.8838  0.1291
15080TIP3    H266656   1.963   0.132  16.656  0.8042 -0.5165  0.7619
15081TIP3   OH266657   1.812   2.184  12.438  0.0577 -0.2977  0.2312
15081TIP3    H166658   1.855   2.102  12.414 -1.0160 -0.5937 -0.7456
15081TIP3    H266659   1.768   2.212  12.358 -2.1864 -0.4172  1.3642
15082TIP3   OH266660   1.603   4.935  12.298 -0.1208  0.1531  0.9074
15082TIP3    H166661   1.658   4.861  12.324 -2.7544 -2.2030  0.1687
15082TIP3    H266662   1.619   4.944  12.204 -1.2451 -0.8172  0.6056
15083TIP3   OH266663   3.251   4.836  14.393 -0.0328 -0.0471 -0.1968
15083TIP3    H166664   3.302   4.851  14.314  1.4513 -3.5022 -0.1018
15083TIP3    H266665   3.240   4.741  14.397 -5.2146  0.2734  0.7091
15084TIP3   OH266666   0.425   5.433  12.098 -0.5170  0.2647 -0.7170
15084TIP3    H166667   0.355   5.493  12.074  0.0788  0.6400 -1.5611
15084TIP3    H266668   0.483   5.432  12.022  1.2210  1.1952  0.5205
15085TIP3   OH266669   0.273   3.261  14.196 -0.5292 -0.2523 -0.8585
15085TIP3    H166670   0.278   3.330  14.130 -1.1756 -0.5646 -1.2438
15085TIP3    H266671   0.181   3.261  14.224  0.0059  0.7844  1.0318
15086TIP3   OH266672   6.250   3.691  11.441 -0.6153  0.5249 -0.3868
15086TIP3    H166673   6.184   3.627  11.415  0.3388 -0.3562 -0.6929
15086TIP3    H266674   6.240   3.763  11.379 -1.1537  0.3013 -0.5604
15087TIP3   OH266675   2.143   6.309   1.179  0.0676  0.0146  0.2095
15087TIP3    H166676   2.210   6.333   1.243 -0.8263  0.6960  0.9280
15087TIP3    H266677   2.060   6.316   1.227 -0.4340 -2.7276 -0.0771
15088TIP3   OH266678   0.272   5.246  11.790  0.1046  0.4626 -0.4047
15088TIP3    H166679   0.355   5.209  11.758  0.6134  0.1035  1.2077
15088TIP3    H266680   0.261   5.327  11.739  1.8206  0.8782 -0.1999
15089TIP3   OH266681   0.995   2.949  15.722  0.7440  0.3334  0.2023
15089TIP3    H166682   0.986   3.010  15.796 -0.2315  0.2415  0.1802
15089TIP3    H266683   1.089   2.944  15.706  0.8433  2.5281 -0.3457
15090TIP3   OH266684   3.626   0.631   5.794  0.1461  0.3291  0.0538
15090TIP3    H166685   3.558   0.629   5.862  0.3883 -0.6686  0.2936
15090TIP3    H266686   3.579   0.654   5.714 -0.4821 -0.2992  0.2256
15091TIP3   OH266687   6.623   6.027   4.612 -0.3722  0.3929 -0.4001
15091TIP3    H166688   6.541   6.007   4.567 -0.0203  0.2130 -0.9745
15091TIP3    H266689   6.596   6.063   4.696 -1.0784  2.2121 -1.3480
15092TIP3   OH266690   4.210   2.834  10.830  0.4662 -0.0637  0.6676
15092TIP3    H166691   4.281   2.859  10.771 -1.3805  1.8171 -0.8930
15092TIP3    H266692   4.136   2.814  10.772 -0.8752 -0.0003  2.2790
15093TIP3   OH266693   0.518   2.114  11.627  0.1813  0.7982 -0.4483
15093TIP3    H166694   0.529   2.025  11.658  0.2130  0.7584 -0.5722
15093TIP3    H266695   0.556   2.114  11.539  3.4028  1.7671  0.7850
15094TIP3   OH266696   0.788   2.821  15.215 -0.6140  0.4324  0.0864
15094TIP3    H166697   0.717   2.862  15.263 -0.8938  0.5578 -0.4322
15094TIP3    H266698   0.867   2.851  15.260 -0.7989  1.6901 -0.3744
15095TIP3   OH266699   3.732   6.375   3.746 -0.0141 -0.4024 -0.0173
15095TIP3    H166700   3.709   6.356   3.837 -0.4351 -0.5116 -0.1462
15095TIP3    H266701   3.720   6.292   3.700  1.4488 -0.6883  0.0662
15096TIP3   OH266702   2.188   4.441  13.654  0.2242  0.0655  0.3009
15096TIP3    H166703   2.164   4.528  13.622 -1.6672 -0.1546  1.0121
15096TIP3    H266704   2.109   4.388  13.641  1.4498 -1.6678 -0.4483
15097TIP3   OH266705   1.587   0.930  17.091 -0.1875 -0.0299  0.0648
15097TIP3    H166706   1.593   0.993  17.163  2.5079  1.7608 -1.5358
15097TIP3    H266707   1.646   0.859  17.116  1.1857  0.8542 -0.4957
15098TIP3   OH266708   5.752   3.713  13.448 -0.5252 -0.0742 -0.0132
15098TIP3    H166709   5.714   3.684  13.531  0.9521 -0.3054  0.6011
15098TIP3    H266710   5.780   3.633  13.404 -1.3117  0.0434 -0.7681
15099TIP3   OH266711   5.995   4.131  13.267  0.4741  0.1985  0.1276
15099TIP3    H166712   6.015   4.143  13.359  0.9709  0.3755 -0.0012
15099TIP3    H266713   6.080   4.125  13.224  0.2981  2.0293 -0.5723
15100TIP3   OH266714   4.898   6.041   4.627 -0.3323  0.9198  0.5808
15100TIP3    H166715   4.826   6.015   4.569 -1.0850 -0.0796  1.9125
15100TIP3    H266716   4.928   6.124   4.592  0.0810 -0.2193 -2.0065
15101TIP3   OH266717   0.917   0.325  12.787  0.0667 -0.2819  0.7424
15101TIP3    H166718   0.943   0.413  12.812 -0.0413 -0.0417  0.0293
15101TIP3    H266719   0.837   0.308  12.838 -1.3691  1.0142 -0.9460
15102TIP3   OH266720   0.366   2.241  14.546  0.4916 -0.5918  0.5067
15102TIP3    H166721   0.275   2.232  14.574  0.7962  0.8433  2.1926
15102TIP3    H266722   0.401   2.152  14.548 -0.9711 -1.2293 -0.6572
15103TIP3   OH266723   4.111   3.558   0.541  0.0805  0.3990  0.3728
15103TIP3    H166724   4.059   3.481   0.562  0.4494  0.0597  0.0378
15103TIP3    H266725   4.147   3.587   0.625  0.0561  0.1271  0.4763
15104TIP3   OH266726   6.491   3.138  13.316 -0.2473 -0.4283  0.4439
15104TIP3    H166727   6.425   3.114  13.381  1.4475 -2.5001  1.5176
15104TIP3    H266728   6.558   3.185  13.366  0.1935 -0.4040 -0.1600
15105TIP3   OH266729   0.833   2.717   5.335 -0.5785 -1.0586  0.2563
15105TIP3    H166730   0.870   2.749   5.417  0.4668 -1.4774 -0.0291
15105TIP3    H266731   0.766   2.654   5.362  0.2889 -1.7757  0.8071
15106TIP3   OH266732   2.892   4.501   2.911 -0.5006 -0.0374  0.1262
15106TIP3    H166733   2.950   4.570   2.878 -1.3729  1.0469  0.7522
15106TIP3    H266734   2.821   4.497   2.846  0.7016 -2.0631 -1.1759
15107TIP3   OH266735   5.592   6.456   5.584  1.0379 -0.5985  0.2416
15107TIP3    H166736   5.539   6.478   5.507  0.1884 -0.4987  0.8366
15107TIP3    H266737   5.611   6.363   5.573  0.0972 -0.8233  0.3728
15108TIP3   OH266738   5.124   0.944   3.939 -0.4416  0.0295 -0.2766
15108TIP3    H166739   5.043   0.959   3.891 -1.4392  1.0352  1.6101
15108TIP3    H266740   5.115   0.995   4.019  2.2458  0.5331 -0.1758
15109TIP3   OH266741   0.615   2.237   2.175 -0.4720 -0.3191 -0.1729
15109TIP3    H166742   0.623   2.142   2.190 -0.2489 -0.3759 -0.6258
15109TIP3    H266743   0.697   2.273   2.206 -1.1811 -0.0612  1.5239
15110TIP3   OH266744   2.652   1.549   5.347  0.1006  0.0878 -0.1685
15110TIP3    H166745   2.687   1.595   5.271  1.2427 -1.3276 -0.5347
15110TIP3    H266746   2.692   1.593   5.422  1.1736 -0.2952 -0.5085
15111TIP3   OH266747   2.351   3.315   3.593  0.5308  0.2764  0.3031
15111TIP3    H166748   2.438   3.356   3.597  1.0207 -0.2760 -2.3730
15111TIP3    H266749   2.293   3.376   3.638  2.0475  1.4336  0.7837
15112TIP3   OH266750   6.237   3.387  13.600 -0.3861  0.6953 -0.7041
15112TIP3    H166751   6.220   3.452  13.668 -2.2991 -0.4770  0.0248
15112TIP3    H266752   6.151   3.364  13.567  0.4049  0.0586 -2.4241
15113TIP3   OH266753   2.035   5.189  15.362  0.2762  0.2700  0.5591
15113TIP3    H166754   2.075   5.274  15.383 -0.1204  0.4448  0.6157
15113TIP3    H266755   2.071   5.129  15.428  0.5621  0.3931  0.5163
15114TIP3   OH266756   1.701   4.086   1.926 -0.1785  0.0153  0.1462
15114TIP3    H166757   1.775   4.091   1.866  1.4489  1.0395  2.1159
15114TIP3    H266758   1.729   4.027   1.995 -0.2970  1.9662  1.9899
15115TIP3   OH266759   1.589   6.113   2.086  0.2100 -0.1128  0.5149
15115TIP3    H166760   1.588   6.197   2.132  1.1470  0.8102 -1.0538
15115TIP3    H266761   1.670   6.070   2.115  1.1321  0.7493 -0.6807
15116TIP3   OH266762   4.715   4.320  13.384  0.2854 -0.9322 -0.6886
15116TIP3    H166763   4.722   4.226  13.368 -0.3419 -1.0592 -0.2528
15116TIP3    H266764   4.633   4.330  13.432  0.8553 -0.2735  0.1607
15117TIP3   OH266765   0.103   1.643  12.905  0.5750  0.3202 -0.3031
15117TIP3    H166766   0.180   1.669  12.956 -0.0629  1.3797  0.1517
15117TIP3    H266767   0.032   1.639  12.969  0.5513 -2.2957 -0.4025
15118TIP3   OH266768   6.321   4.107   0.208  0.1061  0.7862  0.4423
15118TIP3    H166769   6.284   4.132   0.293  1.2617  1.0248  0.8990
15118TIP3    H266770   6.365   4.024   0.225  1.0378  1.2331  0.2965
15119TIP3   OH266771   5.346   5.599   5.632 -0.5353 -0.0841 -0.4246
15119TIP3    H166772   5.422   5.653   5.651 -1.0270  0.0178  1.5453
15119TIP3    H266773   5.303   5.641   5.557  1.8639 -0.7571 -2.2818
15120TIP3   OH266774   1.119   6.102  13.462 -0.7537  0.0949 -0.1313
15120TIP3    H166775   1.194   6.156  13.435 -0.6075 -0.6141 -1.2114
15120TIP3    H266776   1.046   6.134  13.410 -0.6615 -0.7301 -0.7978
15121TIP3   OH266777   1.676   2.189   5.050  0.0006 -0.3774  0.2891
15121TIP3    H166778   1.753   2.233   5.085  1.3819 -1.0707 -1.7105
15121TIP3    H266779   1.603   2.223   5.102  1.3285  2.1874  0.6145
15122TIP3   OH266780   4.315   3.969  10.939 -0.1482 -0.5554  0.0558
15122TIP3    H166781   4.333   3.915  10.862 -2.5789 -0.4385 -0.6782
15122TIP3    H266782   4.314   4.059  10.906 -0.8087 -0.4691  0.2948
15123TIP3   OH266783   3.197   4.281   5.414  0.0495 -0.0766 -0.0960
15123TIP3    H166784   3.111   4.323   5.408 -0.8925 -1.6168  1.5897
15123TIP3    H266785   3.184   4.194   5.377  1.0898 -0.0880 -0.4738
15124TIP3   OH266786   5.253   2.783  11.761  0.0091  0.2890 -0.2674
15124TIP3    H166787   5.304   2.709  11.727  0.1049  0.2952 -0.1378
15124TIP3    H266788   5.283   2.859  11.712 -1.0608  0.0287 -1.3814
15125TIP3   OH266789   1.986   1.135   3.359  0.1665  0.3524  0.1538
15125TIP3    H166790   1.919   1.069   3.378 -2.1403  2.4170 -0.2664
15125TIP3    H266791   2.024   1.156   3.444 -0.0319 -0.5346  0.4701
15126TIP3   OH266792   1.998   4.404  10.604 -0.0754  0.6928  1.0677
15126TIP3    H166793   1.975   4.334  10.665  2.0954 -1.2644 -0.2026
15126TIP3    H266794   2.069   4.451  10.648  1.3570 -0.6003  0.2693
15127TIP3   OH266795   4.501   2.573   6.018 -0.0052 -0.1485  0.3888
15127TIP3    H166796   4.464   2.604   5.935  0.6937 -0.4273 -0.0365
15127TIP3    H266797   4.434   2.592   6.083 -0.8029 -0.4509 -0.3313
15128TIP3   OH266798   0.268   0.537  12.863 -0.4246  0.0660  0.4799
15128TIP3    H166799   0.257   0.617  12.811 -0.3853 -0.9349 -1.1217
15128TIP3    H266800   0.319   0.565  12.939  1.0258  1.2668 -0.8703
15129TIP3   OH266801   2.204   4.455  15.298 -0.2955 -0.1910 -0.2896
15129TIP3    H166802   2.176   4.430  15.386  0.5986 -0.2424  0.0011
15129TIP3    H266803   2.278   4.514  15.313 -0.9636  0.8624 -0.9984
15130TIP3   OH266804   1.683   3.947  12.654  0.2211 -0.9390  0.3241
15130TIP3    H166805   1.670   3.877  12.718  1.2946 -0.4858  1.0692
15130TIP3    H266806   1.717   4.021  12.705  1.3260 -0.6359 -0.7886
15131TIP3   OH266807   4.622   3.517   1.035 -0.3439 -0.2320  0.2545
15131TIP3    H166808   4.582   3.525   0.948  1.1010  0.8413 -0.3587
15131TIP3    H266809   4.641   3.424   1.044 -1.1775 -0.4624 -0.2775
15132TIP3   OH266810   2.964   1.383   6.382  0.1633  0.2821 -0.4017
15132TIP3    H166811   2.994   1.309   6.328 -0.6836 -0.1823 -0.2426
15132TIP3    H266812   2.869   1.381   6.376  0.1091  1.0615  0.0178
15133TIP3   OH266813   6.058   3.516  11.349 -0.0566 -0.0087  0.7987
15133TIP3    H166814   5.995   3.519  11.277  1.3398  0.4074 -0.4642
15133TIP3    H266815   6.110   3.437  11.332  0.3512  0.1452  1.3145
15134TIP3   OH266816   1.906   2.922  16.115 -0.1770  0.0658  0.1550
15134TIP3    H166817   1.853   2.986  16.067  0.8755  0.1464 -0.9650
15134TIP3    H266818   1.850   2.846  16.124 -0.8691  0.5491 -0.0148
15135TIP3   OH266819   5.354   1.661   1.644  0.5336 -0.6144  0.2984
15135TIP3    H166820   5.436   1.649   1.597  1.5368  0.0906  1.7922
15135TIP3    H266821   5.314   1.738   1.604  1.4800  0.1110  0.7150
15136TIP3   OH266822   1.150   4.477  14.476 -0.6202 -0.1494  0.4424
15136TIP3    H166823   1.106   4.450  14.556  0.7605  2.8057  2.3793
15136TIP3    H266824   1.240   4.445  14.486 -0.8048 -1.0948 -0.7169
15137TIP3   OH266825   6.444   3.709  15.409  0.1702 -0.3585  0.3046
15137TIP3    H166826   6.408   3.793  15.440  0.1593 -0.5534  0.8394
15137TIP3    H266827   6.466   3.725  15.318 -2.1336 -0.4994 -0.3406
15138TIP3   OH266828   6.276   4.688  16.438  0.3364  0.1654 -0.8602
15138TIP3    H166829   6.314   4.610  16.479  1.7732  0.6058 -1.3097
15138TIP3    H266830   6.205   4.713  16.497  1.3451 -0.1447  0.5450
15139TIP3   OH266831   0.261   6.075  14.030  0.1642  0.4636 -0.0046
15139TIP3    H166832   0.167   6.059  14.023  0.3230 -0.9234  0.6268
15139TIP3    H266833   0.289   6.020  14.104  1.5121  0.6730 -0.3318
15140TIP3   OH266834   2.114   0.920  16.018 -0.2908  0.2360 -0.5560
15140TIP3    H166835   2.126   0.886  15.929  1.6877  0.9471 -0.6223
15140TIP3    H266836   2.192   0.890  16.066 -0.5818  1.1299  0.5207
15141TIP3   OH266837   0.989   4.722  15.738 -0.0339  0.4180  0.3896
15141TIP3    H166838   1.012   4.640  15.695 -1.1137  0.1962  0.2186
15141TIP3    H266839   0.995   4.703  15.832  2.0434  0.8249  0.3908
15142TIP3   OH266840   2.860   0.201  16.683  0.6105  0.0080  0.1773
15142TIP3    H166841   2.808   0.120  16.689  0.3779  0.1174 -0.2799
15142TIP3    H266842   2.932   0.178  16.624  0.7346  0.0368  0.3183
15143TIP3   OH266843   2.116   1.304   3.820  0.2267 -0.2394  0.0892
15143TIP3    H166844   2.064   1.327   3.897 -0.7184 -1.0092 -0.2935
15143TIP3    H266845   2.180   1.241   3.852 -0.1875 -0.5841  0.2430
15144TIP3   OH266846   0.527   6.265   2.082 -0.1404  0.7437 -0.2278
15144TIP3    H166847   0.488   6.211   2.013  2.0851 -0.0630 -0.9413
15144TIP3    H266848   0.580   6.330   2.035  2.5757 -0.6962  0.6259
15145TIP3   OH266849   6.590   0.177  10.406  0.0675  0.0364 -0.1344
15145TIP3    H166850   6.551   0.091  10.393  2.4877 -0.9046 -1.9401
15145TIP3    H266851   6.632   0.172  10.492 -1.4439  0.1596  0.6438
15146TIP3   OH266852   1.725   2.041  13.490 -0.1411 -0.0087 -0.2331
15146TIP3    H166853   1.657   2.085  13.438 -0.2684 -0.1405 -0.1764
15146TIP3    H266854   1.802   2.040  13.432 -0.5665 -1.0505 -0.8003
15147TIP3   OH266855   5.160   6.519  11.581 -0.6258  1.0966 -0.1951
15147TIP3    H166856   5.248   6.495  11.612 -0.3854  1.6682 -0.4369
15147TIP3    H266857   5.171   6.537  11.488 -0.9735  1.3111 -0.1965
15148TIP3   OH266858   6.091   0.020  15.082 -0.2857 -0.0766  0.1265
15148TIP3    H166859   6.185   0.004  15.079 -0.5290 -1.9608  0.8917
15148TIP3    H266860   6.052  -0.061  15.048 -1.6535 -0.4229  2.3479
15149TIP3   OH266861   3.344   1.122   3.038  0.4034  0.1684  0.3798
15149TIP3    H166862   3.292   1.085   2.967 -0.2373 -0.6179  1.2265
15149TIP3    H266863   3.431   1.085   3.026  0.5056  0.6413 -0.4208
15150TIP3   OH266864   4.723   6.028   5.380  0.2623  0.3304 -0.3009
15150TIP3    H166865   4.661   5.974   5.428  1.4484 -0.4801  0.3799
15150TIP3    H266866   4.670   6.096   5.339 -1.2163 -1.0491 -0.7688
15151TIP3   OH266867   3.862   0.950  14.364  0.1852  0.0485 -0.3615
15151TIP3    H166868   3.926   1.015  14.394  0.5614 -0.2025 -0.6163
15151TIP3    H266869   3.876   0.875  14.422 -0.9823  0.5749  0.6438
15152TIP3   OH266870   3.911   2.954  15.175 -0.0130  0.5897  0.2053
15152TIP3    H166871   3.995   2.915  15.201 -0.3311 -1.3709 -1.4380
15152TIP3    H266872   3.912   3.041  15.214  1.5542 -0.3954  2.6064
15153TIP3   OH266873   1.749   3.342   0.730  0.3196 -0.1618  0.2133
15153TIP3    H166874   1.769   3.373   0.642 -2.0205 -0.1383 -0.3818
15153TIP3    H266875   1.746   3.421   0.784 -0.0622  0.0410 -0.0995
15154TIP3   OH266876   6.490   3.468   3.139 -0.0388  0.3773 -0.1360
15154TIP3    H166877   6.465   3.376   3.131  0.8660  0.1340 -0.2462
15154TIP3    H266878   6.445   3.498   3.219  0.0418 -0.2880  0.1698
15155TIP3   OH266879   5.553   0.740   3.362  0.0947 -0.3197 -0.2446
15155TIP3    H166880   5.465   0.717   3.393 -0.1663 -0.4089 -1.0237
15155TIP3    H266881   5.611   0.715   3.434 -0.4285 -1.1345 -0.0917
15156TIP3   OH266882   5.022   0.928  13.599 -0.5812  0.3316 -0.5641
15156TIP3    H166883   5.017   0.837  13.629 -3.0740  0.2681 -0.9549
15156TIP3    H266884   5.086   0.926  13.528  0.0939 -0.9219  0.0472
15157TIP3   OH266885   5.027   2.927  13.997 -0.1348  0.2706  0.3311
15157TIP3    H166886   4.966   2.971  13.938  0.2312  0.1909 -0.1193
15157TIP3    H266887   4.972   2.874  14.054 -0.5976  1.4301  0.9965
15158TIP3   OH266888   0.716   5.607  16.100  0.0854 -0.1516 -0.1701
15158TIP3    H166889   0.679   5.695  16.100 -0.1052 -0.2058 -1.6059
15158TIP3    H266890   0.805   5.619  16.065  1.1749 -0.1453  2.4142
15159TIP3   OH266891   4.441   0.011  14.558  0.3159 -0.2189 -0.5173
15159TIP3    H166892   4.462  -0.072  14.516 -0.3894  0.1554 -1.6581
15159TIP3    H266893   4.483   0.077  14.503  0.8726  0.1921  0.3837
15160TIP3   OH266894   0.578   3.182  11.016 -0.1961  0.2608 -0.3062
15160TIP3    H166895   0.667   3.203  10.986 -0.0564  0.8861  0.5283
15160TIP3    H266896   0.525   3.257  10.988 -0.2428  0.4170  0.2084
15161TIP3   OH266897   1.004   1.820   5.385 -0.4297  0.4125 -0.3408
15161TIP3    H166898   1.083   1.778   5.420 -0.4211  1.3407  0.8212
15161TIP3    H266899   0.978   1.764   5.311 -0.4086 -1.6133  1.0959
15162TIP3   OH266900   0.575   5.744   2.189 -0.0986 -0.3476 -0.1232
15162TIP3    H166901   0.561   5.650   2.177  0.6586 -0.4935  0.0841
15162TIP3    H266902   0.670   5.755   2.181  0.0665  0.0798  1.9579
15163TIP3   OH266903   4.234   1.586   5.454  0.3998 -0.1904  0.0504
15163TIP3    H166904   4.168   1.518   5.463 -0.2000  0.5444  1.4583
15163TIP3    H266905   4.297   1.550   5.391 -0.7407 -1.3580 -0.4598
15164TIP3   OH266906   5.220   6.032  12.415  0.2936  0.2797 -0.4141
15164TIP3    H166907   5.297   5.975  12.416 -0.0783 -0.2419  1.2872
15164TIP3    H266908   5.240   6.101  12.478 -0.4964  0.3275 -0.2029
15165TIP3   OH266909   0.544   0.612  11.340  0.1259 -0.1776 -0.0498
15165TIP3    H166910   0.612   0.582  11.280  0.0470 -1.5678  0.5160
15165TIP3    H266911   0.585   0.609  11.426  0.1611  1.5546  0.0168
15166TIP3   OH266912   1.152   0.482   0.151 -0.0304  0.2040 -0.0480
15166TIP3    H166913   1.072   0.432   0.139 -0.4561  0.6018  1.0793
15166TIP3    H266914   1.148   0.550   0.084 -0.9539  0.6240  0.4232
15167TIP3   OH266915   4.939   0.917  16.521 -0.2568 -0.0990 -0.3558
15167TIP3    H166916   4.970   0.995  16.566 -0.6387  1.1002 -2.0553
15167TIP3    H266917   5.013   0.856  16.524  0.4833  0.7941 -0.0228
15168TIP3   OH266918   0.915   5.442   2.144 -0.6949  0.4984  0.2730
15168TIP3    H166919   0.875   5.394   2.217 -0.6474  0.3506  0.2032
15168TIP3    H266920   0.996   5.394   2.126 -2.0524 -1.1889 -1.7346
15169TIP3   OH266921   5.785   5.793  11.751  0.3877  0.5125  0.4053
15169TIP3    H166922   5.710   5.839  11.713  0.5136 -0.4497 -1.0601
15169TIP3    H266923   5.812   5.849  11.824  1.2523  3.4579 -1.9449
15170TIP3   OH266924   5.641   2.062  13.844  0.5778  0.1720 -0.2522
15170TIP3    H166925   5.627   1.967  13.848  1.7733 -0.2676 -3.4925
15170TIP3    H266926   5.574   2.094  13.784  0.2101  1.4225  0.7795
15171TIP3   OH266927   1.060   0.027  12.822  0.3257 -0.2883 -0.4168
15171TIP3    H166928   1.101   0.111  12.799  0.3012 -0.0328  0.4280
15171TIP3    H266929   1.134  -0.032  12.837  0.3357 -0.6872 -1.9167
15172TIP3   OH266930   5.691   0.469   3.896  0.7162 -0.2227  0.1004
15172TIP3    H166931   5.739   0.545   3.864 -0.9164  0.6569 -0.3508
15172TIP3    H266932   5.694   0.407   3.823 -1.9082  1.2852 -1.4188
15173TIP3   OH266933   0.700   0.687  16.450 -0.1192  0.3782  0.3606
15173TIP3    H166934   0.689   0.705  16.356  0.9547  3.2166  0.6971
15173TIP3    H266935   0.619   0.719  16.490  0.8646  2.5708  0.7209
15174TIP3   OH266936   1.410   5.499  16.709 -0.2907 -0.6134  0.1535
15174TIP3    H166937   1.412   5.552  16.630 -1.6058 -1.6332 -0.5981
15174TIP3    H266938   1.391   5.562  16.780 -1.8481 -0.0376 -0.7153
15175TIP3   OH266939   3.255   3.593   4.999  1.0319  0.0299  0.4784
15175TIP3    H166940   3.338   3.639   4.987  0.9655 -0.0939 -0.5480
15175TIP3    H266941   3.235   3.603   5.092  2.7219 -0.8300  0.9875
15176TIP3   OH266942   3.769   4.408  15.512 -0.0979 -0.0885 -0.2393
15176TIP3    H166943   3.855   4.439  15.541 -0.5291  1.3948 -0.5093
15176TIP3    H266944   3.709   4.479  15.534 -1.0371 -0.5208 -1.3440
15177TIP3   OH266945   6.442   2.316  12.371  0.2714  0.0091 -0.1545
15177TIP3    H166946   6.531   2.334  12.341  0.4857 -0.5776  0.1052
15177TIP3    H266947   6.435   2.220  12.369 -0.0021 -0.0062  0.8118
15178TIP3   OH266948   3.483   5.485  12.351  0.2644 -0.0474  0.5168
15178TIP3    H166949   3.456   5.393  12.352 -0.2536  0.0812 -0.2492
15178TIP3    H266950   3.506   5.505  12.441 -2.3718 -0.1340  1.2820
15179TIP3   OH266951   5.479   3.228   2.804 -0.0587 -0.4361 -0.0305
15179TIP3    H166952   5.531   3.228   2.885 -0.5215 -0.6964  0.2737
15179TIP3    H266953   5.534   3.182   2.740  0.7729  0.7134 -0.1784
15180TIP3   OH266954   4.246   5.881  11.524 -0.4190  0.6934  0.4941
15180TIP3    H166955   4.247   5.786  11.521  0.6262  0.6686  1.0688
15180TIP3    H266956   4.338   5.906  11.534 -0.8272  1.6875  2.1176
15181TIP3   OH266957   5.443   6.243  16.528 -0.3356 -1.0044 -0.4146
15181TIP3    H166958   5.387   6.319  16.519 -0.9173 -0.9362  2.7551
15181TIP3    H266959   5.465   6.239  16.621  1.7597 -3.2707 -0.8762
15182TIP3   OH266960   0.777   3.737  15.340 -0.1407 -0.1564  0.2002
15182TIP3    H166961   0.766   3.712  15.432  0.0303  1.1188  0.5939
15182TIP3    H266962   0.852   3.686  15.309  0.9299  0.7068  1.2959
15183TIP3   OH266963   4.831   6.479  13.701 -0.2972  0.0213 -0.0780
15183TIP3    H166964   4.858   6.398  13.657 -0.5626 -0.8082  1.2483
15183TIP3    H266965   4.756   6.510  13.650 -1.2002 -1.4304  0.3167
15184TIP3   OH266966   3.330   1.962  11.425 -0.0051  0.3610 -0.1714
15184TIP3    H166967   3.405   1.924  11.379  1.1271  2.2006  0.0451
15184TIP3    H266968   3.310   2.042  11.376 -2.5478 -0.5900 -0.8485
15185TIP3   OH266969   6.256   3.508  16.486 -0.1998 -0.4977 -0.1329
15185TIP3    H166970   6.307   3.588  16.500  1.6374 -1.6889  0.3959
15185TIP3    H266971   6.320   3.444  16.456 -1.5664 -1.8680 -0.2465
15186TIP3   OH266972   3.149   2.824  14.269  0.6685 -0.3781  0.3201
15186TIP3    H166973   3.151   2.742  14.319  0.3026  0.5495  1.9387
15186TIP3    H266974   3.121   2.889  14.333 -1.8994  0.5627 -1.5821
15187TIP3   OH266975   5.344   5.042   1.514  0.8494  0.1419 -0.1246
15187TIP3    H166976   5.267   5.070   1.563  0.1514  0.5882 -1.4619
15187TIP3    H266977   5.328   4.949   1.496 -0.6592  0.8012 -2.6310
15188TIP3   OH266978   0.502   2.090  12.249  0.4473  0.0889 -0.6758
15188TIP3    H166979   0.456   2.059  12.327 -0.5490  0.6111 -1.0292
15188TIP3    H266980   0.566   2.153  12.281  0.4895 -0.1856 -0.2208
15189TIP3   OH266981   3.850   0.123  12.870 -0.1490  0.1966 -0.4000
15189TIP3    H166982   3.938   0.099  12.842  0.1539 -1.4387  1.7642
15189TIP3    H266983   3.796   0.113  12.791  1.2226 -0.9170 -1.2332
15190TIP3   OH266984   2.113   6.041  15.413 -0.7979  0.1205 -0.0495
15190TIP3    H166985   2.048   5.977  15.386 -0.2308 -0.3253 -0.3662
15190TIP3    H266986   2.085   6.123  15.371 -1.9345  0.2699  0.9547
15191TIP3   OH266987   2.633   4.425  12.197  0.6620 -0.3827  0.6781
15191TIP3    H166988   2.627   4.396  12.106  3.8265  1.3624 -0.2564
15191TIP3    H266989   2.563   4.489  12.207  1.0381  0.3500 -1.0006
15192TIP3   OH266990   1.739   2.996  13.764  0.0411  0.7533  0.0461
15192TIP3    H166991   1.782   2.949  13.692 -0.3641  1.0950 -0.4267
15192TIP3    H266992   1.783   2.964  13.843 -0.7197 -0.9942 -0.1787
15193TIP3   OH266993   6.315   3.184  14.122 -0.3841 -0.5401 -0.1860
15193TIP3    H166994   6.278   3.102  14.088  2.7066 -1.8672 -0.7118
15193TIP3    H266995   6.354   3.159  14.206 -0.7605  0.7857  0.3994
15194TIP3   OH266996   3.179   4.233   2.965  0.0826 -0.1028 -0.4357
15194TIP3    H166997   3.087   4.224   2.938 -0.2027  0.7286  0.2091
15194TIP3    H266998   3.213   4.143   2.965 -0.3312 -0.2883 -2.0128
15195TIP3   OH266999   1.750   3.638  13.694  0.3167  0.6558  1.1130
15195TIP3    H167000   1.843   3.646  13.714  0.5832 -0.0387  0.2032
15195TIP3    H267001   1.740   3.679  13.609  0.3496 -1.7126 -0.1263
15196TIP3   OH267002   5.242   0.904  13.204  0.5834 -0.5548  0.2272
15196TIP3    H167003   5.241   0.926  13.297  1.8904  0.6181 -0.0040
15196TIP3    H267004   5.320   0.850  13.193  1.0092  0.1553 -0.3440
15197TIP3   OH267005   3.750   5.375   1.763 -0.5955  0.3627  0.3241
15197TIP3    H167006   3.777   5.459   1.801  1.7398 -0.0719 -0.2010
15197TIP3    H267007   3.780   5.379   1.672 -1.0825 -0.7781  0.0981
15198TIP3   OH267008   5.677   5.159   5.333 -0.1781 -0.1061  0.4940
15198TIP3    H167009   5.773   5.162   5.333 -0.1220 -1.3534  0.2602
15198TIP3    H267010   5.656   5.078   5.379 -1.1149 -0.1469  0.0147
15199TIP3   OH267011   3.466   5.737   0.181  0.3112  0.0244 -0.0793
15199TIP3    H167012   3.472   5.662   0.239  0.6526  1.6162  2.0812
15199TIP3    H267013   3.544   5.789   0.202 -0.4270  1.4605 -0.7604
15200TIP3   OH267014   6.477   6.007   1.347  0.7271  0.4010  0.1463
15200TIP3    H167015   6.550   6.050   1.392  1.4347 -2.3015  1.7876
15200TIP3    H267016   6.456   5.932   1.402 -2.7358  0.5291 -0.7647
15201TIP3   OH267017   3.386   2.836   6.269  0.7064  0.4081  0.7847
15201TIP3    H167018   3.371   2.826   6.363 -2.4841  1.5691  0.4999
15201TIP3    H267019   3.327   2.773   6.228  1.1068  0.8126 -0.4824
15202TIP3   OH267020   4.818   4.643   3.495 -0.1560 -0.2134  0.3475
15202TIP3    H167021   4.836   4.549   3.492 -0.1048 -0.2305  1.2072
15202TIP3    H267022   4.875   4.680   3.428  0.2035 -0.7286  0.3643
15203TIP3   OH267023   3.584   4.876  13.504 -0.4916  0.1955  0.0133
15203TIP3    H167024   3.625   4.846  13.422  2.0630  1.8257  0.5827
15203TIP3    H267025   3.569   4.795  13.553 -0.8431 -0.7131 -1.4958
15204TIP3   OH267026   1.438   6.758   5.292 -0.1199  0.6337 -0.3043
15204TIP3    H167027   1.369   6.716   5.242 -0.3458  0.4690  0.1429
15204TIP3    H267028   1.453   6.841   5.247 -0.6305  0.6860 -0.3802
15205TIP3   OH267029   4.960   0.479   4.132  0.4321 -0.8121  0.0330
15205TIP3    H167030   4.874   0.485   4.091 -0.1895 -1.1160  1.2364
15205TIP3    H267031   4.992   0.569   4.134  0.7613 -0.8688 -1.6457
15206TIP3   OH267032   5.047   2.297  17.118  0.1551 -0.2374  0.2237
15206TIP3    H167033   5.060   2.265  17.207 -0.8034 -0.8343  0.1593
15206TIP3    H267034   4.987   2.371  17.127  2.3233  1.6238  0.3689
15207TIP3   OH267035   4.829   0.781  16.229 -0.6823 -0.1142  0.1838
15207TIP3    H167036   4.805   0.844  16.297  0.5181 -0.2815  0.7937
15207TIP3    H267037   4.749   0.731  16.213 -1.2292  0.5448  0.8072
15208TIP3   OH267038   4.132   2.377   4.055 -0.1573 -0.4688 -0.3596
15208TIP3    H167039   4.133   2.314   3.983 -1.4069  1.4449 -2.1551
15208TIP3    H267040   4.043   2.371   4.090  0.1475 -0.6786  0.3903
15209TIP3   OH267041   1.241   5.911  14.354  0.0543  0.1928  0.4618
15209TIP3    H167042   1.155   5.944  14.377 -1.3037 -2.0514 -1.0047
15209TIP3    H267043   1.234   5.816  14.363  2.0322 -0.1326 -0.7531
15210TIP3   OH267044   4.877   2.686   2.295 -0.1921  0.6272  0.6157
15210TIP3    H167045   4.818   2.664   2.367 -0.6885  1.2772  0.4088
15210TIP3    H267046   4.963   2.653   2.324 -0.6827 -0.5348  0.8146
15211TIP3   OH267047   1.880   0.002  11.375  0.7736 -0.1170  0.0293
15211TIP3    H167048   1.933  -0.028  11.448  0.9338  1.5382  0.6098
15211TIP3    H267049   1.900  -0.059  11.304  2.0359 -0.6095  0.7912
15212TIP3   OH267050   2.832   3.250  11.889 -0.0528 -0.1563 -0.0116
15212TIP3    H167051   2.779   3.171  11.878  0.5971 -0.4165 -1.4572
15212TIP3    H267052   2.789   3.315  11.833 -0.2137  0.3368  0.6739
15213TIP3   OH267053   5.354   5.426  15.443  0.4778 -0.3259  0.2921
15213TIP3    H167054   5.364   5.488  15.516  0.1046  4.1010 -2.9914
15213TIP3    H267055   5.428   5.446  15.385 -1.7165 -0.1990 -2.6745
15214TIP3   OH267056   6.667   6.684  12.315 -0.1322 -0.1840 -0.4521
15214TIP3    H167057   6.743   6.742  12.311 -1.1083  1.1229 -0.3989
15214TIP3    H267058   6.682   6.631  12.393  0.5627  0.2820 -0.2608
15215TIP3   OH267059   4.505   6.017  13.969  0.2167  0.4956 -0.4824
15215TIP3    H167060   4.418   6.056  13.964 -0.1478 -0.1889  0.2140
15215TIP3    H267061   4.491   5.935  14.016  1.4445  0.9896  0.8025
15216TIP3   OH267062   3.815   5.629   4.988  0.5977 -0.3342  0.2098
15216TIP3    H167063   3.764   5.563   4.942  0.2746 -0.0605  0.1712
15216TIP3    H267064   3.754   5.702   5.000  0.2070 -0.9310  2.3331
15217TIP3   OH267065   1.417   5.469   2.982  0.2777 -0.3680 -0.0375
15217TIP3    H167066   1.420   5.407   3.055 -0.6330  2.3906  2.5434
15217TIP3    H267067   1.364   5.541   3.014 -0.1661  1.0328 -3.5000
15218TIP3   OH267068   0.185   3.921   3.263 -0.2229 -0.1739  0.1966
15218TIP3    H167069   0.150   3.856   3.203 -0.1747 -0.4630  0.4760
15218TIP3    H267070   0.158   3.891   3.350 -1.2197  0.8202  0.2509
15219TIP3   OH267071   3.033   4.889   5.472 -0.0161  0.3835 -0.5725
15219TIP3    H167072   2.969   4.900   5.542 -0.4233 -0.8028 -0.7415
15219TIP3    H267073   3.001   4.945   5.401  0.0561  1.0929 -0.0538
15220TIP3   OH267074   4.147   5.912  14.729  0.4363  0.1006  0.5262
15220TIP3    H167075   4.088   5.984  14.708 -0.9066 -1.8327 -3.3650
15220TIP3    H267076   4.225   5.928  14.676  0.6764 -0.6235  0.6511
15221TIP3   OH267077   2.205   0.932  10.859  0.1482 -0.4175  0.2907
15221TIP3    H167078   2.222   0.905  10.769  0.4134  1.0694 -0.1297
15221TIP3    H267079   2.205   0.850  10.909  0.6407 -1.2013 -0.9493
15222TIP3   OH267080   1.121   2.442  15.862  0.2831  0.2743 -0.4884
15222TIP3    H167081   1.064   2.519  15.861 -0.4435 -0.2293  0.6224
15222TIP3    H267082   1.183   2.461  15.933 -0.7931 -0.7641  0.7814
15223TIP3   OH267083   3.860   5.300   4.095 -0.4429  0.4882  0.2531
15223TIP3    H167084   3.832   5.278   4.184 -0.3931 -0.4706  0.0416
15223TIP3    H267085   3.822   5.232   4.040  2.6089 -1.1874 -0.0074
15224TIP3   OH267086   3.372   6.094  14.523 -0.2534  0.0024  0.0177
15224TIP3    H167087   3.418   6.142  14.454 -1.2706  0.4206 -0.3889
15224TIP3    H267088   3.440   6.042  14.565  0.9315  1.8659  0.5501
15225TIP3   OH267089   0.740   5.171   1.657 -0.1503  0.2852  0.2808
15225TIP3    H167090   0.670   5.224   1.618  0.3079 -0.0113 -0.9801
15225TIP3    H267091   0.821   5.206   1.619  0.3444  0.2082  1.2410
15226TIP3   OH267092   1.343   6.366  13.801  0.0045  0.0497 -0.7977
15226TIP3    H167093   1.375   6.409  13.722 -1.1559 -0.5319 -1.6089
15226TIP3    H267094   1.390   6.282  13.804  0.1316  0.1204 -0.8008
15227TIP3   OH267095   2.636   0.640   2.953  1.0832 -0.1909  0.4080
15227TIP3    H167096   2.715   0.625   2.900  0.1485 -0.7707 -0.8923
15227TIP3    H267097   2.656   0.601   3.038  2.1903 -0.3334  0.0975
15228TIP3   OH267098   4.265   5.402  17.105 -0.3528  0.0172  0.8618
15228TIP3    H167099   4.276   5.453  17.186 -1.8077 -0.2335  1.2516
15228TIP3    H267100   4.190   5.345  17.123 -0.3809 -0.4024 -0.4941
15229TIP3   OH267101   0.494   0.449   1.668  0.5296 -0.0237  0.1367
15229TIP3    H167102   0.448   0.511   1.612  1.3667 -0.9936 -1.7144
15229TIP3    H267103   0.427   0.416   1.729 -0.2669  1.4917  0.1147
15230TIP3   OH267104   0.634   1.101   2.133 -0.4277  0.1631 -0.2451
15230TIP3    H167105   0.717   1.054   2.137 -0.4790  0.0433 -0.5653
15230TIP3    H267106   0.642   1.159   2.058 -0.4162  0.5738  0.0741
15231TIP3   OH267107   3.034   0.049   4.625  0.0430  0.8568  0.2276
15231TIP3    H167108   3.071   0.100   4.553  1.0876  0.5969  0.5575
15231TIP3    H267109   2.966   0.105   4.662 -0.6604  0.9082 -1.0891
15232TIP3   OH267110   0.732   4.424   0.167 -0.2549 -0.1598  0.2995
15232TIP3    H167111   0.739   4.468   0.083 -1.6189 -1.3255 -0.4725
15232TIP3    H267112   0.802   4.359   0.166  1.5872  1.6892  1.3299
15233TIP3   OH267113   0.913   4.210  15.444  0.5968 -0.2899  0.0282
15233TIP3    H167114   0.874   4.128  15.476 -0.1567 -0.1332 -0.4454
15233TIP3    H267115   1.007   4.194  15.446  0.5629 -0.5358  1.6353
15234TIP3   OH267116   2.876   4.630   4.022  0.1619  0.0415 -0.0607
15234TIP3    H167117   2.848   4.591   3.939 -1.0090 -1.1086  0.8362
15234TIP3    H267118   2.940   4.569   4.057  1.0738  0.8041 -0.3492
15235TIP3   OH267119   5.723   3.182  15.675  0.1169 -0.3785  0.6960
15235TIP3    H167120   5.810   3.148  15.652  0.3422  0.9072 -0.5133
15235TIP3    H267121   5.696   3.232  15.598 -1.4389 -0.2435  1.2983
15236TIP3   OH267122   4.912   4.649  12.854 -0.0467 -0.3926  0.1499
15236TIP3    H167123   4.879   4.592  12.923 -1.4225  0.3666  0.1636
15236TIP3    H267124   4.848   4.640  12.783  0.9879 -0.6565 -0.7821
15237TIP3   OH267125   3.619   5.765  11.735  0.4542 -0.0894  0.3837
15237TIP3    H167126   3.547   5.705  11.755 -0.5593  0.9724  0.0710
15237TIP3    H267127   3.674   5.763  11.813  1.2689 -2.4988 -0.1664
15238TIP3   OH267128   4.926   5.855  10.760  0.2820 -0.0385 -0.3967
15238TIP3    H167129   4.959   5.926  10.705  1.6134  0.9066  1.5108
15238TIP3    H267130   4.988   5.784  10.748  0.7997  0.3103  0.1505
15239TIP3   OH267131   2.665   0.453   2.517 -0.4367 -0.3585 -0.3178
15239TIP3    H167132   2.654   0.377   2.460  0.3961 -0.3043 -0.5559
15239TIP3    H267133   2.600   0.516   2.485  0.0719 -0.2966 -1.2791
15240TIP3   OH267134   4.656   3.947  12.025 -0.1939 -0.3656  0.2578
15240TIP3    H167135   4.673   3.894  11.947 -1.4442 -0.1297 -0.2016
15240TIP3    H267136   4.569   3.920  12.054 -1.2723  1.9935 -0.5043
15241TIP3   OH267137   4.289   3.223   2.345 -0.7403 -0.3999  0.2250
15241TIP3    H167138   4.337   3.304   2.326 -0.0657 -0.6715  0.7194
15241TIP3    H267139   4.221   3.250   2.408 -0.8629 -0.1198 -0.0253
15242TIP3   OH267140   6.486   6.638   5.521 -0.3956 -0.0858  0.2236
15242TIP3    H167141   6.472   6.612   5.612  1.2324 -1.0196  0.2361
15242TIP3    H267142   6.574   6.609   5.500 -0.5031  0.6608 -1.4836
15243TIP3   OH267143   6.660   4.965  12.254 -0.3521 -0.4930  0.7199
15243TIP3    H167144   6.664   4.870  12.265 -0.8931 -0.5568  0.3812
15243TIP3    H267145   6.640   4.999  12.341 -3.1647 -0.8990  0.3152
15244TIP3   OH267146   0.037   0.276   4.403 -0.1120  0.1997 -0.1129
15244TIP3    H167147   0.104   0.343   4.389 -0.8817  0.6419 -1.9908
15244TIP3    H267148   0.014   0.246   4.315 -0.1494 -2.2178  0.6355
15245TIP3   OH267149   4.689   2.153   3.161  0.3426 -0.1157  0.2739
15245TIP3    H167150   4.721   2.127   3.074 -0.8865 -0.2220 -0.1615
15245TIP3    H267151   4.745   2.227   3.185  1.3881 -0.7543 -0.1309
15246TIP3   OH267152   5.838   4.925   1.661 -0.3829  0.0032  0.2674
15246TIP3    H167153   5.902   4.867   1.621  0.3837  1.3929 -0.5830
15246TIP3    H267154   5.762   4.869   1.678  0.3201 -1.2303 -0.5367
15247TIP3   OH267155   3.779   4.517   4.070 -0.0555  0.7659  0.2748
15247TIP3    H167156   3.855   4.502   4.015 -0.0787  1.6358 -0.0139
15247TIP3    H267157   3.704   4.501   4.013 -0.0804  1.9921 -0.0648
15248TIP3   OH267158   6.469   0.961  13.457  0.5526  0.2581  0.0723
15248TIP3    H167159   6.501   0.943  13.369 -1.5264  1.7784 -1.1081
15248TIP3    H267160   6.473   1.057  13.464  1.2029  0.1312  1.8814
15249TIP3   OH267161   2.771   0.972  15.667  0.3832 -0.3358  0.3814
15249TIP3    H167162   2.680   0.967  15.699  0.4623 -1.5933  0.4816
15249TIP3    H267163   2.780   1.061  15.635 -0.8978 -0.1808  0.3693
15250TIP3   OH267164   5.739   6.556   0.950 -0.4640  0.8357 -0.0447
15250TIP3    H167165   5.738   6.462   0.931 -1.0609  0.8829 -0.2797
15250TIP3    H267166   5.790   6.564   1.030  0.8026  0.4597 -0.7778
15251TIP3   OH267167   2.078   0.372  14.782  0.0848 -0.1182 -0.3047
15251TIP3    H167168   2.126   0.303  14.736  0.3472 -0.1908  0.0699
15251TIP3    H267169   1.986   0.348  14.772  0.1596 -0.3548 -0.4443
15252TIP3   OH267170   1.163   0.278   3.624  0.1298  0.8564 -0.5377
15252TIP3    H167171   1.080   0.320   3.599  0.6970  1.6657 -1.1154
15252TIP3    H267172   1.184   0.316   3.710 -0.4154  0.1603 -0.0853
15253TIP3   OH267173   5.116   2.693  15.666 -0.7232  0.0446  0.2664
15253TIP3    H167174   5.094   2.748  15.741 -0.4975 -0.4775  0.7267
15253TIP3    H267175   5.174   2.626  15.702  0.2437  0.3910 -0.5799
15254TIP3   OH267176   0.248   5.541   3.824 -0.2425  0.2464  0.2757
15254TIP3    H167177   0.263   5.558   3.731 -0.9003 -1.4343 -0.1686
15254TIP3    H267178   0.228   5.627   3.862  1.1331  1.1191 -0.8987
15255TIP3   OH267179   2.437   6.198   1.592  0.2879 -0.0971  0.2621
15255TIP3    H167180   2.439   6.154   1.677  2.2879  0.7789  0.7179
15255TIP3    H267181   2.391   6.137   1.534 -1.0799 -0.7353  1.9318
15256TIP3   OH267182   2.984   4.029  12.864 -0.1376  0.2266  0.2236
15256TIP3    H167183   3.051   4.097  12.855  0.4674 -0.4692 -0.6521
15256TIP3    H267184   2.939   4.050  12.946 -0.4424  2.0983 -0.3895
15257TIP3   OH267185   2.007   2.113  13.638  0.1736  0.3275  0.5551
15257TIP3    H167186   2.017   2.061  13.718  0.0940  1.8628  1.6019
15257TIP3    H267187   1.934   2.172  13.657 -0.5027  0.0509 -1.0465
15258TIP3   OH267188   5.697   2.358   0.367 -0.7868  0.5683  0.5568
15258TIP3    H167189   5.785   2.333   0.394 -0.6631 -0.5570 -0.7318
15258TIP3    H267190   5.703   2.452   0.347  0.0835  0.5351  0.6380
15259TIP3   OH267191   4.536   1.052  16.090  0.0329 -0.2429 -0.3204
15259TIP3    H167192   4.549   1.095  16.175 -2.0964  3.2964 -1.5676
15259TIP3    H267193   4.441   1.041  16.084  0.2543 -1.7719 -1.7092
15260TIP3   OH267194   3.162   3.980   2.697 -0.4193 -0.3734 -0.3925
15260TIP3    H167195   3.113   3.918   2.750 -0.3648  1.2112  1.6583
15260TIP3    H267196   3.097   4.020   2.640 -1.1108  0.0044  0.6274
15261TIP3   OH267197   0.202   2.158  14.202  0.1385 -0.6905  0.2038
15261TIP3    H167198   0.230   2.069  14.221 -1.2974 -1.0538  0.7410
15261TIP3    H267199   0.133   2.176  14.267 -0.1742  0.4941 -0.4273
15262TIP3   OH267200   5.921   3.844  13.123  0.2327 -0.2370 -0.6662
15262TIP3    H167201   5.916   3.934  13.155  0.5873 -0.7008  0.7542
15262TIP3    H267202   5.840   3.831  13.074  0.8106  1.3005 -2.1640
15263TIP3   OH267203   6.095   4.784   1.006 -0.1312 -0.2802 -0.2122
15263TIP3    H167204   6.030   4.854   0.998  0.3494  0.1241 -0.5889
15263TIP3    H267205   6.046   4.704   0.988 -0.6248 -0.0163 -0.0545
15264TIP3   OH267206   4.672   0.728   1.348 -0.2259  0.5654  0.1934
15264TIP3    H167207   4.685   0.662   1.416 -1.9629 -0.6103 -0.5399
15264TIP3    H267208   4.745   0.789   1.359  1.6597 -1.6598  0.6797
15265TIP3   OH267209   5.798   5.947   5.214 -0.2436 -0.3943 -0.1526
15265TIP3    H167210   5.882   5.918   5.179  0.1792  0.4957  0.0937
15265TIP3    H267211   5.734   5.887   5.176  0.7091 -2.5663  1.4057
15266TIP3   OH267212   6.373   3.370  12.529 -0.2469 -0.8800 -0.4231
15266TIP3    H167213   6.413   3.298  12.479 -0.1497  0.7225 -2.8299
15266TIP3    H267214   6.447   3.428  12.550 -0.4122 -1.1420  0.9872
15267TIP3   OH267215   5.996   5.963   6.550 -0.7441 -0.4330 -0.2570
15267TIP3    H167216   6.072   6.020   6.534 -0.6383 -0.5217 -0.0704
15267TIP3    H267217   5.962   5.991   6.635 -1.9643  0.7747 -1.1044
15268TIP3   OH267218   0.237   1.204   4.707 -0.0662 -0.0684  0.1822
15268TIP3    H167219   0.149   1.171   4.690 -0.3434  0.1551  1.1037
15268TIP3    H267220   0.291   1.126   4.716 -0.0523 -0.1978 -0.9309
15269TIP3   OH267221   1.053   5.486   2.923 -0.2164 -0.2079 -1.2695
15269TIP3    H167222   1.068   5.392   2.923 -0.1573 -0.2881  1.3493
15269TIP3    H267223   1.109   5.520   2.993 -1.6025  1.4808 -0.8768
15270TIP3   OH267224   2.001   2.763   4.057 -0.2116 -0.2989 -0.6226
15270TIP3    H167225   1.982   2.796   3.969  0.5421  0.5206 -0.4943
15270TIP3    H267226   2.013   2.842   4.110  0.8088 -0.7677 -0.1216
15271TIP3   OH267227   2.062   5.126   1.682  0.2857  0.5965 -0.2150
15271TIP3    H167228   2.079   5.122   1.588 -0.5642  2.6401 -0.5127
15271TIP3    H267229   1.994   5.061   1.697 -0.9723  1.5703 -1.4099
15272TIP3   OH267230   0.887   1.753   4.190 -0.0644  0.0949  0.4522
15272TIP3    H167231   0.803   1.776   4.150 -0.8149 -2.8403  0.1281
15272TIP3    H267232   0.920   1.681   4.137  2.4194  0.7739  0.9468
15273TIP3   OH267233   5.164   5.451   0.438  0.2830 -0.0845  0.0252
15273TIP3    H167234   5.142   5.371   0.391  1.7838 -0.1864 -0.5428
15273TIP3    H267235   5.232   5.426   0.500  0.2524  0.6097  0.3538
15274TIP3   OH267236   2.410   1.427   3.522 -0.2702  0.7904  0.3878
15274TIP3    H167237   2.404   1.417   3.427 -0.3508  0.6943  0.4024
15274TIP3    H267238   2.496   1.390   3.544  0.5442  2.4646  0.1382
15275TIP3   OH267239   3.817   5.911  11.117 -0.7532 -0.3504  0.0358
15275TIP3    H167240   3.767   5.847  11.168  0.2418 -1.3040 -0.1331
15275TIP3    H267241   3.830   5.868  11.032  0.2035 -0.0663  0.0282
15276TIP3   OH267242   4.969   5.217   0.775 -0.1744  0.2877  0.1466
15276TIP3    H167243   5.043   5.242   0.720  0.7713  1.7412  1.9373
15276TIP3    H267244   4.997   5.136   0.817  0.6098  1.0357  1.1102
15277TIP3   OH267245   0.456   3.787  17.174  0.4219 -0.4248  0.1954
15277TIP3    H167246   0.480   3.704  17.131  1.6975 -0.9070  1.7392
15277TIP3    H267247   0.409   3.760  17.253  1.0739  0.3187  0.8469
15278TIP3   OH267248   6.141   2.978   2.035  0.5555 -0.1189 -0.1589
15278TIP3    H167249   6.169   3.017   2.118 -0.9208  1.2751 -0.2651
15278TIP3    H267250   6.080   2.909   2.061  1.0215 -0.5088 -0.0706
15279TIP3   OH267251   3.547   2.038   3.427 -0.5966 -0.2310 -0.7279
15279TIP3    H167252   3.593   2.031   3.510 -1.3500  0.3562 -0.2530
15279TIP3    H267253   3.537   1.947   3.398 -0.2768 -0.4346 -0.2132
15280TIP3   OH267254   3.075   3.332  13.534  0.8701 -0.1855 -0.2279
15280TIP3    H167255   3.143   3.327  13.467  1.7524 -1.5578  0.7051
15280TIP3    H267256   3.011   3.266  13.509 -0.0158  0.9220 -0.9607
15281TIP3   OH267257   5.130   6.212   5.550  0.2115 -0.4373  0.2818
15281TIP3    H167258   5.151   6.270   5.623  0.3204  0.0801 -0.1561
15281TIP3    H267259   5.175   6.251   5.475  0.6954 -1.3530  0.0736
15282TIP3   OH267260   5.746   3.027  10.408  0.2409 -0.1577 -0.5529
15282TIP3    H167261   5.725   2.950  10.354 -1.5722 -0.0965 -0.0198
15282TIP3    H267262   5.724   3.001  10.497 -2.2250  1.4821 -0.5626
15283TIP3   OH267263   2.008   6.457   2.085  0.1162 -0.2863  0.0286
15283TIP3    H167264   2.089   6.446   2.134  0.5252  1.4337 -0.2159
15283TIP3    H267265   1.939   6.432   2.147  0.7869 -1.1588  0.4393
15284TIP3   OH267266   1.025   4.333  13.823  0.0402  0.3885 -0.2431
15284TIP3    H167267   0.931   4.332  13.807 -0.3555  1.6554  1.6928
15284TIP3    H267268   1.061   4.273  13.757 -2.1403 -0.5013 -0.7156
15285TIP3   OH267269   1.903   2.653   0.174  0.0010  0.0013  0.1713
15285TIP3    H167270   1.896   2.666   0.269 -0.7110  0.2725  0.0875
15285TIP3    H267271   1.997   2.651   0.157  0.1417  1.1004  0.7339
15286TIP3   OH267272   1.345   2.625  15.541  0.1340 -0.2500 -0.1891
15286TIP3    H167273   1.354   2.630  15.446 -1.6454 -0.3865 -0.3951
15286TIP3    H267274   1.267   2.572  15.556 -0.0282  0.3466  1.3392
15287TIP3   OH267275   3.033   6.605  17.033 -0.2133 -0.0677  0.2548
15287TIP3    H167276   3.059   6.517  17.006  1.9176  0.9101 -1.1784
15287TIP3    H267277   3.032   6.656  16.952 -0.6325  1.4145  1.1460
15288TIP3   OH267278   5.002   3.188  15.361  0.4740  0.0080  0.4218
15288TIP3    H167279   5.007   3.283  15.375  0.2285  0.5558 -2.5475
15288TIP3    H267280   4.928   3.177  15.302  1.5174 -1.8648 -0.5998
15289TIP3   OH267281   3.428   6.319   4.581 -0.2623 -0.1167 -0.4020
15289TIP3    H167282   3.496   6.367   4.534 -0.0341  0.0487  0.0905
15289TIP3    H267283   3.472   6.240   4.613 -0.7476 -0.8944 -1.5951
15290TIP3   OH267284   3.289   5.649  12.449  0.4755  0.0916 -0.1498
15290TIP3    H167285   3.307   5.738  12.417  1.7831 -0.0120  0.2170
15290TIP3    H267286   3.365   5.598  12.419 -0.3031 -0.9297 -0.4286
15291TIP3   OH267287   3.933   1.897   1.242 -0.2032  0.4187 -0.0525
15291TIP3    H167288   3.974   1.894   1.328  0.6122 -0.0509 -0.4428
15291TIP3    H267289   3.888   1.813   1.234  3.1151 -1.4013 -1.6587
15292TIP3   OH267290   5.533   3.940   4.957  0.5428  0.0733 -0.4807
15292TIP3    H167291   5.475   4.009   4.990 -0.6492 -0.9625 -0.3340
15292TIP3    H267292   5.505   3.861   5.002  2.8326 -0.2895  0.4397
15293TIP3   OH267293   3.421   6.742   2.686  0.0644  0.1593 -0.1865
15293TIP3    H167294   3.418   6.814   2.748  1.7015  3.0194 -3.1270
15293TIP3    H267295   3.497   6.690   2.712  0.4694  1.0480  0.4291
15294TIP3   OH267296   3.016   1.249  14.305 -0.5203 -0.2248  0.3229
15294TIP3    H167297   2.959   1.174  14.317 -1.2332  0.3181  0.3923
15294TIP3    H267298   2.958   1.325  14.311  0.1289  0.3191 -0.0866
15295TIP3   OH267299   0.788   1.343   5.458 -0.0359  0.3819  0.0548
15295TIP3    H167300   0.862   1.389   5.498 -1.0543  0.8143  1.5115
15295TIP3    H267301   0.755   1.285   5.527 -1.3724  0.5675 -0.4025
15296TIP3   OH267302   2.286   3.198   4.801 -0.1682  0.3668 -0.2482
15296TIP3    H167303   2.268   3.132   4.869  3.1776  0.3634  0.8534
15296TIP3    H267304   2.235   3.274   4.828 -0.1089 -0.1380  1.4540
15297TIP3   OH267305   0.176   6.143   5.185  0.5695 -0.2282 -0.7026
15297TIP3    H167306   0.208   6.204   5.119 -0.2904 -0.8564 -1.7226
15297TIP3    H267307   0.123   6.080   5.136 -1.3655  0.1761  0.7729
15298TIP3   OH267308   6.745   4.117   3.022  0.0800 -0.1541  0.0065
15298TIP3    H167309   6.814   4.057   2.994  0.7192 -0.0225  1.2109
15298TIP3    H267310   6.692   4.131   2.944  0.2842 -1.7847 -0.4555
15299TIP3   OH267311   3.161   5.166   5.078  0.3801 -0.4413 -0.3379
15299TIP3    H167312   3.244   5.142   5.119 -0.4171 -0.4685  1.3647
15299TIP3    H267313   3.096   5.113   5.124 -0.8670  1.3851  0.1231
15300TIP3   OH267314   3.466   2.305  14.738 -0.1623  0.0865 -0.7428
15300TIP3    H167315   3.379   2.264  14.733  0.0887 -0.3826 -1.4326
15300TIP3    H267316   3.498   2.282  14.825 -0.2786 -0.6791 -0.8933
15301TIP3   OH267317   5.995   2.294  10.744  0.1137  0.0637  0.4471
15301TIP3    H167318   6.025   2.236  10.815  1.2888  1.2650  1.0012
15301TIP3    H267319   5.931   2.351  10.786  1.3109  1.2303  0.7891
15302TIP3   OH267320   6.209   0.495  11.973 -0.0787  0.2000 -0.1964
15302TIP3    H167321   6.244   0.534  11.893 -0.6877 -2.9902 -2.2181
15302TIP3    H267322   6.280   0.504  12.037  0.5543  2.5756 -1.1376
15303TIP3   OH267323   6.452   6.242   5.656 -0.0767  0.8565 -0.1431
15303TIP3    H167324   6.479   6.331   5.678  2.3582  0.2200 -0.2415
15303TIP3    H267325   6.459   6.237   5.561 -1.5200  0.9257 -0.2661
15304TIP3   OH267326   6.401   4.649   1.163  0.0555  0.0176  0.5368
15304TIP3    H167327   6.469   4.698   1.115  0.1873  1.0012  1.6875
15304TIP3    H267328   6.439   4.562   1.175 -0.9172 -1.1114 -3.1783
15305TIP3   OH267329   6.062   1.972   0.987 -0.6786  0.2768  0.0595
15305TIP3    H167330   6.023   2.058   1.003 -0.4506  0.3008  0.5094
15305TIP3    H267331   5.997   1.909   1.019 -0.0746  0.3313  1.4850
15306TIP3   OH267332   0.157   0.668  11.808 -0.5670 -0.6631  0.1905
15306TIP3    H167333   0.186   0.652  11.898 -1.2061  1.3149  0.8072
15306TIP3    H267334   0.237   0.668  11.756  0.0500  0.2622  1.1185
15307TIP3   OH267335   3.896   0.231  14.656 -0.1339  0.3092  0.4676
15307TIP3    H167336   3.809   0.217  14.617  0.3483 -1.1278 -0.1650
15307TIP3    H267337   3.929   0.142  14.672  2.2558  0.6997 -1.6809
15308TIP3   OH267338   1.087   6.057   4.550  0.5786  0.3399  0.4949
15308TIP3    H167339   1.063   5.982   4.495 -2.0493  1.1971  0.3004
15308TIP3    H267340   1.084   6.024   4.639 -0.0438  0.0562  0.3778
15309TIP3   OH267341   3.880   1.624  13.491  0.1897 -0.3559  0.1409
15309TIP3    H167342   3.897   1.531  13.501  1.4275 -0.3203 -1.2480
15309TIP3    H267343   3.846   1.634  13.402  0.1422  0.5133  0.2424
15310TIP3   OH267344   2.069   6.010  15.758 -0.3833 -0.6018  0.1860
15310TIP3    H167345   2.018   6.007  15.840  0.4266  0.4110  0.7416
15310TIP3    H267346   2.007   6.042  15.693 -0.9195 -1.0024  0.4855
15311TIP3   OH267347   5.439   3.978  16.787 -0.5035  0.3332 -0.4389
15311TIP3    H167348   5.352   3.956  16.820 -0.0610 -1.5417 -0.4114
15311TIP3    H267349   5.481   3.893  16.772  1.4960  1.1938  0.0149
15312TIP3   OH267350   4.964   5.481  16.329 -0.5881 -0.4457 -0.0223
15312TIP3    H167351   4.988   5.531  16.406  0.9080 -0.9501 -0.1235
15312TIP3    H267352   4.933   5.397  16.364  0.9266 -1.0168  0.0601
15313TIP3   OH267353   0.341   6.602   4.510 -0.7372  0.2006  0.2264
15313TIP3    H167354   0.344   6.653   4.429  0.3457 -1.4386 -0.8298
15313TIP3    H267355   0.323   6.666   4.579 -3.2949  1.4522 -1.4473
15314TIP3   OH267356   4.705   5.771   4.449 -0.2057 -0.1049  0.5244
15314TIP3    H167357   4.801   5.771   4.444 -0.2759  0.1107 -1.0683
15314TIP3    H267358   4.680   5.861   4.433 -0.6236  0.4089  3.4456
15315TIP3   OH267359   1.493   3.527  15.625 -1.1715 -0.0873  0.1167
15315TIP3    H167360   1.518   3.493  15.540 -1.4590  0.9331 -0.3990
15315TIP3    H267361   1.442   3.457  15.666  1.7765 -1.9251  0.9010
15316TIP3   OH267362   5.153   5.265  14.967 -0.0988  0.1558 -0.0510
15316TIP3    H167363   5.191   5.306  15.045  0.3598 -0.1572 -0.1072
15316TIP3    H267364   5.169   5.171  14.979 -1.6024 -0.0721  0.3271
15317TIP3   OH267365   0.711   2.779   0.393 -0.2649 -0.6429 -0.1885
15317TIP3    H167366   0.780   2.713   0.401 -0.3111 -0.9553 -2.0421
15317TIP3    H267367   0.757   2.858   0.363 -0.1364  0.3893  2.4163
15318TIP3   OH267368   4.981   1.888   5.468 -0.0383  0.6047  0.1614
15318TIP3    H167369   4.978   1.871   5.562  0.6186 -1.1826 -0.0899
15318TIP3    H267370   4.896   1.926   5.448 -1.6282 -2.2161  0.9617
15319TIP3   OH267371   5.036   3.717  14.867  0.1246 -0.3379  0.3642
15319TIP3    H167372   5.088   3.675  14.936 -0.0509 -1.4819 -0.1777
15319TIP3    H267373   4.959   3.752  14.913  0.0931 -0.9386  0.7800
15320TIP3   OH267374   3.446   2.953  13.713 -0.2613 -0.2635  0.5207
15320TIP3    H167375   3.499   3.030  13.734 -0.2898  0.0651 -0.5277
15320TIP3    H267376   3.396   2.980  13.636 -2.8930 -0.1356  2.1390
15321TIP3   OH267377   4.632   0.021   0.324 -0.1375  0.1983 -0.1249
15321TIP3    H167378   4.623  -0.073   0.336  1.3940  0.0358 -0.1131
15321TIP3    H267379   4.543   0.051   0.303 -1.0395 -0.9402  1.7829
15322TIP3   OH267380   1.888   0.213  16.365  0.3337 -0.1740  0.0829
15322TIP3    H167381   1.809   0.267  16.372  1.3236  1.3933 -0.1689
15322TIP3    H267382   1.890   0.185  16.273 -0.0413 -0.3985  0.1445
15323TIP3   OH267383   5.132   3.819   4.338  0.3998  0.0237 -0.0069
15323TIP3    H167384   5.083   3.800   4.258 -1.2736 -2.4582  1.4515
15323TIP3    H267385   5.086   3.893   4.378 -1.1652 -1.1412  0.4522
15324TIP3   OH267386   4.053   0.432  15.240  0.0297  0.3491 -0.0968
15324TIP3    H167387   4.024   0.342  15.225 -0.1766  0.2749  0.7162
15324TIP3    H267388   4.140   0.422  15.280 -0.6330  0.4494  1.4412
15325TIP3   OH267389   5.698   4.202  11.436  0.3150 -0.8738  0.3576
15325TIP3    H167390   5.627   4.142  11.458 -0.6759  0.1516  0.0330
15325TIP3    H267391   5.751   4.205  11.516 -1.3117  0.1159  1.4789
15326TIP3   OH267392   1.688   1.355   3.894  0.3332  0.3662  0.4714
15326TIP3    H167393   1.705   1.341   3.801  1.2554  2.3300  0.3053
15326TIP3    H267394   1.776   1.359   3.934 -0.0178  0.7575  1.2291
15327TIP3   OH267395   5.750   1.873  15.022  0.1781  0.6189 -0.0734
15327TIP3    H167396   5.688   1.819  14.974  1.9322  0.9918 -2.9745
15327TIP3    H267397   5.718   1.963  15.009  0.9594  0.7659 -1.1042
15328TIP3   OH267398   1.979   3.479   3.947 -0.2613  0.0777 -0.0338
15328TIP3    H167399   1.899   3.453   3.902 -1.2523 -0.6719  2.0250
15328TIP3    H267400   1.951   3.546   4.010  0.9692  0.7089 -0.1071
15329TIP3   OH267401   5.795   1.275   3.041 -0.4158  0.4586  0.1503
15329TIP3    H167402   5.834   1.351   3.084 -3.2967  2.1440  0.0095
15329TIP3    H267403   5.745   1.312   2.968 -2.3264 -1.5272  0.3754
15330TIP3   OH267404   2.856   0.247  13.173  0.2656 -0.6457  0.3082
15330TIP3    H167405   2.805   0.168  13.155 -0.6858  0.1438 -0.6567
15330TIP3    H267406   2.849   0.298  13.092 -1.2332  1.5281  1.6961
15331TIP3   OH267407   6.616   3.768   3.236 -0.7438  0.4729  0.6209
15331TIP3    H167408   6.624   3.863   3.243  1.1471  0.2459  3.5839
15331TIP3    H267409   6.591   3.752   3.145 -0.6401  3.7431 -0.1021
15332TIP3   OH267410   2.003   1.736  14.833  0.0569 -0.1211  0.0205
15332TIP3    H167411   2.061   1.680  14.884 -1.9678 -1.7398  0.6776
15332TIP3    H267412   1.966   1.679  14.766 -3.4529 -0.2171  1.8225
15333TIP3   OH267413   6.647   0.537   1.823  0.3826 -0.0286  0.0286
15333TIP3    H167414   6.722   0.594   1.809 -0.9864  1.6365 -0.9661
15333TIP3    H267415   6.615   0.560   1.910 -0.3042  0.9261 -0.4636
15334TIP3   OH267416   3.451   0.559   2.386  0.0399 -0.1958 -0.2022
15334TIP3    H167417   3.463   0.489   2.322 -0.7792  0.0525 -0.6329
15334TIP3    H267418   3.386   0.525   2.447  1.4479 -0.7785  1.0292
15335TIP3   OH267419   1.590   4.286  15.666 -0.0998  0.0275 -0.7586
15335TIP3    H167420   1.678   4.289  15.628  0.5205  0.1404  0.5998
15335TIP3    H267421   1.542   4.357  15.623  1.5348  2.2744  0.8338
15336TIP3   OH267422   5.224   4.597   0.307  0.3065  0.4707 -0.1914
15336TIP3    H167423   5.216   4.502   0.302 -2.2721  0.5980  0.5140
15336TIP3    H267424   5.308   4.611   0.351  0.7319 -1.4500 -0.2984
15337TIP3   OH267425   5.538   4.446  16.983  0.2439  0.6095 -0.0594
15337TIP3    H167426   5.618   4.498  16.983  0.3515  0.4473 -0.3160
15337TIP3    H267427   5.467   4.511  16.989  0.4211  0.6926  1.3064
15338TIP3   OH267428   4.546   6.442  13.227 -0.4457  0.0264  0.3838
15338TIP3    H167429   4.504   6.506  13.284 -0.3052  0.5268 -0.0675
15338TIP3    H267430   4.600   6.494  13.167 -0.2438 -0.5183  0.0823
15339TIP3   OH267431   2.297   1.155   0.768 -0.0688  0.4137 -0.5041
15339TIP3    H167432   2.227   1.094   0.746 -0.8454  1.1179 -0.0239
15339TIP3    H267433   2.356   1.104   0.824 -0.6690  0.0710 -0.1679
15340TIP3   OH267434   2.564   0.024  15.409 -0.3002 -0.4251 -0.4250
15340TIP3    H167435   2.562   0.024  15.313  1.2777 -0.4906 -0.4786
15340TIP3    H267436   2.597  -0.063  15.432  0.8686  0.1361  0.1131
15341TIP3   OH267437   3.741   6.111   3.645 -0.3431 -0.9723 -0.3785
15341TIP3    H167438   3.820   6.073   3.684 -0.3165  0.5480  1.1989
15341TIP3    H267439   3.721   6.054   3.572  0.7323 -2.9058  0.7393
15342TIP3   OH267440   3.454   0.571  14.552  0.1652  0.0803 -0.2077
15342TIP3    H167441   3.386   0.611  14.498 -0.2749  1.8363  1.5296
15342TIP3    H267442   3.414   0.565  14.639  1.6952 -0.3085  0.4902
15343TIP3   OH267443   2.477   4.439   4.171 -0.0342 -0.4598 -0.0941
15343TIP3    H167444   2.549   4.377   4.156 -0.9801 -1.7038  0.3469
15343TIP3    H267445   2.424   4.433   4.091 -0.0415 -0.0903 -0.1180
15344TIP3   OH267446   1.452   3.871   3.153 -0.1960  0.2533  0.5902
15344TIP3    H167447   1.397   3.885   3.075 -0.1393 -1.7061  0.1410
15344TIP3    H267448   1.390   3.859   3.224 -0.4452 -2.0370  0.0697
15345TIP3   OH267449   1.602   5.152   3.651  0.0072 -0.2858 -0.3087
15345TIP3    H167450   1.621   5.221   3.587 -1.1080  1.3827  1.0652
15345TIP3    H267451   1.507   5.146   3.653 -0.0693  0.4307  1.8206
15346TIP3   OH267452   4.892   5.948  16.131  0.2619 -0.1136  0.1218
15346TIP3    H167453   4.865   5.857  16.119 -0.7262  0.2684 -0.8428
15346TIP3    H267454   4.898   5.983  16.041  2.7615  0.2159  0.3414
15347TIP3   OH267455   1.870   1.572  16.411  0.6743  0.3946 -0.0652
15347TIP3    H167456   1.852   1.646  16.469  0.7753  0.0199  0.4462
15347TIP3    H267457   1.784   1.534  16.393  0.8974 -1.8649  2.9933
15348TIP3   OH267458   5.611   5.105   4.107  0.0628  0.1817  0.4038
15348TIP3    H167459   5.649   5.099   4.019 -0.9497 -1.2121  0.0408
15348TIP3    H267460   5.518   5.089   4.094 -0.0144 -0.6336  1.8034
15349TIP3   OH267461   2.477   5.280  13.829  0.0785  0.0525  0.6972
15349TIP3    H167462   2.541   5.314  13.766  1.0721 -1.5188  0.8137
15349TIP3    H267463   2.397   5.330  13.811  0.4485 -0.0680 -1.5720
15350TIP3   OH267464   2.639   4.162   4.390  0.7627 -0.0892  0.1485
15350TIP3    H167465   2.581   4.087   4.374 -0.5144  1.2115 -1.5857
15350TIP3    H267466   2.696   4.165   4.314  2.1251 -0.3867  1.1077
15351TIP3   OH267467   2.052   3.455  15.915  0.0851 -0.0002  0.1116
15351TIP3    H167468   1.970   3.470  15.869  2.4297  2.7743 -3.6793
15351TIP3    H267469   2.066   3.535  15.966  1.0994  0.2191 -0.4865
15352TIP3   OH267470   1.171   0.951  13.955 -0.1531  0.7565  0.1253
15352TIP3    H167471   1.231   0.907  14.015 -0.2849 -0.4564 -0.5846
15352TIP3    H267472   1.180   1.044  13.974  1.4923  0.5500  0.4476
15353TIP3   OH267473   6.407   3.686   4.541  0.6339  0.3835 -0.4742
15353TIP3    H167474   6.385   3.743   4.614  0.7277  0.2028 -0.3047
15353TIP3    H267475   6.479   3.632   4.573 -0.6702 -1.1380  0.0205
15354TIP3   OH267476   4.248   5.510   0.813  0.0322  0.4493  0.0303
15354TIP3    H167477   4.266   5.455   0.890 -0.4483  0.4493  0.1492
15354TIP3    H267478   4.316   5.578   0.815  1.8200 -1.1927 -1.1816
15355TIP3   OH267479   2.882   3.040   0.696 -0.3982 -0.1401 -0.3693
15355TIP3    H167480   2.873   3.034   0.791  2.4900 -0.7012 -0.0272
15355TIP3    H267481   2.883   3.134   0.678  0.4170  0.0077  0.3684
15356TIP3   OH267482   4.921   5.020   0.547  0.3297 -0.1840  0.2386
15356TIP3    H167483   4.925   4.925   0.533 -1.2836 -0.1380 -0.7168
15356TIP3    H267484   4.909   5.029   0.642  2.1437 -0.8455  0.5767
15357TIP3   OH267485   2.647   2.597  15.834  0.1210 -0.3880  0.0815
15357TIP3    H167486   2.622   2.505  15.832 -1.5422  0.0366 -0.8238
15357TIP3    H267487   2.640   2.622  15.926  2.1626 -1.5123  0.6086
15358TIP3   OH267488   2.290   5.833   5.368 -0.1825 -0.0951 -0.6309
15358TIP3    H167489   2.318   5.759   5.315  0.9532 -0.5735  0.6056
15358TIP3    H267490   2.317   5.812   5.457  0.1352  1.7678 -0.2330
15359TIP3   OH267491   5.409   5.704   0.814 -0.3795  0.1361 -0.2426
15359TIP3    H167492   5.418   5.717   0.719 -0.1667 -1.0434 -0.4102
15359TIP3    H267493   5.399   5.792   0.850  0.1570  0.6498 -1.2968
15360TIP3   OH267494   3.798   3.290   2.513 -0.6786  0.3644 -0.2168
15360TIP3    H167495   3.893   3.293   2.510 -0.6755  0.3731 -0.1224
15360TIP3    H267496   3.777   3.287   2.607 -0.7200 -1.3921 -0.2490
15361TIP3   OH267497   5.021   2.430   2.817  0.0525 -0.3011  0.4696
15361TIP3    H167498   5.046   2.425   2.724  0.0077  0.7974  0.3846
15361TIP3    H267499   5.101   2.456   2.862 -0.6542  2.3917  0.3070
15362TIP3   OH267500   5.495   0.532  11.600 -0.3887 -0.5213 -0.3679
15362TIP3    H167501   5.529   0.446  11.575  0.3393  0.2964 -2.3689
15362TIP3    H267502   5.568   0.592  11.588 -1.4979  0.7199 -1.2449
15363TIP3   OH267503   1.688   4.855   4.371  0.3217  0.0243 -0.1040
15363TIP3    H167504   1.702   4.916   4.298 -0.1160 -0.2481 -0.4228
15363TIP3    H267505   1.765   4.799   4.371  0.2035 -0.1428 -0.5312
15364TIP3   OH267506   1.644   2.893   4.817 -0.1060 -0.0248  0.0699
15364TIP3    H167507   1.585   2.959   4.854 -0.8556  0.1960 -1.4259
15364TIP3    H267508   1.589   2.816   4.806  0.0904 -0.0699 -0.6037
15365TIP3   OH267509   0.243   4.181   3.367  0.2974 -0.1335 -0.2343
15365TIP3    H167510   0.218   4.095   3.332 -0.5857  0.4833 -1.2017
15365TIP3    H267511   0.329   4.199   3.329  0.4609 -0.5674 -0.0706
15366TIP3   OH267512   4.086   3.272  13.467 -0.4903  0.1985  0.7463
15366TIP3    H167513   4.023   3.207  13.497  0.7004 -1.2547  0.1947
15366TIP3    H267514   4.066   3.283  13.374 -1.7786  1.9606  1.1524
15367TIP3   OH267515   0.303   3.627  13.574  0.5019  0.0066  0.0674
15367TIP3    H167516   0.312   3.547  13.625  2.0183  0.7704  1.0950
15367TIP3    H267517   0.216   3.661  13.597  0.2021 -0.8869  0.2771
15368TIP3   OH267518   1.346   3.471   1.556  0.1328 -0.2653 -0.0148
15368TIP3    H167519   1.331   3.378   1.538 -2.1124  0.5761 -3.5297
15368TIP3    H267520   1.439   3.476   1.579  0.4989 -3.3073 -0.4551
15369TIP3   OH267521   5.475   0.033  12.239 -0.1152  0.3287 -0.7444
15369TIP3    H167522   5.451  -0.057  12.261  1.2394  0.2904  0.8118
15369TIP3    H267523   5.526   0.025  12.158 -1.6573 -0.0475 -1.7074
15370TIP3   OH267524   5.493   1.701   0.144 -0.5711  0.4919 -0.1777
15370TIP3    H167525   5.461   1.627   0.195  0.8359 -0.5240 -0.7188
15370TIP3    H267526   5.413   1.744   0.112 -1.4269 -1.0230 -0.1704
15371TIP3   OH267527   4.491   3.992   5.927  0.5223  0.0606 -0.3934
15371TIP3    H167528   4.457   4.023   5.843  1.5953  1.8603 -0.2313
15371TIP3    H267529   4.417   3.998   5.987  0.6859  2.6334 -0.3416
15372TIP3   OH267530   3.604   6.678  11.953 -0.5516 -0.0623  0.1812
15372TIP3    H167531   3.526   6.644  11.909 -0.4866 -1.0358  0.7806
15372TIP3    H267532   3.573   6.700  12.041 -0.4181  0.7424  0.0330
15373TIP3   OH267533   4.280   0.330  14.250 -0.5831 -0.2050  0.9542
15373TIP3    H167534   4.233   0.412  14.232  1.4602  1.4786  2.6546
15373TIP3    H267535   4.228   0.286  14.317 -0.0543  1.3910  2.4731
15374TIP3   OH267536   4.938   6.387   3.062  0.9275  0.7959 -0.9815
15374TIP3    H167537   4.873   6.437   3.111  0.3865 -0.6262 -0.1537
15374TIP3    H267538   5.022   6.426   3.086  0.5528  1.0579 -0.0256
15375TIP3   OH267539   4.852   3.359   0.829  0.4501 -0.2113  0.1935
15375TIP3    H167540   4.784   3.328   0.889 -0.2266 -0.7048 -0.7978
15375TIP3    H267541   4.934   3.333   0.871 -0.0069 -0.6327  0.8594
15376TIP3   OH267542   0.866   4.359   2.090 -0.5571  0.4951  0.5201
15376TIP3    H167543   0.869   4.315   2.005 -0.6841 -0.6937  1.1086
15376TIP3    H267544   0.870   4.452   2.069  0.5680  0.1972 -0.7284
15377TIP3   OH267545   0.126   2.617   2.846 -0.4920 -0.3703 -0.3012
15377TIP3    H167546   0.033   2.630   2.826 -0.9530 -1.2976  1.0861
15377TIP3    H267547   0.172   2.667   2.779 -2.0063  1.1924 -0.2407
15378TIP3   OH267548   2.265   0.215  13.472 -0.5470 -0.1010 -0.7628
15378TIP3    H167549   2.231   0.128  13.493  1.4452 -0.4258  1.4871
15378TIP3    H267550   2.342   0.198  13.418  0.3029  0.1772  0.3302
15379TIP3   OH267551   6.312   5.190   0.667  0.1986  0.4191 -0.0892
15379TIP3    H167552   6.289   5.199   0.575 -1.3081 -0.2742  0.1792
15379TIP3    H267553   6.253   5.252   0.712 -1.0016 -1.1657  0.6104
15380TIP3   OH267554   3.796   2.118  11.783 -0.3133 -0.0175  0.3244
15380TIP3    H167555   3.836   2.205  11.792 -3.7899  1.7398  0.5115
15380TIP3    H267556   3.744   2.124  11.703 -0.6610 -1.9970  0.3447
15381TIP3   OH267557   0.425   1.743  13.950  0.2226  0.0831  0.8197
15381TIP3    H167558   0.426   1.669  13.889  0.6355 -0.8219  1.8907
15381TIP3    H267559   0.517   1.760  13.969  0.0720 -0.4399  2.0976
15382TIP3   OH267560   5.688   2.408  12.127 -0.3725 -0.1284  0.9928
15382TIP3    H167561   5.598   2.385  12.105  0.2493 -1.1652 -0.7039
15382TIP3    H267562   5.727   2.433  12.043  0.7769  0.8154  1.7899
15383TIP3   OH267563   1.186   2.078   0.304 -0.1479  0.1309 -0.6596
15383TIP3    H167564   1.230   2.090   0.219 -0.2789  0.4752 -0.6832
15383TIP3    H267565   1.114   2.019   0.285  0.6493 -0.9146 -0.4990
15384TIP3   OH267566   1.974   6.696   1.973 -0.2949  0.3965 -0.1716
15384TIP3    H167567   1.978   6.609   2.013 -1.3301 -1.3612 -3.5203
15384TIP3    H267568   1.883   6.725   1.987  0.2261  1.3142  1.5282
15385TIP3   OH267569   0.985   5.021   4.288  0.3017 -0.4699 -0.5080
15385TIP3    H167570   0.935   4.976   4.219  0.6057  1.0998 -1.8153
15385TIP3    H267571   0.953   4.982   4.369 -2.7724  0.1093 -1.3003
15386TIP3   OH267572   0.826   2.773  11.133 -0.2122  0.5072 -0.0189
15386TIP3    H167573   0.738   2.746  11.157  0.2144 -1.0694 -0.1190
15386TIP3    H267574   0.877   2.764  11.213 -0.3075  2.4037  0.3124
15387TIP3   OH267575   4.783   0.824   0.192  0.5853 -0.1320 -0.4290
15387TIP3    H167576   4.806   0.911   0.160 -0.7857  0.6451  0.5920
15387TIP3    H267577   4.859   0.796   0.244  1.3345  0.1231 -1.3733
15388TIP3   OH267578   5.548   3.428  17.017 -0.0395 -0.4216 -0.0603
15388TIP3    H167579   5.609   3.366  17.055 -0.8517 -0.5346  1.1077
15388TIP3    H267580   5.462   3.389  17.031 -0.5695  0.9461  0.7009
15389TIP3   OH267581   1.062   0.098  15.496  0.1354 -0.4363  0.2136
15389TIP3    H167582   1.027   0.187  15.496 -1.1055 -0.8672 -1.8589
15389TIP3    H267583   1.104   0.088  15.411  1.9622 -1.2575  1.1414
15390TIP3   OH267584   2.438   6.528   5.997  0.1268  0.4702 -0.2226
15390TIP3    H167585   2.376   6.514   6.068  0.5095 -0.0959  0.0062
15390TIP3    H267586   2.385   6.561   5.924 -0.6271 -1.0784 -0.4090
15391TIP3   OH267587   2.088   3.081  11.379  0.4858  0.2231  0.0242
15391TIP3    H167588   2.060   3.131  11.456 -0.9413  0.1305 -0.3979
15391TIP3    H267589   2.034   3.002  11.382  0.5037  0.1620 -0.9986
15392TIP3   OH267590   6.741   3.969  15.328  0.2421  0.2281 -0.0849
15392TIP3    H167591   6.803   3.946  15.257 -1.6784 -0.2248 -1.7041
15392TIP3    H267592   6.741   3.892  15.385  1.0275  0.1607 -0.1619
15393TIP3   OH267593   5.862   2.778   3.930  0.0579  0.8149  0.3779
15393TIP3    H167594   5.787   2.777   3.989 -0.9341  1.8117 -0.8229
15393TIP3    H267595   5.885   2.685   3.920 -1.9939  0.3302 -0.3981
15394TIP3   OH267596   5.149   1.277   1.610 -0.0846 -0.3813 -0.3085
15394TIP3    H167597   5.157   1.286   1.516 -0.1236  0.5104 -0.2339
15394TIP3    H267598   5.056   1.258   1.625 -0.2213  0.2200 -0.3958
15395TIP3   OH267599   5.310   1.912  14.353 -0.5880  0.4445 -0.2880
15395TIP3    H167600   5.352   1.927  14.268 -1.8428  1.1461 -0.8057
15395TIP3    H267601   5.332   1.821  14.374  0.0401  0.3690 -1.1813
15396TIP3   OH267602   3.889   3.800   3.843 -0.1881  0.2847  0.4785
15396TIP3    H167603   3.972   3.755   3.854 -1.7612 -3.7907 -1.9196
15396TIP3    H267604   3.867   3.787   3.751 -3.6466  0.7745  1.1032
15397TIP3   OH267605   6.633   5.463   0.853  0.3272  0.3933 -0.6401
15397TIP3    H167606   6.548   5.444   0.813  0.4560  1.2786 -1.3816
15397TIP3    H267607   6.684   5.502   0.782  1.3293 -0.0430 -0.1805
15398TIP3   OH267608   6.759   0.656   5.311  0.3212 -0.0380  0.0167
15398TIP3    H167609   6.816   0.730   5.330  0.8869 -0.2530 -0.7388
15398TIP3    H267610   6.763   0.601   5.389 -2.0663  1.8823  1.5988
15399TIP3   OH267611   6.763   1.020   2.195  0.8174 -0.0039 -0.9241
15399TIP3    H167612   6.812   1.001   2.115  0.1443  2.8004 -2.1246
15399TIP3    H267613   6.733   1.110   2.184 -4.7155 -1.4058 -0.3820
15400TIP3   OH267614   4.767   4.904   0.276 -0.0990 -0.0863 -0.1590
15400TIP3    H167615   4.827   4.847   0.228 -0.0896 -0.9065  0.8125
15400TIP3    H267616   4.823   4.952   0.337  0.0068  1.5466 -1.4410
15401TIP3   OH267617   5.666   1.056  11.124  0.3020 -0.3953 -0.4981
15401TIP3    H167618   5.598   0.989  11.127  0.0432 -0.1146  1.8412
15401TIP3    H267619   5.626   1.132  11.167  1.9617 -0.1360  0.6682
15402TIP3   OH267620   3.161   5.280   4.195 -0.3991 -0.3439  0.1423
15402TIP3    H167621   3.224   5.327   4.250  0.3870 -0.9593 -0.2089
15402TIP3    H267622   3.142   5.341   4.123  1.0762 -0.7534 -0.6395
15403TIP3   OH267623   3.089   5.002  10.915  0.3376 -0.1995 -0.5662
15403TIP3    H167624   3.121   5.083  10.873 -0.4580 -0.3123 -1.4163
15403TIP3    H267625   3.160   4.977  10.974  0.4679  1.3036 -0.0168
15404TIP3   OH267626   3.213   1.072   2.470 -0.4829 -0.1655 -0.6334
15404TIP3    H167627   3.235   0.984   2.500  1.4190  0.0815 -1.1959
15404TIP3    H267628   3.134   1.060   2.417  0.1792 -1.6678 -1.3448
15405TIP3   OH267629   5.057   1.124  10.723  0.0675 -0.3856 -0.2291
15405TIP3    H167630   4.969   1.105  10.757 -0.1301  1.9040  0.7000
15405TIP3    H267631   5.113   1.124  10.801  0.6471 -0.4570 -0.6420
15406TIP3   OH267632   5.398   1.491  16.541 -0.2397 -0.5355  0.0906
15406TIP3    H167633   5.476   1.489  16.484  1.0021  0.7084  1.6378
15406TIP3    H267634   5.416   1.426  16.609  1.0359  1.9023  2.2695
15407TIP3   OH267635   5.994   6.709   4.573  0.2614  0.3093 -0.3025
15407TIP3    H167636   5.960   6.631   4.618  0.0428 -0.2943 -1.4702
15407TIP3    H267637   5.990   6.686   4.480  2.8014  0.6179 -0.5698
15408TIP3   OH267638   4.125   1.350   1.173  0.5064  0.3847  0.0879
15408TIP3    H167639   4.190   1.412   1.206  1.6654 -0.8006  0.1209
15408TIP3    H267640   4.097   1.302   1.251  0.8962 -0.2844 -0.1799
15409TIP3   OH267641   0.226   6.197   0.620  0.0988 -0.4227 -0.6895
15409TIP3    H167642   0.234   6.291   0.637  0.0288 -0.3937 -0.8206
15409TIP3    H267643   0.313   6.169   0.593  0.2282 -0.4807 -0.2192
15410TIP3   OH267644   1.266   1.856   3.240 -0.3951 -0.0326 -0.1468
15410TIP3    H167645   1.306   1.770   3.233  0.3116  0.0607  1.9097
15410TIP3    H267646   1.333   1.911   3.282 -0.9924  1.3981 -0.9745
15411TIP3   OH267647   0.651   0.591  11.974 -0.0383  0.4633  0.0314
15411TIP3    H167648   0.622   0.507  11.939  2.1823  0.1526 -1.2490
15411TIP3    H267649   0.582   0.652  11.949 -1.2698 -0.7929  0.2167
15412TIP3   OH267650   6.049   0.422   5.580 -0.3645 -0.2843  0.2761
15412TIP3    H167651   5.989   0.440   5.507 -1.0168  1.4285  1.1818
15412TIP3    H267652   5.992   0.412   5.656  0.3035 -2.1102  0.5732
15413TIP3   OH267653   6.534   1.818  16.907  0.3288  0.3756  0.6438
15413TIP3    H167654   6.540   1.866  16.824 -0.1438 -1.0877 -0.2783
15413TIP3    H267655   6.525   1.726  16.880 -1.1767 -0.0041  2.2915
15414TIP3   OH267656   0.244   6.393   4.264 -0.3077 -0.0812  0.7042
15414TIP3    H167657   0.332   6.426   4.281 -0.1610 -0.2225  0.2131
15414TIP3    H267658   0.200   6.464   4.218  0.2849 -0.8662 -1.1629
15415TIP3   OH267659   0.211   5.850  12.277  0.2579 -0.5317  0.1453
15415TIP3    H167660   0.177   5.939  12.283  0.3871 -0.4522 -0.2990
15415TIP3    H267661   0.216   5.820  12.368 -0.3193 -0.2874  0.2635
15416TIP3   OH267662   4.406   1.690   4.378 -0.0578  0.1928  0.2501
15416TIP3    H167663   4.317   1.724   4.371 -0.2110 -0.0944  0.6958
15416TIP3    H267664   4.462   1.767   4.377 -0.2722  0.3429 -0.5852
15417TIP3   OH267665   1.824   1.135   5.067  0.2637  0.0273 -0.4902
15417TIP3    H167666   1.825   1.085   4.986 -1.1434  1.3629 -1.3848
15417TIP3    H267667   1.897   1.100   5.118  0.3867 -1.7090 -1.7838
15418TIP3   OH267668   2.216   3.358   6.238  0.9108 -0.7040 -0.0956
15418TIP3    H167669   2.295   3.309   6.261  1.1615 -1.1996 -1.8497
15418TIP3    H267670   2.244   3.449   6.232  1.3771 -0.8833 -0.7363
15419TIP3   OH267671   0.877   1.702  12.405 -0.1919 -0.8109  0.1431
15419TIP3    H167672   0.955   1.744  12.440  0.1005  0.2572 -1.6276
15419TIP3    H267673   0.834   1.663  12.481  0.8956  0.5050  1.4993
15420TIP3   OH267674   6.610   3.299   5.666  0.0651 -0.6667 -0.7491
15420TIP3    H167675   6.622   3.368   5.600  1.0520  0.8731  0.9415
15420TIP3    H267676   6.516   3.287   5.671 -0.1371  0.5898 -1.0983
15421TIP3   OH267677   4.990   3.791  14.588  0.5649  0.6280  0.3417
15421TIP3    H167678   5.083   3.815  14.586  1.2038 -1.5926 -0.0414
15421TIP3    H267679   4.973   3.768  14.680  0.3615  1.1483  0.4342
15422TIP3   OH267680   4.966   4.754   3.283  0.4694 -0.2283  0.0554
15422TIP3    H167681   4.984   4.751   3.189  1.4908  1.2764  0.1629
15422TIP3    H267682   5.052   4.772   3.322 -0.2360  0.9033  1.1263
15423TIP3   OH267683   2.028   1.755  14.249 -0.0889  0.7341  0.6829
15423TIP3    H167684   2.102   1.813  14.230  0.6713 -0.4042  0.0212
15423TIP3    H267685   2.050   1.672  14.205 -0.9159 -0.2220  1.9752
15424TIP3   OH267686   3.817   1.651   4.383 -0.4026 -0.4919 -0.3827
15424TIP3    H167687   3.827   1.611   4.297  0.4668  2.7945 -1.9599
15424TIP3    H267688   3.724   1.671   4.390 -0.2347  0.7621 -1.3765
15425TIP3   OH267689   1.379   6.427  10.763 -0.0162 -0.4758  0.0800
15425TIP3    H167690   1.445   6.440  10.695  1.0859 -0.0311  1.2153
15425TIP3    H267691   1.322   6.358  10.728  1.7544 -1.7524 -0.4219
15426TIP3   OH267692   1.261   6.386  14.265  0.1514  0.0452 -0.2820
15426TIP3    H167693   1.277   6.471  14.223 -1.5526  0.3336 -0.4338
15426TIP3    H267694   1.322   6.385  14.339  0.6072  1.1512 -0.6083
15427TIP3   OH267695   1.365   5.038  13.250  0.2885  0.2735 -0.1872
15427TIP3    H167696   1.388   4.948  13.225 -1.0120 -0.5832  1.4597
15427TIP3    H267697   1.277   5.050  13.213  0.5809  1.0024 -0.6608
15428TIP3   OH267698   3.112   5.433   0.579  0.1028  0.5211  0.2133
15428TIP3    H167699   3.163   5.416   0.658  2.4842  1.7668 -0.9554
15428TIP3    H267700   3.066   5.351   0.562  1.1313 -0.4277  1.7537
15429TIP3   OH267701   1.081   1.898   3.820 -0.2363  0.0209  0.0023
15429TIP3    H167702   1.045   1.959   3.755  0.8185  1.4259  0.6787
15429TIP3    H267703   1.151   1.948   3.863  0.6066 -1.6568  0.6503
15430TIP3   OH267704   2.594   1.979  13.473 -0.6438 -0.0955 -0.0169
15430TIP3    H167705   2.568   1.932  13.552 -0.8296 -0.7413 -0.4494
15430TIP3    H267706   2.615   1.909  13.410  2.7241  0.3349  0.4631
15431TIP3   OH267707   1.972   1.923  15.043  0.0073 -0.0924 -0.1114
15431TIP3    H167708   2.054   1.972  15.041 -0.6516  1.0074 -1.9173
15431TIP3    H267709   1.974   1.870  14.963 -0.4480 -1.0928  0.5224
15432TIP3   OH267710   0.601   2.207   2.644 -0.0570  0.0799 -0.0183
15432TIP3    H167711   0.628   2.116   2.652 -0.3470 -0.0341 -0.2850
15432TIP3    H267712   0.521   2.203   2.591 -0.0153  0.4955 -0.1156
15433TIP3   OH267713   4.439   2.773   4.347  0.3971 -0.7269 -0.1871
15433TIP3    H167714   4.443   2.727   4.431  0.8361  0.9715  0.7703
15433TIP3    H267715   4.376   2.844   4.362  0.2908 -0.5587 -1.3772
15434TIP3   OH267716   0.666   0.174   1.346 -0.1445 -0.2807  0.2639
15434TIP3    H167717   0.663   0.106   1.414 -0.1090  0.3617  0.9121
15434TIP3    H267718   0.592   0.153   1.289 -0.3000 -0.7076  0.6096
15435TIP3   OH267719   3.140   3.940  13.222  0.4174  0.2181  0.2562
15435TIP3    H167720   3.109   3.938  13.313  0.6122  0.1369  0.3199
15435TIP3    H267721   3.105   4.022  13.186 -0.3936 -0.1700  0.1451
15436TIP3   OH267722   5.382   3.870  12.216 -0.0098 -0.1826  0.7941
15436TIP3    H167723   5.412   3.785  12.184 -0.0211 -0.6420  1.9539
15436TIP3    H267724   5.319   3.899  12.150  1.9536  0.2089 -1.0244
15437TIP3   OH267725   1.314   5.064  12.102 -0.3882  0.0548 -0.1782
15437TIP3    H167726   1.340   4.976  12.130  1.3147 -0.1423 -2.1492
15437TIP3    H267727   1.270   5.050  12.018  1.1151  1.1393 -1.1979
15438TIP3   OH267728   5.593   5.267  15.668  0.0419 -0.1848  0.0570
15438TIP3    H167729   5.501   5.245  15.655  0.4711 -0.9494 -2.1122
15438TIP3    H267730   5.597   5.362  15.653 -0.6512  0.2159  2.1160
15439TIP3   OH267731   5.958   5.958  17.235 -0.2687  0.4492 -0.7466
15439TIP3    H167732   5.954   5.865  17.212  1.7705  0.3956 -1.1008
15439TIP3    H267733   5.965   6.003  17.150 -2.3030  1.0450 -0.6396
15440TIP3   OH267734   5.757   3.680   2.419  0.5536 -0.3066 -0.4188
15440TIP3    H167735   5.751   3.636   2.334  0.6573 -0.6868 -0.2298
15440TIP3    H267736   5.775   3.771   2.397  2.1373 -0.6805 -0.7846
15441TIP3   OH267737   3.394   6.104   2.524  0.3867 -0.6045 -0.4331
15441TIP3    H167738   3.338   6.180   2.512  0.0444 -0.7703  0.0972
15441TIP3    H267739   3.467   6.135   2.577 -0.2504 -0.8674  0.6217
15442TIP3   OH267740   4.079   4.498   5.779  0.2707 -0.8208  1.0492
15442TIP3    H167741   3.999   4.516   5.828 -1.0042 -1.1947 -0.7795
15442TIP3    H267742   4.066   4.409   5.744  0.7498 -0.3122 -0.5311
15443TIP3   OH267743   2.409   0.542  12.617  0.5653 -0.0513  0.7159
15443TIP3    H167744   2.458   0.621  12.593  0.7635 -0.4189 -0.1120
15443TIP3    H267745   2.330   0.545  12.563 -1.2871  1.4567  3.2839
15444TIP3   OH267746   3.648   3.947  12.190 -0.6149  0.4366 -0.2145
15444TIP3    H167747   3.678   4.031  12.225  0.8006 -0.3904  0.6333
15444TIP3    H267748   3.715   3.884  12.215 -3.7170 -1.9045  3.3055
15445TIP3   OH267749   2.933   4.507   2.424  0.2937 -0.5380  0.1700
15445TIP3    H167750   2.873   4.480   2.354  0.2259  1.0257 -0.4142
15445TIP3    H267751   2.955   4.426   2.469 -0.7339 -1.4032 -0.8193
15446TIP3   OH267752   1.802   1.960   2.226  0.5990 -0.5226 -0.3444
15446TIP3    H167753   1.820   1.900   2.299  0.5877 -1.1501 -0.8518
15446TIP3    H267754   1.707   1.969   2.225  0.6264 -0.1094  0.0260
15447TIP3   OH267755   3.836   2.911   4.369 -0.7574 -1.2311 -0.7206
15447TIP3    H167756   3.788   2.938   4.447 -0.8871 -1.4279 -0.7304
15447TIP3    H267757   3.791   2.954   4.297 -1.4680 -2.0991 -0.8197
15448TIP3   OH267758   4.268   3.220   3.265  0.0931 -0.8660 -0.2344
15448TIP3    H167759   4.330   3.156   3.298  1.3109 -0.2225 -1.1812
15448TIP3    H267760   4.312   3.260   3.190 -1.1884  0.1024 -0.5120
15449TIP3   OH267761   2.880   5.104   3.761  0.0855 -0.3076 -0.2789
15449TIP3    H167762   2.945   5.075   3.826  0.5731  1.5273  0.1329
15449TIP3    H267763   2.799   5.062   3.788  0.5556 -0.6049  0.7571
15450TIP3   OH267764   1.742   4.993   2.889  0.3118 -0.2242  0.3938
15450TIP3    H167765   1.674   4.926   2.879  0.3557 -0.8758  3.5491
15450TIP3    H267766   1.702   5.058   2.946  1.9706 -0.1103  1.4656
15451TIP3   OH267767   6.607   2.809  13.326 -0.0720 -0.0164  0.0412
15451TIP3    H167768   6.521   2.835  13.359  1.1241  0.6805  2.8588
15451TIP3    H267769   6.597   2.716  13.305 -1.7167  0.2546 -0.5703
15452TIP3   OH267770   4.452   1.259  15.048  0.8034 -0.3300  0.1276
15452TIP3    H167771   4.520   1.257  14.981  1.8268 -0.2198  1.1479
15452TIP3    H267772   4.461   1.345  15.089 -0.6222  0.0940 -0.3812
15453TIP3   OH267773   4.013   1.344  13.223  0.6445 -0.3590  0.3804
15453TIP3    H167774   4.101   1.354  13.260  0.5125 -0.0569  0.6200
15453TIP3    H267775   4.022   1.373  13.133  0.6776  0.1851  0.5531
15454TIP3   OH267776   4.190   6.664  13.276 -0.1046  0.7375  0.1549
15454TIP3    H167777   4.130   6.590  13.266  1.5244 -0.6834  0.6028
15454TIP3    H267778   4.176   6.717  13.197 -0.9130 -0.3061 -0.4253
15455TIP3   OH267779   2.244   2.300   4.926  0.1172 -0.7662  0.3972
15455TIP3    H167780   2.327   2.305   4.974  0.7938 -0.2289 -0.7606
15455TIP3    H267781   2.263   2.343   4.842 -1.0888 -1.4098 -0.2338
15456TIP3   OH267782   4.339   5.087  12.313  0.5663  0.4339  0.1491
15456TIP3    H167783   4.252   5.087  12.352  1.2238  1.6444  1.7093
15456TIP3    H267784   4.356   4.995  12.292 -0.6452  0.0339  0.8434
15457TIP3   OH267785   4.920   0.747   1.604 -0.5536 -0.2024 -0.0045
15457TIP3    H167786   4.879   0.829   1.576 -2.2313 -0.7599  0.6653
15457TIP3    H267787   5.002   0.774   1.646 -1.0565  1.1400  0.1762
15458TIP3   OH267788   2.550   2.952  15.431  0.2949  0.3722 -0.3761
15458TIP3    H167789   2.594   3.037  15.426 -0.5135  0.7972 -0.3243
15458TIP3    H267790   2.584   2.912  15.512  0.0959  0.9803  0.0140
15459TIP3   OH267791   6.261   0.483  16.784 -0.5384 -0.3505  0.1535
15459TIP3    H167792   6.208   0.423  16.731 -2.1592 -1.2731  2.6392
15459TIP3    H267793   6.336   0.430  16.812  0.7221  0.3503 -1.6535
15460TIP3   OH267794   1.903   0.491  12.952  0.1697 -0.2270 -0.2583
15460TIP3    H167795   1.971   0.549  12.918 -0.0491  0.8099  1.0019
15460TIP3    H267796   1.940   0.403  12.942  0.4577  0.0711 -2.3189
15461TIP3   OH267797   6.158   1.589  12.585  0.0820 -0.1831 -0.3436
15461TIP3    H167798   6.154   1.685  12.579  0.3770 -0.2241 -1.4600
15461TIP3    H267799   6.066   1.561  12.582 -0.0196  0.0685  0.2508
15462TIP3   OH267800   2.910   1.850   4.085  0.3875  0.5860 -0.2199
15462TIP3    H167801   2.887   1.943   4.088 -0.0737  0.5660 -2.0448
15462TIP3    H267802   2.938   1.835   3.995  2.8952 -0.5124  0.6437
15463TIP3   OH267803   6.377   4.905   1.460  0.6228 -0.2089 -0.1030
15463TIP3    H167804   6.337   4.932   1.543 -0.2849  3.0007 -1.4323
15463TIP3    H267805   6.471   4.917   1.474  0.4810  0.3457  0.4584
15464TIP3   OH267806   4.277   6.410  15.672  0.0457 -0.4525  0.1420
15464TIP3    H167807   4.344   6.462  15.627  0.6736 -0.8360  0.6169
15464TIP3    H267808   4.221   6.475  15.714 -1.1055 -0.0328 -1.9009
15465TIP3   OH267809   2.158   2.893  11.885  0.0422  0.1105 -0.0564
15465TIP3    H167810   2.160   2.985  11.912  0.6345  0.2436 -0.5331
15465TIP3    H267811   2.245   2.877  11.848  0.4525 -1.0297  1.2930
15466TIP3   OH267812   6.068   5.800   0.965 -0.1786 -0.3773 -0.8647
15466TIP3    H167813   6.090   5.887   0.930 -0.4895  0.2810  0.5124
15466TIP3    H267814   6.147   5.772   1.011  0.1375 -1.1252 -1.8316
15467TIP3   OH267815   0.388   0.424   5.372 -0.1244  0.3695 -0.4067
15467TIP3    H167816   0.388   0.492   5.304 -2.7306  1.9704  1.0292
15467TIP3    H267817   0.415   0.470   5.451  0.7869 -0.9778  0.1010
15468TIP3   OH267818   4.735   2.819  15.865 -0.0330  0.5090 -0.1092
15468TIP3    H167819   4.700   2.907  15.853  0.2273  0.4459 -1.5974
15468TIP3    H267820   4.720   2.776  15.780 -0.2469 -0.9134  0.6173
15469TIP3   OH267821   2.452   1.761  13.760  0.1012  0.2789 -0.2633
15469TIP3    H167822   2.539   1.801  13.766  0.8580 -1.3216 -0.0183
15469TIP3    H267823   2.442   1.714  13.843 -1.1818  0.7586 -0.1292
15470TIP3   OH267824   5.068   6.370   2.437 -0.2532  0.1741  0.1858
15470TIP3    H167825   5.144   6.351   2.383 -0.5868  0.1593 -0.2892
15470TIP3    H267826   5.011   6.294   2.425  0.7678 -1.0659  2.6050
15471TIP3   OH267827   4.290   4.767   5.858  0.3695  0.5957  0.0585
15471TIP3    H167828   4.223   4.829   5.885  0.1238  0.6507 -0.6561
15471TIP3    H267829   4.367   4.790   5.911  0.2418  1.4211 -0.1006
15472TIP3   OH267830   4.840   2.983  13.583 -0.0166  0.3222  0.1048
15472TIP3    H167831   4.769   3.029  13.537 -1.4064 -0.6555  1.1714
15472TIP3    H267832   4.804   2.896  13.601  1.9407 -0.6530 -0.4156
15473TIP3   OH267833   5.953   6.670   1.998  0.1384  0.0948  0.4256
15473TIP3    H167834   5.977   6.666   2.090  0.0656 -0.4329  0.4251
15473TIP3    H267835   6.001   6.597   1.958 -2.2918 -1.7168  0.6210
15474TIP3   OH267836   1.829   3.365  12.646 -0.1582  0.0381  0.2251
15474TIP3    H167837   1.920   3.335  12.638 -0.5602 -0.9181 -1.0706
15474TIP3    H267838   1.807   3.351  12.738  1.2592  1.0896  0.7605
15475TIP3   OH267839   0.126   3.485  11.803 -0.1806 -0.2381 -0.3192
15475TIP3    H167840   0.060   3.555  11.797  0.1912  0.0366 -1.2646
15475TIP3    H267841   0.096   3.432  11.877 -2.2440 -0.9050 -1.5357
15476TIP3   OH267842   4.824   1.310   4.016 -0.2741 -0.1101 -0.5701
15476TIP3    H167843   4.892   1.376   4.007  1.0336 -1.6599 -4.9122
15476TIP3    H267844   4.742   1.358   4.006  0.3078  1.3295  1.0561
15477TIP3   OH267845   0.541   4.555   3.717 -0.0603  0.1855 -0.6405
15477TIP3    H167846   0.511   4.641   3.745  1.3986 -0.2335  2.7002
15477TIP3    H267847   0.637   4.560   3.722  0.0796 -1.4133 -1.0532
15478TIP3   OH267848   4.046   1.471  16.691 -0.1254 -0.2647  0.0066
15478TIP3    H167849   4.085   1.433  16.770 -0.5605 -1.0566 -0.1543
15478TIP3    H267850   4.120   1.512  16.645 -0.0172  0.9978  1.2570
15479TIP3   OH267851   5.189   4.214   6.246 -0.1329  0.4789  0.6432
15479TIP3    H167852   5.256   4.279   6.227  0.1131  0.5435  1.6986
15479TIP3    H267853   5.236   4.140   6.285 -0.2671 -0.7791 -1.4023
15480TIP3   OH267854   5.319   1.454  14.250 -0.0829 -0.3353  0.1929
15480TIP3    H167855   5.243   1.457  14.192 -0.3770 -1.5521  0.4778
15480TIP3    H267856   5.332   1.360  14.267  0.6281 -0.0593  1.2663
15481TIP3   OH267857   4.150   3.538   5.612  0.2222  0.5373  0.2634
15481TIP3    H167858   4.178   3.477   5.680  1.5553  0.5518 -0.2288
15481TIP3    H267859   4.156   3.624   5.653  2.1772  0.6614 -0.1524
15482TIP3   OH267860   6.636   4.763   3.971  0.6233 -0.0101 -0.3126
15482TIP3    H167861   6.649   4.798   3.883  1.9989  0.0864 -0.0960
15482TIP3    H267862   6.586   4.830   4.017 -0.5105 -0.2706 -1.1500
15483TIP3   OH267863   3.808   2.044  12.050 -0.1593 -0.3678  0.4286
15483TIP3    H167864   3.728   2.074  12.092 -0.3130 -0.2038  0.0275
15483TIP3    H267865   3.805   2.083  11.962  0.6572  0.1464  0.6198
15484TIP3   OH267866   0.312   3.066  12.281  0.0538  0.0417 -0.0367
15484TIP3    H167867   0.276   3.046  12.195 -0.9078 -2.8788  0.9080
15484TIP3    H267868   0.406   3.070  12.268 -0.2067  3.1101 -1.7360
15485TIP3   OH267869   2.448   1.081   2.980 -0.1456 -0.5903  0.0475
15485TIP3    H167870   2.414   1.096   2.891 -0.8507 -0.2384  0.3685
15485TIP3    H267871   2.461   0.986   2.984 -2.3435 -0.9316  0.3251
15486TIP3   OH267872   5.200   0.772  10.259 -0.5154  0.5495 -0.6844
15486TIP3    H167873   5.214   0.686  10.219  1.3011 -0.2262  1.4523
15486TIP3    H267874   5.286   0.799  10.290 -1.5675  1.7189  1.4340
15487TIP3   OH267875   4.364   3.267  13.206 -0.0788 -0.1542 -0.0114
15487TIP3    H167876   4.413   3.291  13.128 -0.0071 -0.3989 -0.0430
15487TIP3    H267877   4.426   3.281  13.278  0.3528 -1.3174 -0.1285
15488TIP3   OH267878   4.149   3.508   2.723  0.1122 -0.5029 -0.2092
15488TIP3    H167879   4.087   3.502   2.795 -0.1835  1.8267 -0.1947
15488TIP3    H267880   4.224   3.455   2.750 -0.3787 -0.4180  1.3808
15489TIP3   OH267881   2.404   4.828   3.491  0.1967 -0.6110  0.3144
15489TIP3    H167882   2.353   4.839   3.411  0.1563  0.4860  0.4842
15489TIP3    H267883   2.342   4.792   3.554 -0.6735  1.6208  0.8092
15490TIP3   OH267884   5.106   0.358   3.246 -0.4066 -0.1749 -0.4999
15490TIP3    H167885   5.175   0.331   3.306 -1.7428  1.4302  1.9431
15490TIP3    H267886   5.129   0.448   3.221 -0.2892 -0.5451 -1.7721
15491TIP3   OH267887   5.026   5.408  11.097  0.0806  0.0137 -0.0218
15491TIP3    H167888   4.965   5.475  11.066 -1.6445 -0.9555  1.0441
15491TIP3    H267889   5.099   5.457  11.134 -1.2249  1.3468  0.9183
15492TIP3   OH267890   5.611   4.805  16.538 -0.0295 -0.0535  0.4824
15492TIP3    H167891   5.623   4.803  16.633  1.2467 -3.3481  0.3753
15492TIP3    H267892   5.540   4.743  16.522  0.4997 -0.3581 -0.7744
15493TIP3   OH267893   0.118   0.072  12.297 -0.3640  0.4570  0.5263
15493TIP3    H167894   0.210   0.049  12.295 -0.6186 -0.6866  1.2237
15493TIP3    H267895   0.110   0.145  12.236  0.4233 -1.4825 -2.0657
15494TIP3   OH267896   6.038   6.107  14.112 -0.2028 -0.4044 -0.4843
15494TIP3    H167897   5.972   6.121  14.180 -1.4327  0.4957 -1.7840
15494TIP3    H267898   6.024   6.017  14.083 -1.4713  0.0331 -1.3171
15495TIP3   OH267899   3.625   2.836  14.002 -0.1234  0.0935 -0.3092
15495TIP3    H167900   3.661   2.925  14.003  0.8537 -0.2852 -0.6615
15495TIP3    H267901   3.664   2.795  13.925  0.2365 -0.9729  0.4241
15496TIP3   OH267902   0.641   4.449   5.117 -0.5241  0.6833  0.2871
15496TIP3    H167903   0.639   4.533   5.163  0.8390  0.1444  1.3824
15496TIP3    H267904   0.607   4.386   5.180  2.1370 -0.2006  0.9364
15497TIP3   OH267905   3.559   5.520  12.613  0.1631  0.2706 -0.0702
15497TIP3    H167906   3.475   5.505  12.655  0.9591 -1.0245  1.1687
15497TIP3    H267907   3.601   5.588  12.667  0.8556 -0.8130  0.8080
15498TIP3   OH267908   1.287   0.300   4.952  0.1538 -0.0089 -0.0619
15498TIP3    H167909   1.279   0.390   4.920 -0.0276 -0.1643 -0.4537
15498TIP3    H267910   1.274   0.245   4.874 -0.5515 -0.3968  0.3168
15499TIP3   OH267911   6.147   1.345   3.073 -0.2255  0.5866 -0.0071
15499TIP3    H167912   6.071   1.312   3.025  1.0325 -1.8417 -0.4915
15499TIP3    H267913   6.176   1.422   3.023  0.3456 -1.1779 -2.5616
15500TIP3   OH267914   1.725   1.592  10.653  0.0977  0.3271 -0.0384
15500TIP3    H167915   1.760   1.515  10.608 -0.0322  0.7889 -0.9443
15500TIP3    H267916   1.630   1.581  10.651  0.0352  0.9512 -0.9883
15501TIP3   OH267917   3.403   6.588   2.970 -0.2574 -0.2058  0.2266
15501TIP3    H167918   3.465   6.573   2.899 -1.2809 -0.7501 -0.5801
15501TIP3    H267919   3.317   6.591   2.927 -0.8625 -0.1910  1.3918
15502TIP3   OH267920   2.424   1.823  11.800  0.0319  0.1010  0.0575
15502TIP3    H167921   2.391   1.888  11.739 -2.8076 -1.8912 -0.7236
15502TIP3    H267922   2.458   1.753  11.745  0.3781 -0.3526  0.8237
15503TIP3   OH267923   4.639   0.317  14.617  0.0740  0.2614 -0.7339
15503TIP3    H167924   4.552   0.359  14.618 -0.1990 -0.2467 -1.7058
15503TIP3    H267925   4.695   0.379  14.664 -1.3615 -0.7294  2.6433
15504TIP3   OH267926   5.850   1.803  12.474  0.3221  0.3198 -0.1756
15504TIP3    H167927   5.849   1.774  12.565 -0.8116 -1.0531 -0.5828
15504TIP3    H267928   5.763   1.840  12.459  0.8600  1.5277 -0.4217
15505TIP3   OH267929   0.756   0.190  12.975 -0.3530  0.0190  0.1044
15505TIP3    H167930   0.678   0.243  12.958  1.1006  1.3135 -3.4620
15505TIP3    H267931   0.739   0.108  12.928 -1.1654 -1.4685  2.7873
15506TIP3   OH267932   1.483   4.649  11.504 -0.7468  0.8569 -0.5651
15506TIP3    H167933   1.572   4.624  11.478 -2.2196 -1.0404 -4.5379
15506TIP3    H267934   1.495   4.728  11.557  3.3385 -0.3291  0.6293
15507TIP3   OH267935   6.562   6.196   2.589 -0.2930 -0.6418 -0.2629
15507TIP3    H167936   6.579   6.184   2.495 -1.0585  0.9064 -0.6432
15507TIP3    H267937   6.494   6.131   2.609  0.7716 -1.8545 -0.4496
15508TIP3   OH267938   0.324   0.050  16.539 -0.0974  0.0176  0.1544
15508TIP3    H167939   0.316   0.114  16.610  0.5024  1.1171 -0.7347
15508TIP3    H267940   0.247  -0.007  16.550 -0.7731  1.0143  0.8470
15509TIP3   OH267941   0.765   5.056  14.494 -0.0405 -0.0446  0.3830
15509TIP3    H167942   0.842   5.054  14.550  0.2260  2.5729  0.2413
15509TIP3    H267943   0.691   5.065  14.554  0.1293  1.3306  0.4174
15510TIP3   OH267944   6.415   1.443  14.914  0.0488  0.0164  0.1375
15510TIP3    H167945   6.419   1.529  14.873  1.5141 -0.2852 -0.4164
15510TIP3    H267946   6.457   1.455  15.000  0.6323 -0.2166 -0.1069
15511TIP3   OH267947   1.598   4.018  15.190  0.0374 -0.1521  0.0289
15511TIP3    H167948   1.577   4.054  15.104  0.3945 -0.4110 -0.1717
15511TIP3    H267949   1.514   4.005  15.233 -0.0877  1.5139  0.3546
15512TIP3   OH267950   5.074   6.447  15.427  0.7688  0.3649 -0.4726
15512TIP3    H167951   5.119   6.441  15.511  3.2040  0.9241 -1.6302
15512TIP3    H267952   5.108   6.374  15.376 -1.9611 -0.9975 -0.4886
15513TIP3   OH267953   1.761   5.592   5.358 -0.7038 -0.4573 -0.1294
15513TIP3    H167954   1.688   5.551   5.312 -2.5941  2.2202  0.2277
15513TIP3    H267955   1.733   5.595   5.450  0.9735 -1.5398  0.4602
15514TIP3   OH267956   0.065   5.317  14.032 -0.1914  0.6658 -0.5697
15514TIP3    H167957   0.154   5.320  13.998 -0.5949 -0.7496 -1.8742
15514TIP3    H267958   0.074   5.272  14.116  0.2893  0.1708 -0.8766
15515TIP3   OH267959   6.127   3.529  11.923 -0.6236 -0.0193  0.0851
15515TIP3    H167960   6.067   3.546  11.850 -0.5055 -0.1705 -0.0476
15515TIP3    H267961   6.209   3.571  11.897 -0.0479 -1.5058 -0.6558
15516TIP3   OH267962   2.073   3.142   5.176 -0.0073 -0.2058  0.2356
15516TIP3    H167963   1.979   3.131   5.190 -0.6788  2.4525 -1.3874
15516TIP3    H267964   2.103   3.191   5.253 -0.6157  1.4684 -0.5397
15517TIP3   OH267965   3.894   2.406  14.559  0.4864 -0.2619 -0.0797
15517TIP3    H167966   3.906   2.459  14.639  1.0561  0.0578 -0.3713
15517TIP3    H267967   3.858   2.323  14.591 -0.3157  0.2497  0.4021
15518TIP3   OH267968   2.066   4.667   0.853  0.7294 -0.3779  0.2155
15518TIP3    H167969   2.001   4.700   0.915  1.3716 -1.2619  1.3945
15518TIP3    H267970   2.148   4.669   0.901  1.3272 -0.6749 -0.7628
15519TIP3   OH267971   5.572   6.015   1.663 -0.0427 -0.1105  0.1333
15519TIP3    H167972   5.510   5.989   1.731  0.5477  0.2501  0.8185
15519TIP3    H267973   5.543   6.101   1.635  0.0622 -0.0037  0.3520
15520TIP3   OH267974   5.098   0.753  11.881  0.2307  0.7001  0.0966
15520TIP3    H167975   5.170   0.694  11.857  0.2585  0.6184  0.3800
15520TIP3    H267976   5.093   0.747  11.976  1.0781  2.1169  0.2673
15521TIP3   OH267977   5.779   0.579  14.047  0.5594  0.3298  0.5035
15521TIP3    H167978   5.697   0.570  13.999  1.5324 -1.6352 -0.9726
15521TIP3    H267979   5.836   0.628  13.988  1.0382 -0.0158  0.6712
15522TIP3   OH267980   2.493   0.874   6.449 -0.3290 -0.5379  0.2471
15522TIP3    H167981   2.547   0.795   6.450 -1.1470 -1.1485 -1.3557
15522TIP3    H267982   2.521   0.921   6.371  0.6131  1.1593  1.5179
15523TIP3   OH267983   2.989   1.817   3.828  0.1655  0.7005 -0.6574
15523TIP3    H167984   2.957   1.736   3.789  0.3979  0.0155  0.5245
15523TIP3    H267985   3.072   1.835   3.784  0.8266 -0.4938  0.0516
15524TIP3   OH267986   3.858   5.518   1.564  0.5176 -0.7749 -0.1723
15524TIP3    H167987   3.777   5.529   1.515  0.4274 -2.2550 -0.4110
15524TIP3    H267988   3.927   5.522   1.498  0.5024 -1.2908 -0.2238
15525TIP3   OH267989   3.051   3.956   2.321 -0.2928  0.0017 -0.4235
15525TIP3    H167990   3.015   3.965   2.410  1.9651 -2.0799  0.8277
15525TIP3    H267991   3.085   4.043   2.300 -2.1538  0.8978  0.1008
15526TIP3   OH267992   1.684   5.536   1.025  0.2238 -0.2565  0.1387
15526TIP3    H167993   1.642   5.568   0.946 -1.8620  1.6168  1.8491
15526TIP3    H267994   1.737   5.609   1.056  0.3377 -0.6493  0.8931
15527TIP3   OH267995   3.097   3.474  14.164 -0.0215 -0.3206  0.2580
15527TIP3    H167996   3.119   3.567  14.159 -1.3010  0.0892  1.4851
15527TIP3    H267997   3.008   3.469  14.128 -0.0753 -1.0331  0.4792
15528TIP3   OH267998   5.460   3.700  16.937 -0.4407  0.5315  0.5091
15528TIP3    H167999   5.485   3.609  16.948  0.7664  0.8373  0.4815
15528TIP3    H268000   5.418   3.724  17.020  1.6824  0.6878  1.6075
15529TIP3   OH268001   6.493   1.282  11.130  0.4819 -0.1804  0.0262
15529TIP3    H168002   6.472   1.188  11.135  1.5484 -0.4832 -0.6445
15529TIP3    H268003   6.541   1.290  11.047  0.5355  0.9399  0.1582
15530TIP3   OH268004   4.549   5.789  11.463 -0.7819 -0.1684 -0.4792
15530TIP3    H168005   4.618   5.825  11.408 -1.7134  0.8038 -1.0390
15530TIP3    H268006   4.526   5.706  11.421  1.0986 -1.3191  0.5988
15531TIP3   OH268007   6.255   0.530  11.070 -0.0187 -0.0219 -0.1408
15531TIP3    H168008   6.332   0.517  11.015 -0.4742  0.2065 -0.8519
15531TIP3    H268009   6.253   0.454  11.127  1.6808  0.7637  1.0661
15532TIP3   OH268010   5.497   2.363  15.198 -0.6849 -0.2482 -0.2864
15532TIP3    H168011   5.488   2.398  15.110  1.1380 -1.7109 -1.1221
15532TIP3    H268012   5.493   2.439  15.256 -2.4157  0.6853 -1.5556
15533TIP3   OH268013   2.445   3.669   3.595  0.1899  0.1574  0.0033
15533TIP3    H168014   2.364   3.700   3.635  1.3549  1.9951  1.1068
15533TIP3    H268015   2.466   3.588   3.642 -0.3649  0.3421  0.5737
15534TIP3   OH268016   2.594   6.525  12.583 -0.1207 -0.0122  0.4467
15534TIP3    H168017   2.590   6.446  12.529  0.9697 -0.0499  0.4059
15534TIP3    H268018   2.550   6.592  12.531  1.2888  0.0598 -0.7012
15535TIP3   OH268019   1.536   6.283  11.092 -0.0494  0.4206  0.7189
15535TIP3    H168020   1.577   6.361  11.053  1.2335 -0.7446 -0.3710
15535TIP3    H268021   1.588   6.266  11.171  0.8135 -0.3173  0.0163
15536TIP3   OH268022   5.891   4.028  13.819  0.7548  0.0143 -0.3097
15536TIP3    H168023   5.863   4.004  13.730 -0.5793  0.6929 -0.1002
15536TIP3    H268024   5.856   4.116  13.831  0.9737 -0.0553  0.8678
15537TIP3   OH268025   1.680   5.542  13.619  0.3898  0.1416  0.2350
15537TIP3    H168026   1.737   5.529  13.695  2.4732  1.3812 -1.0093
15537TIP3    H268027   1.704   5.471  13.559 -1.9215 -1.4095  1.0246
15538TIP3   OH268028   5.922   6.687  12.098 -0.0804  0.4323 -0.2658
15538TIP3    H168029   5.831   6.718  12.094  0.0410  0.7694 -0.4679
15538TIP3    H268030   5.953   6.691  12.007 -0.5207 -1.7265 -0.5759
15539TIP3   OH268031   5.825   5.654  12.831 -0.3577 -0.2855 -0.1128
15539TIP3    H168032   5.816   5.712  12.906  0.6007  1.5979 -1.3707
15539TIP3    H268033   5.885   5.700  12.772 -1.3762 -1.4826 -2.2070
15540TIP3   OH268034   6.187   3.898   6.419  0.2788  0.0408  0.0374
15540TIP3    H168035   6.187   3.830   6.487 -2.2504  1.4689  1.6412
15540TIP3    H268036   6.208   3.979   6.466  0.0593  0.8526 -1.2065
15541TIP3   OH268037   6.402   2.365  15.324  0.5158  0.2533 -0.0836
15541TIP3    H168038   6.450   2.304  15.379 -0.4675  0.9049  1.5839
15541TIP3    H268039   6.405   2.448  15.372  0.8825  1.2599 -1.7527
15542TIP3   OH268040   0.185   2.184   3.946 -0.3593  0.3282  0.1954
15542TIP3    H168041   0.211   2.247   4.013  1.3640 -0.1862  0.0690
15542TIP3    H268042   0.163   2.237   3.870 -0.3425  0.8393  0.5439
15543TIP3   OH268043   3.205   0.840  14.005 -0.1220 -0.3561 -0.0773
15543TIP3    H168044   3.276   0.858  13.943 -1.3857  0.8591 -1.2436
15543TIP3    H268045   3.133   0.896  13.975 -1.7022 -1.8194  0.8496
15544TIP3   OH268046   0.581   1.497  14.317 -0.2798 -0.0751 -0.0703
15544TIP3    H168047   0.624   1.574  14.356 -1.7508  0.5968  0.3031
15544TIP3    H268048   0.618   1.423  14.366  0.0213  0.5224  0.6434
15545TIP3   OH268049   1.710   5.014   3.311 -0.0583 -0.1028 -0.3419
15545TIP3    H168050   1.659   5.040   3.233 -1.2066 -3.3856 -0.8570
15545TIP3    H268051   1.712   5.093   3.365 -2.1606  1.3717 -2.1822
15546TIP3   OH268052   2.662   0.215   2.664  0.5185 -0.2763  0.2565
15546TIP3    H168053   2.671   0.305   2.635 -0.1414 -0.2712  0.0336
15546TIP3    H268054   2.707   0.211   2.748 -0.8198  0.6789  1.0596
15547TIP3   OH268055   1.252   5.606  14.403  0.4489 -0.1635 -1.2375
15547TIP3    H168056   1.208   5.617  14.487  0.4759 -1.0399 -1.1005
15547TIP3    H268057   1.236   5.515  14.379 -1.2079  0.5450 -3.1305
15548TIP3   OH268058   1.112   0.697  14.597 -0.0057 -0.1461  0.2966
15548TIP3    H168059   1.019   0.691  14.577  0.2605 -3.5874 -0.3823
15548TIP3    H268060   1.155   0.698  14.511  0.6774 -2.9765  0.5239
15549TIP3   OH268061   3.336   4.577   2.126  0.0371  0.6398  0.1347
15549TIP3    H168062   3.307   4.497   2.082 -2.0994  1.7007 -0.5042
15549TIP3    H268063   3.398   4.546   2.192 -0.7976 -1.5661 -0.0228
15550TIP3   OH268064   4.534   0.702   1.701  0.4344 -0.2203  0.5635
15550TIP3    H168065   4.607   0.677   1.759  1.1476 -1.2987 -0.7527
15550TIP3    H268066   4.458   0.658   1.738  0.7120 -0.2086  1.1630
15551TIP3   OH268067   3.687   3.830   6.218 -0.3147  0.0075 -0.4430
15551TIP3    H168068   3.639   3.828   6.301  1.4343 -1.0758  0.5929
15551TIP3    H268069   3.703   3.738   6.197  1.4335  0.3165 -0.6334
15552TIP3   OH268070   6.377   2.521   1.604  0.0202  0.3312 -0.5817
15552TIP3    H168071   6.316   2.462   1.648 -1.0430  1.3338 -0.6704
15552TIP3    H268072   6.416   2.468   1.534  1.3671 -1.1375  1.1948
15553TIP3   OH268073   3.749   0.479   2.024 -0.1585  0.2884 -0.1751
15553TIP3    H168074   3.704   0.543   2.079 -1.1633  0.1090 -0.7779
15553TIP3    H268075   3.722   0.394   2.059  3.1549  0.0369  2.3121
15554TIP3   OH268076   1.139   1.929   5.727 -0.2666 -0.6102  0.2893
15554TIP3    H168077   1.234   1.923   5.715 -0.3717 -0.0262 -0.9091
15554TIP3    H268078   1.106   1.965   5.645 -1.1580  2.6049  1.9149
15555TIP3   OH268079   1.437   4.447   0.521 -0.2318 -0.2859 -0.1508
15555TIP3    H168080   1.476   4.420   0.604  1.9358 -0.4699 -1.1417
15555TIP3    H268081   1.510   4.484   0.471 -1.5909  0.3951 -1.7532
15556TIP3   OH268082   1.107   4.159   2.942  0.8738  0.3165  0.0701
15556TIP3    H168083   1.135   4.162   2.850  1.4000 -0.4991  0.1968
15556TIP3    H268084   1.171   4.214   2.987  0.0158  1.5763 -0.1758
15557TIP3   OH268085   5.207   6.008   0.445  0.0396 -0.3918  0.1143
15557TIP3    H168086   5.150   5.931   0.456  0.8613 -1.0253  0.0725
15557TIP3    H268087   5.147   6.082   0.442 -0.8373 -1.1005 -0.5909
15558TIP3   OH268088   2.988   4.717  16.345 -0.2298 -0.3058 -0.6546
15558TIP3    H168089   2.976   4.623  16.339  0.1248 -0.3480 -0.6731
15558TIP3    H268090   2.996   4.746  16.254  0.9992 -0.4278 -0.5932
15559TIP3   OH268091   0.053   4.822  16.926 -0.1545 -0.5014  0.0647
15559TIP3    H168092   0.140   4.821  16.887 -0.5242  0.0626 -0.8256
15559TIP3    H268093  -0.000   4.768  16.867 -0.7382  0.4149 -0.2728
15560TIP3   OH268094   4.225   2.167   0.938  0.0244 -0.0645 -0.6886
15560TIP3    H168095   4.268   2.102   0.993 -0.6733  0.2804  0.2927
15560TIP3    H268096   4.296   2.227   0.914  0.8043 -1.4967 -2.1396
15561TIP3   OH268097   1.231   1.184   0.284  0.4147 -0.6624 -0.2980
15561TIP3    H168098   1.304   1.225   0.330  0.0735 -1.9340  1.4954
15561TIP3    H268099   1.267   1.103   0.248  0.0422 -1.0530  0.1783
15562TIP3   OH268100   3.170   0.044  14.385 -0.3905 -0.7257 -0.3719
15562TIP3    H168101   3.162   0.115  14.449 -0.6957 -1.2458  0.1763
15562TIP3    H268102   3.249   0.066  14.335  1.4750 -1.6676  1.9516
15563TIP3   OH268103   0.500   1.743   5.679 -0.2113  0.0469 -0.0920
15563TIP3    H168104   0.404   1.738   5.682 -0.1885 -0.6492 -0.3270
15563TIP3    H268105   0.525   1.672   5.620  0.3215  1.6723 -1.9166
15564TIP3   OH268106   3.965   3.421   2.310 -0.4135 -0.4577  0.2546
15564TIP3    H168107   4.024   3.397   2.238 -2.2103 -3.2846 -0.4455
15564TIP3    H268108   4.009   3.388   2.389  0.8243  1.2253  0.3129
15565TIP3   OH268109   1.249   1.059  15.059  0.8844  1.0380  0.0206
15565TIP3    H168110   1.226   1.135  15.005  1.2507  1.5513  0.5769
15565TIP3    H268111   1.320   1.017  15.011  1.3194  1.5841  0.1776
15566TIP3   OH268112   6.131   4.859   4.369  0.1030  1.0060 -0.0252
15566TIP3    H168113   6.138   4.777   4.321  3.1377  2.6327 -2.7722
15566TIP3    H268114   6.183   4.845   4.448 -0.3832 -0.0518  0.1209
15567TIP3   OH268115   3.395   6.706  16.705 -0.4237 -0.3470  0.0135
15567TIP3    H168116   3.385   6.777  16.768  0.8086 -0.7000  0.6376
15567TIP3    H268117   3.391   6.749  16.620 -2.9745  0.0227  0.2577
15568TIP3   OH268118   5.029   4.155  16.754 -0.6166  0.2504 -0.2438
15568TIP3    H168119   5.081   4.113  16.685 -0.2640  0.6867 -0.2470
15568TIP3    H268120   5.015   4.244  16.722  0.6565  0.8628  0.8337
15569TIP3   OH268121   3.947   0.503   2.623 -0.4375  0.2099 -0.2227
15569TIP3    H168122   4.010   0.485   2.553  2.7101  0.3769  2.3349
15569TIP3    H268123   3.913   0.590   2.603  1.4070  0.8200 -0.8672
15570TIP3   OH268124   1.086   0.558   1.679 -0.1637 -0.3192  0.2941
15570TIP3    H168125   1.037   0.482   1.645  0.7791 -0.9348  0.2829
15570TIP3    H268126   1.075   0.552   1.774  1.0171 -1.2715  0.3964
15571TIP3   OH268127   3.801   6.599   1.781  0.0831  0.2246  0.7775
15571TIP3    H168128   3.894   6.607   1.759 -0.2118  0.8248 -0.3508
15571TIP3    H268129   3.772   6.521   1.733 -0.0757  0.2368  0.8528
15572TIP3   OH268130   4.839   0.828  11.287 -0.0837 -0.0610  0.6496
15572TIP3    H168131   4.789   0.748  11.271 -1.4545  0.9109 -0.1313
15572TIP3    H268132   4.903   0.831  11.217 -0.7863  0.0994  0.0042
15573TIP3   OH268133   0.389   2.330  15.536 -0.0460  0.0305 -0.2165
15573TIP3    H168134   0.455   2.338  15.605  1.5604 -0.8601 -1.5661
15573TIP3    H268135   0.435   2.357  15.456 -1.2651 -0.7885 -1.2434
15574TIP3   OH268136   4.909   0.959  11.773 -0.2613 -0.4696 -0.1133
15574TIP3    H168137   4.865   0.993  11.851 -0.1849  0.6873 -0.5452
15574TIP3    H268138   4.988   0.918  11.807  0.7173  1.6220  0.3307
15575TIP3   OH268139   6.105   1.584  14.199 -0.8197  0.2276 -0.0226
15575TIP3    H168140   6.068   1.548  14.118  0.3524  0.0514 -0.4924
15575TIP3    H268141   6.057   1.665  14.214 -0.3122  0.8161 -1.4882
15576TIP3   OH268142   3.322   4.721  12.151 -0.4387  0.8389  0.0814
15576TIP3    H168143   3.398   4.689  12.200  0.1021 -0.2900 -1.4275
15576TIP3    H268144   3.339   4.694  12.061 -2.2973  1.2075 -0.4078
15577TIP3   OH268145   3.685   2.241   5.721 -0.3972 -0.2088 -0.1716
15577TIP3    H168146   3.760   2.204   5.768 -0.6022 -2.0277 -1.1623
15577TIP3    H268147   3.625   2.269   5.790  1.6449  2.5069  0.6779
15578TIP3   OH268148   6.324   3.566  12.244  0.1787  0.4125 -0.3382
15578TIP3    H168149   6.250   3.528  12.291  0.0901  0.0821 -0.7410
15578TIP3    H268150   6.285   3.628  12.183  0.1359 -0.5641 -1.3316
15579TIP3   OH268151   0.106   1.904   4.285 -0.0999 -0.0804  0.2735
15579TIP3    H168152   0.110   1.826   4.341 -0.6643  0.2604  0.8080
15579TIP3    H268153   0.154   1.970   4.334  1.5664 -0.4371 -0.7991
15580TIP3   OH268154   4.062   4.236  11.803  0.5948 -0.0830 -0.1572
15580TIP3    H168155   4.020   4.274  11.881  1.0422 -0.0745  0.0857
15580TIP3    H268156   4.002   4.167  11.775 -0.3265  0.9342 -0.7256
15581TIP3   OH268157   4.556   2.453   5.405  0.4718  0.0080 -0.0744
15581TIP3    H168158   4.488   2.509   5.368 -1.0027 -1.3375  0.4712
15581TIP3    H268159   4.553   2.373   5.352  2.8466  0.5530 -1.1377
15582TIP3   OH268160   5.459   4.527  13.136 -0.0581  0.2459 -0.5466
15582TIP3    H168161   5.457   4.447  13.187 -4.1387  0.3498 -0.2057
15582TIP3    H268162   5.536   4.575  13.168  0.1547 -1.6989  2.1454
15583TIP3   OH268163   2.215   1.241   0.366  0.4216  0.1430 -0.0115
15583TIP3    H168164   2.287   1.210   0.420  0.4759 -0.3859 -0.3767
15583TIP3    H268165   2.155   1.285   0.427  1.0007  0.5008  0.3050
15584TIP3   OH268166   0.174   0.836   5.431  0.5026 -0.3659 -0.3192
15584TIP3    H168167   0.188   0.774   5.502 -0.0021  0.0751  0.1730
15584TIP3    H268168   0.252   0.828   5.376  0.6417 -1.1076 -0.0215
15585TIP3   OH268169   5.609   0.079  13.676 -0.7545  0.2484  0.1647
15585TIP3    H168170   5.645   0.000  13.716  1.0988 -0.4263 -2.5121
15585TIP3    H268171   5.655   0.152  13.719 -0.1167 -0.3365  0.4931
15586TIP3   OH268172   5.778   4.586  14.219 -0.3718  0.0578 -0.4485
15586TIP3    H168173   5.822   4.514  14.173  0.9440  0.9727 -0.6814
15586TIP3    H268174   5.835   4.662  14.205 -1.3265  0.9737  0.4469
15587TIP3   OH268175   0.814   4.307   3.995  0.2517 -0.2042 -0.0991
15587TIP3    H168176   0.863   4.390   3.994  0.6531 -0.4412 -0.9429
15587TIP3    H268177   0.723   4.333   4.010  0.1717  0.5269 -1.6016
15588TIP3   OH268178   1.817   4.764  12.341 -0.6168  0.2641 -0.2052
15588TIP3    H168179   1.827   4.823  12.416 -0.6610 -0.3929  0.3328
15588TIP3    H268180   1.780   4.684  12.379  1.7550 -1.0529 -0.4507
15589TIP3   OH268181   2.768   4.352  11.083 -0.1219 -0.5534  0.5283
15589TIP3    H168182   2.728   4.422  11.134 -0.8325 -1.7455  1.6622
15589TIP3    H268183   2.772   4.387  10.993 -2.1890  0.2195  0.6988
15590TIP3   OH268184   4.984   4.560   3.931 -0.1530  0.7192  0.3048
15590TIP3    H168185   4.897   4.546   3.893 -0.1109 -0.0578  0.4804
15590TIP3    H268186   5.024   4.627   3.875 -0.2381 -0.1121 -0.7956
15591TIP3   OH268187   0.686   6.773  15.292  0.6825 -0.0145 -0.5454
15591TIP3    H168188   0.684   6.840  15.223 -0.1807 -0.3421 -0.8527
15591TIP3    H268189   0.691   6.690  15.244  1.8081 -0.1927 -0.1688
15592TIP3   OH268190   4.127   4.368   4.515 -0.0362 -0.4036  0.3385
15592TIP3    H168191   4.123   4.444   4.573  2.0597 -1.0478  1.4393
15592TIP3    H268192   4.047   4.319   4.535 -0.4035  0.4768  1.1227
15593TIP3   OH268193   5.671   4.151   2.961  0.5316  0.4456 -0.3675
15593TIP3    H168194   5.765   4.132   2.962  0.5689  0.2972 -2.1810
15593TIP3    H268195   5.629   4.065   2.955  0.3466  0.5547 -0.6910
15594TIP3   OH268196   5.574   6.778   0.476 -0.6243 -0.1412 -0.3073
15594TIP3    H168197   5.481   6.770   0.497 -0.7161 -1.5286 -1.1045
15594TIP3    H268198   5.613   6.696   0.505  0.4883  0.6652  0.5778
15595TIP3   OH268199   0.470   0.852   0.855 -0.0986  0.0372  0.2267
15595TIP3    H168200   0.431   0.769   0.884 -1.6403  0.4484 -0.5973
15595TIP3    H268201   0.406   0.918   0.880 -0.2904  0.6629 -1.7601
15596TIP3   OH268202   3.238   3.923   1.541  0.2615  0.1428  0.4666
15596TIP3    H168203   3.167   3.984   1.563 -0.5701 -0.5509 -0.2247
15596TIP3    H268204   3.298   3.974   1.487  0.5096  0.8523  1.3901
15597TIP3   OH268205   3.699   1.063   3.197 -0.2988  0.0572  0.1902
15597TIP3    H168206   3.651   1.064   3.114 -0.9074  2.4944  0.5126
15597TIP3    H268207   3.791   1.056   3.171 -0.4282  1.5221 -0.7500
15598TIP3   OH268208   0.991   2.745   6.334  0.2519  0.8847  0.0441
15598TIP3    H168209   1.073   2.711   6.298 -0.4143  0.1930 -0.8909
15598TIP3    H268210   0.931   2.743   6.260 -0.3060  2.4797  0.4138
15599TIP3   OH268211   1.638   3.843  16.051 -0.2816  0.4767 -0.0342
15599TIP3    H168212   1.596   3.757  16.054  0.5936  0.0353 -0.1468
15599TIP3    H268213   1.629   3.871  15.960  0.6706 -0.1346 -0.3264
15600TIP3   OH268214   1.921   0.295   4.989 -0.3677 -0.0588  0.1752
15600TIP3    H168215   1.934   0.203   4.963  2.7018  0.6592 -1.2993
15600TIP3    H268216   1.886   0.290   5.078  0.2263 -2.6634  0.3496
15601TIP3   OH268217   0.876   4.227   2.544  0.2051 -0.5640 -0.0483
15601TIP3    H168218   0.863   4.210   2.450 -0.2626 -0.1300 -0.0709
15601TIP3    H268219   0.905   4.319   2.547  0.2801 -0.5963  0.2282
15602TIP3   OH268220   4.103   0.423  14.784 -0.1921 -0.4493 -0.1410
15602TIP3    H168221   4.065   0.336  14.793  0.0539 -0.5541 -0.1136
15602TIP3    H268222   4.098   0.443  14.691  2.0216 -1.5317 -0.5508
15603TIP3   OH268223   6.044   0.856   1.011  0.4053 -0.1608 -0.5107
15603TIP3    H168224   6.003   0.769   1.011 -1.9320  0.8406 -1.2206
15603TIP3    H268225   6.094   0.859   1.092  0.6460 -2.1924 -0.5327
15604TIP3   OH268226   5.082   2.698  16.840  0.1502  0.3280  0.6131
15604TIP3    H168227   5.090   2.627  16.903  2.7030  1.3172  1.5198
15604TIP3    H268228   5.145   2.763  16.868 -1.1542  2.4180 -0.9565
15605TIP3   OH268229   3.681   6.678  14.945  0.0867 -0.1776  0.3418
15605TIP3    H168230   3.743   6.708  14.878  1.5095 -1.2308  1.1274
15605TIP3    H268231   3.651   6.593  14.912  0.3033 -0.4066  0.7348
15606TIP3   OH268232   3.159   5.590  13.641  0.0245 -0.3875  0.3000
15606TIP3    H168233   3.236   5.590  13.697 -0.3572 -1.5068  0.8510
15606TIP3    H268234   3.195   5.596  13.552  0.8424 -2.1516  0.4670
15607TIP3   OH268235   6.114   6.120  13.001  0.5001 -0.2170  0.7179
15607TIP3    H168236   6.051   6.169  12.947  0.2036 -0.8826  0.4517
15607TIP3    H268237   6.078   6.032  13.005  2.0613 -0.9670 -0.5189
15608TIP3   OH268238   2.530   4.705   4.273 -0.5251 -0.1738  0.2023
15608TIP3    H168239   2.546   4.746   4.188 -0.2453  1.4382  0.9967
15608TIP3    H268240   2.484   4.624   4.252  1.6850 -1.0637 -1.6500
15609TIP3   OH268241   3.404   5.695  16.366 -0.1337  0.1212  0.3596
15609TIP3    H168242   3.319   5.699  16.322  1.2017  3.8875 -2.4540
15609TIP3    H268243   3.391   5.742  16.448 -1.6721 -3.3314  2.2759
15610TIP3   OH268244   0.801   0.963   1.073  0.3658 -0.2705  0.4477
15610TIP3    H168245   0.844   0.933   0.993 -1.5905 -0.8947 -0.4399
15610TIP3    H268246   0.715   0.920   1.071 -0.1989  0.6876  2.2586
15611TIP3   OH268247   1.590   6.285  15.951 -0.1182  0.2652  0.4084
15611TIP3    H168248   1.659   6.343  15.983  1.4563 -1.5063  0.3644
15611TIP3    H268249   1.515   6.344  15.936  0.9094  2.0327  1.7494
15612TIP3   OH268250   0.947   5.061  12.922  0.3361  0.4226 -0.0295
15612TIP3    H168251   0.870   5.053  12.979  0.9524  0.8070  0.8917
15612TIP3    H268252   0.911   5.080  12.835 -0.5849  3.0440  0.8198
15613TIP3   OH268253   2.496   2.091  14.939  0.3240  0.0150  0.1776
15613TIP3    H168254   2.481   2.016  14.882 -0.9021 -0.0054  0.5208
15613TIP3    H268255   2.513   2.163  14.878 -0.3520 -0.1414 -0.2038
15614TIP3   OH268256   5.881   6.755  14.449 -0.0266  0.1107 -0.0253
15614TIP3    H168257   5.935   6.813  14.395 -0.6108  1.2457  0.5685
15614TIP3    H268258   5.945   6.702  14.497  0.5331  0.3303 -0.5110
15615TIP3   OH268259   1.847   3.258  15.624  0.0485  0.2370 -0.6017
15615TIP3    H168260   1.845   3.317  15.700 -1.1406  1.2088 -1.3395
15615TIP3    H268261   1.859   3.171  15.662 -0.3192  0.7237  0.6967
15616TIP3   OH268262   4.703   0.001   2.611  0.4909 -0.1919  0.5131
15616TIP3    H168263   4.775  -0.046   2.653  0.7696 -0.6537 -0.4673
15616TIP3    H268264   4.736   0.023   2.524 -0.1162  0.6617  0.4861
15617TIP3   OH268265   2.915   0.885   0.105 -1.2889  0.1687 -0.4381
15617TIP3    H168266   2.839   0.871   0.048 -0.4665  1.3437 -1.9151
15617TIP3    H268267   2.940   0.798   0.134 -3.0303 -0.2627 -0.1205
15618TIP3   OH268268   4.588   3.913  14.588 -0.1567 -0.0583 -0.1187
15618TIP3    H168269   4.525   3.958  14.644 -0.3277 -1.0002  0.4686
15618TIP3    H268270   4.667   3.966  14.593 -0.0316 -0.3526  1.3580
15619TIP3   OH268271   6.374   3.757  15.929  0.0753 -0.0675 -0.1953
15619TIP3    H168272   6.320   3.731  15.854  1.0099 -0.6346 -0.6889
15619TIP3    H268273   6.409   3.843  15.904 -0.5959  0.3158  0.1390
15620TIP3   OH268274   5.805   1.250   4.101  0.6141  0.4536  0.0448
15620TIP3    H168275   5.867   1.214   4.164  0.2857 -0.0228  0.1077
15620TIP3    H268276   5.722   1.252   4.149  0.3015 -0.1733 -0.4468
15621TIP3   OH268277   3.870   6.356   2.737 -0.3421  0.0704 -0.4076
15621TIP3    H168278   3.941   6.350   2.673 -1.0734 -1.3722 -1.1189
15621TIP3    H268279   3.794   6.318   2.693 -1.3767  0.8933  0.6120
15622TIP3   OH268280   0.371   0.650  15.175 -0.0131 -0.3578 -0.1366
15622TIP3    H168281   0.438   0.595  15.136 -1.7148 -1.2560 -1.9795
15622TIP3    H268282   0.392   0.739  15.145  0.1025 -0.6926 -1.0801
15623TIP3   OH268283   0.647   1.651  13.486  0.3196  0.4273 -0.3317
15623TIP3    H168284   0.609   1.693  13.563 -0.0350  1.0183 -0.8223
15623TIP3    H268285   0.729   1.613  13.517 -0.2468 -0.1071  0.5374
15624TIP3   OH268286   4.638   6.246   6.656  0.7544  0.2264 -0.6324
15624TIP3    H168287   4.577   6.262   6.727  3.1977 -0.0615  1.7176
15624TIP3    H268288   4.612   6.162   6.619 -0.8186  0.5894 -0.4058
15625TIP3   OH268289   3.864   4.783   3.564  0.7641  0.1534 -0.2514
15625TIP3    H168290   3.849   4.752   3.653 -1.8981  1.2238 -0.2288
15625TIP3    H268291   3.853   4.878   3.569 -0.5108  0.1328 -1.8762
15626TIP3   OH268292   5.251   2.298   1.141 -0.4180 -0.2265  0.6779
15626TIP3    H168293   5.277   2.294   1.233  0.3630 -2.5852  0.4275
15626TIP3    H268294   5.300   2.373   1.105  0.5628 -0.3003  1.8141
15627TIP3   OH268295   2.047   2.524   4.236  0.5791  0.1071  0.2243
15627TIP3    H168296   2.076   2.563   4.318  1.2640  0.3622 -0.1319
15627TIP3    H268297   2.018   2.599   4.183 -1.6239 -0.2037  0.8960
15628TIP3   OH268298   0.992   2.404  12.489  0.1527 -0.3668  0.4356
15628TIP3    H168299   1.024   2.326  12.442 -1.6261 -1.1317  0.4267
15628TIP3    H268300   0.921   2.372  12.544 -1.6058  1.4564 -0.6343
15629TIP3   OH268301   4.482   3.606   3.054 -0.1863  0.1769 -0.1027
15629TIP3    H168302   4.449   3.657   3.128  0.0368  0.0867  0.0582
15629TIP3    H268303   4.483   3.668   2.981 -3.3794 -0.4498 -0.8591
15630TIP3   OH268304   5.605   0.214  12.413  0.6496 -0.6057 -0.3557
15630TIP3    H168305   5.654   0.157  12.472 -0.5283 -1.3625 -0.0877
15630TIP3    H268306   5.573   0.155  12.344  1.9925  0.2546 -1.7886
15631TIP3   OH268307   4.808   1.200   5.479  0.3968  0.7606  0.0055
15631TIP3    H168308   4.738   1.225   5.540  0.1980  1.5038 -0.5122
15631TIP3    H268309   4.767   1.138   5.419  0.3190  0.7938  0.0238
15632TIP3   OH268310   4.859   0.939   1.276  0.7990 -0.0639  0.4928
15632TIP3    H168311   4.833   1.031   1.277 -1.4498 -0.6171 -0.5816
15632TIP3    H268312   4.913   0.930   1.197 -1.3709 -0.1912 -1.0473
15633TIP3   OH268313   2.927   4.498  13.481 -0.1959 -0.5265 -0.3034
15633TIP3    H168314   2.901   4.586  13.510  1.3045  0.7438 -2.4874
15633TIP3    H268315   2.907   4.497  13.388  2.3576 -1.4196 -0.9260
15634TIP3   OH268316   3.898   5.106   5.740 -0.3031  0.0797 -0.5725
15634TIP3    H168317   3.971   5.105   5.802 -1.3513  0.5164  0.7242
15634TIP3    H268318   3.862   5.017   5.742 -1.4879  0.5379  0.9388
15635TIP3   OH268319   5.123   1.679   6.555 -0.2449 -0.7223  0.5709
15635TIP3    H168320   5.071   1.599   6.548 -0.4211 -0.5025 -0.8582
15635TIP3    H268321   5.181   1.663   6.630 -0.5236 -2.0261  0.5343
15636TIP3   OH268322   1.480   4.052  17.009 -0.3539  0.2105  0.0963
15636TIP3    H168323   1.534   4.132  17.010  1.1226 -0.7274 -0.5633
15636TIP3    H268324   1.530   3.991  16.953 -1.5848 -1.0762  0.3620
15637TIP3   OH268325   0.918   1.249   0.869 -0.6412 -0.6501 -0.0347
15637TIP3    H168326   1.000   1.296   0.852  0.2286 -2.7391 -2.3893
15637TIP3    H268327   0.932   1.206   0.953  1.2348 -1.8709 -0.8956
15638TIP3   OH268328   1.800   2.101  14.012  0.0007  0.0687 -0.1699
15638TIP3    H168329   1.883   2.139  14.038 -0.7491  0.4801  1.7687
15638TIP3    H268330   1.803   2.099  13.916  1.7018  1.2562 -0.1712
15639TIP3   OH268331   1.675   2.365   2.818  0.0627 -0.1574 -0.5523
15639TIP3    H168332   1.616   2.336   2.888  0.2622 -0.0218 -0.3306
15639TIP3    H268333   1.673   2.292   2.755 -0.2248 -0.2193 -0.4756
15640TIP3   OH268334   2.623   3.803  17.228  0.7758  0.1643  0.3695
15640TIP3    H168335   2.714   3.820  17.205  0.6631  1.9151  1.0928
15640TIP3    H268336   2.609   3.711  17.205  1.7079  0.7563 -3.1012
15641TIP3   OH268337   4.414   5.191   3.028 -0.0344 -0.2444 -0.6586
15641TIP3    H168338   4.356   5.266   3.037 -0.4558 -0.3217 -2.4570
15641TIP3    H268339   4.368   5.119   3.072 -0.0594  0.2971  0.2357
15642TIP3   OH268340   0.737   3.678  13.798  0.5003 -0.3296 -0.1782
15642TIP3    H168341   0.740   3.704  13.706 -1.1412 -2.8672 -1.0407
15642TIP3    H268342   0.674   3.737  13.838  1.4011  0.9494 -0.5972
15643TIP3   OH268343   6.483   4.150  13.787  0.3988  0.4555  0.2098
15643TIP3    H168344   6.485   4.129  13.694  1.3080  2.6027 -0.3248
15643TIP3    H268345   6.394   4.181  13.803  0.3349  0.3964 -0.0283
15644TIP3   OH268346   2.541   4.542   4.904  0.6661 -0.2465 -0.1123
15644TIP3    H168347   2.609   4.524   4.838  1.5322 -0.6378  0.8628
15644TIP3    H268348   2.525   4.457   4.945  0.2954  0.0357  0.3292
15645TIP3   OH268349   0.134   2.037  10.954  0.0543  0.0837 -0.0400
15645TIP3    H168350   0.044   2.009  10.938  0.5200 -1.5720  0.1039
15645TIP3    H268351   0.125   2.124  10.994 -1.4650 -0.0098 -0.1345
15646TIP3   OH268352   6.331   0.746   2.339  0.1109  0.0100 -0.2483
15646TIP3    H168353   6.295   0.751   2.251 -0.5644 -2.2960 -0.1773
15646TIP3    H268354   6.405   0.806   2.338 -0.2966  0.5561 -2.1644
15647TIP3   OH268355   4.185   0.699  10.900 -0.3288  0.3112  0.3603
15647TIP3    H168356   4.177   0.603  10.904 -1.3175  0.4141  1.3633
15647TIP3    H268357   4.107   0.731  10.944 -0.3330  1.6064 -0.5486
15648TIP3   OH268358   5.266   1.297   5.714 -0.3246 -0.1795 -0.3406
15648TIP3    H168359   5.171   1.308   5.712 -0.1362  1.7257 -0.4912
15648TIP3    H268360   5.288   1.269   5.625 -0.6067  0.8997 -0.7693
15649TIP3   OH268361   1.182   4.428   5.172 -0.2384  0.5898  0.8311
15649TIP3    H168362   1.087   4.423   5.164 -0.1048  0.3201 -1.0742
15649TIP3    H268363   1.207   4.500   5.113  0.8978 -0.7546 -0.3927
15650TIP3   OH268364   2.717   4.141  12.675  0.2407  0.1990 -0.5525
15650TIP3    H168365   2.795   4.122  12.623  0.8617 -0.6332  0.6092
15650TIP3    H268366   2.736   4.225  12.717  0.1590  0.3964 -0.9128
15651TIP3   OH268367   2.092   0.529   5.038 -0.0277 -0.0981  0.3129
15651TIP3    H168368   2.064   0.546   5.128  3.0477 -0.7605  1.4857
15651TIP3    H268369   2.035   0.458   5.008 -2.7541  1.7231  0.7354
15652TIP3   OH268370   5.832   5.451  15.449  0.9892  0.6669 -0.1551
15652TIP3    H168371   5.858   5.365  15.482 -0.7374  0.0525 -0.2995
15652TIP3    H268372   5.779   5.489  15.520  1.2230  1.3583 -0.3376
15653TIP3   OH268373   4.574   4.702  12.157  0.5318  0.2891  0.5296
15653TIP3    H168374   4.574   4.640  12.083 -0.1747 -1.1099  1.6342
15653TIP3    H268375   4.616   4.653  12.228  0.4922  1.3186  1.2706
15654TIP3   OH268376   6.112   5.705   3.765 -0.0342 -0.6742 -0.4830
15654TIP3    H168377   6.091   5.729   3.675  0.2270  0.6804 -0.2106
15654TIP3    H268378   6.161   5.780   3.799 -0.6438 -0.8965  0.9742
15655TIP3   OH268379   6.219   5.961  12.386  0.5062 -0.3356 -0.3855
15655TIP3    H168380   6.289   6.026  12.386  0.1516  0.0505  0.2508
15655TIP3    H268381   6.176   5.971  12.471 -1.1605  0.3242 -1.2732
15656TIP3   OH268382   2.987   0.547  12.516  0.2903  0.0361 -0.7277
15656TIP3    H168383   3.081   0.563  12.510  1.1797 -4.1769 -0.5636
15656TIP3    H268384   2.968   0.552  12.610  0.2593  1.1193 -0.7807
15657TIP3   OH268385   3.950   5.623  12.061  0.0117 -0.2206  0.3925
15657TIP3    H168386   3.934   5.582  12.146 -0.9471  2.4675  1.6598
15657TIP3    H268387   4.045   5.627  12.053  0.1129 -0.4221  1.4140
15658TIP3   OH268388   0.065   1.073   5.988 -0.0891 -0.0339 -0.5620
15658TIP3    H168389   0.078   0.978   5.986 -0.5438 -0.1096 -0.1938
15658TIP3    H268390   0.044   1.091   6.080  1.5786  0.6385 -0.2723
15659TIP3   OH268391   5.961   2.823   5.306 -0.0857 -0.1519  0.1879
15659TIP3    H168392   5.984   2.740   5.347  1.2254  0.3382  0.5129
15659TIP3    H268393   6.038   2.845   5.253 -0.3876  0.8792  0.1556
15660TIP3   OH268394   3.714   6.338  12.990 -0.9911 -0.3538  0.3713
15660TIP3    H168395   3.802   6.313  13.016 -0.9194  1.1483  1.7526
15660TIP3    H268396   3.711   6.433  13.004 -2.3858 -0.1523 -1.0008
15661TIP3   OH268397   6.744   5.785   3.492  0.3384  0.2240 -0.2320
15661TIP3    H168398   6.832   5.795   3.527  0.8475 -1.1515 -1.0418
15661TIP3    H268399   6.753   5.801   3.398 -1.2128  5.0692  0.1590
15662TIP3   OH268400   5.266   6.573   1.825 -0.2444  0.1913 -0.2083
15662TIP3    H168401   5.270   6.477   1.831  1.6255  0.2584  0.2455
15662TIP3    H268402   5.284   6.591   1.732  2.7697  0.1559  0.2830
15663TIP3   OH268403   6.633   4.954   4.188  0.3832 -0.2259  0.5511
15663TIP3    H168404   6.559   4.897   4.209 -0.8067  1.7948  2.3184
15663TIP3    H268405   6.595   5.022   4.132  1.2726 -0.0437  0.1551
15664TIP3   OH268406   2.422   1.426  13.440  0.0018  0.1541  0.0721
15664TIP3    H168407   2.508   1.434  13.482 -0.3038  0.4912  0.6432
15664TIP3    H268408   2.434   1.465  13.353  0.3780  0.3777  0.2222
15665TIP3   OH268409   5.117   3.831   0.746 -1.0308 -0.1234  0.4856
15665TIP3    H168410   5.099   3.752   0.797 -0.8615  0.0677  0.8438
15665TIP3    H268411   5.211   3.830   0.732 -0.6602  1.2161  2.5115
15666TIP3   OH268412   2.298   2.601  15.060  0.3329  0.0785 -0.6723
15666TIP3    H168413   2.235   2.543  15.104  0.1836  0.2891 -0.6062
15666TIP3    H268414   2.328   2.660  15.129  0.0221  0.4757 -0.8704
15667TIP3   OH268415   5.686   1.675   1.184 -0.4628  0.1604  0.1086
15667TIP3    H168416   5.637   1.650   1.106  0.0244  0.4028 -0.2794
15667TIP3    H268417   5.754   1.608   1.193 -1.0911 -0.3830  0.8590
15668TIP3   OH268418   3.571   3.283  14.842 -0.1269  0.4866 -0.8143
15668TIP3    H168419   3.609   3.195  14.837 -0.1287  0.0844  3.0085
15668TIP3    H268420   3.643   3.340  14.868 -0.6099  1.1322 -0.8463
15669TIP3   OH268421   2.521   6.671  16.104  0.0079  0.3434  0.0388
15669TIP3    H168422   2.603   6.689  16.150  0.1256 -0.9767  0.4015
15669TIP3    H268423   2.535   6.585  16.063 -0.9474  0.4163 -0.4757
15670TIP3   OH268424   5.730   0.193  16.678  0.2895 -0.9211  0.5427
15670TIP3    H168425   5.775   0.109  16.693  0.7087 -0.6734  0.7103
15670TIP3    H268426   5.789   0.241  16.619 -0.5767 -1.2529 -0.6156
15671TIP3   OH268427   0.178   3.744   2.982 -0.8491  0.2024 -0.2324
15671TIP3    H168428   0.099   3.795   2.962 -2.5128 -2.1996 -0.1368
15671TIP3    H268429   0.217   3.726   2.897 -0.9635  0.5118 -0.3533
15672TIP3   OH268430   5.754   4.530   2.655 -0.4095  0.1648 -0.4372
15672TIP3    H168431   5.736   4.563   2.743  1.6473  1.7952 -0.5665
15672TIP3    H268432   5.704   4.587   2.597  0.7439  1.1648 -0.4788
15673TIP3   OH268433   0.428   4.827   3.275 -0.4037 -0.1019  0.5429
15673TIP3    H168434   0.480   4.896   3.234 -0.3073 -0.4072  0.1355
15673TIP3    H268435   0.401   4.771   3.202 -2.2377  0.6319  0.6056
15674TIP3   OH268436   6.555   5.704   1.024 -0.0285 -0.1444  0.7090
15674TIP3    H168437   6.584   5.792   1.050 -2.4571  0.9203  0.1544
15674TIP3    H268438   6.557   5.705   0.928  1.1459 -1.1920  0.6961
15675TIP3   OH268439   0.247   0.340   3.482  0.4945 -0.4117  0.0487
15675TIP3    H168440   0.340   0.355   3.467  0.5017  0.4747  0.9117
15675TIP3    H268441   0.233   0.364   3.573 -0.9307  1.2272 -0.5519
15676TIP3   OH268442   3.477   2.533  14.943 -0.1066 -0.8306  0.4811
15676TIP3    H168443   3.540   2.599  14.913  1.5796 -2.3576  0.4576
15676TIP3    H268444   3.392   2.567  14.917  0.7187  1.2027  0.2681
15677TIP3   OH268445   1.524   4.775   1.149  0.2820  0.0680  0.1225
15677TIP3    H168446   1.612   4.781   1.185  1.2957  2.3700 -2.4205
15677TIP3    H268447   1.505   4.863   1.116 -1.9156 -0.9883 -1.7188
15678TIP3   OH268448   2.671   3.518  15.435  0.1960  0.2546 -0.3352
15678TIP3    H168449   2.622   3.533  15.517  0.7269  0.3797 -0.0363
15678TIP3    H268450   2.741   3.458  15.459  2.2197  2.5785  0.0477
15679TIP3   OH268451   5.740   1.269  14.366 -0.1294  0.7278 -0.3025
15679TIP3    H168452   5.710   1.217  14.441  1.9645  0.5932  0.5111
15679TIP3    H268453   5.754   1.357  14.402 -2.4344  1.6238 -1.3865
15680TIP3   OH268454   2.023   0.593   1.434 -0.0704  0.2150  0.3049
15680TIP3    H168455   1.994   0.656   1.501  1.1106 -0.1899  1.2290
15680TIP3    H268456   1.984   0.510   1.462  1.8320 -0.3269  1.5353
15681TIP3   OH268457   5.873   1.742  13.756 -0.4693  0.5635 -0.0393
15681TIP3    H168458   5.953   1.699  13.724  0.4479  1.6273  0.7471
15681TIP3    H268459   5.802   1.697  13.710  0.5522 -0.6329 -0.5166
15682TIP3   OH268460   4.211   3.690  16.264 -0.1402  0.0089 -0.1656
15682TIP3    H168461   4.208   3.772  16.314  0.8252 -0.7605  1.2034
15682TIP3    H268462   4.266   3.632  16.316 -0.3490 -1.3407 -1.3949
15683TIP3   OH268463   5.436   1.900   4.098  0.2724  0.0413 -0.1987
15683TIP3    H168464   5.477   1.911   4.012  0.1205  0.5795 -0.2025
15683TIP3    H268465   5.509   1.885   4.158  0.4060  0.0710 -0.3551
15684TIP3   OH268466   3.293   0.250  14.924  1.2478  0.3333 -0.0973
15684TIP3    H168467   3.245   0.193  14.983 -0.9508  1.5717 -0.5748
15684TIP3    H268468   3.348   0.191  14.872 -0.3370 -1.2528 -0.0400
15685TIP3   OH268469   1.351   0.100  12.252  0.4502 -0.2685  0.0900
15685TIP3    H168470   1.389   0.043  12.319 -0.1956  0.4775  1.1266
15685TIP3    H268471   1.303   0.166  12.301 -1.5177 -0.6887 -1.1217
15686TIP3   OH268472   3.796   0.778   3.900  0.0097 -0.1045 -0.1787
15686TIP3    H168473   3.807   0.688   3.869 -0.0033  0.1472 -0.9567
15686TIP3    H268474   3.701   0.792   3.900  0.0475  0.3218 -1.3661
15687TIP3   OH268475   0.956   0.845   0.284  0.4652  0.4062 -0.7135
15687TIP3    H168476   0.968   0.934   0.318  1.3688  0.8158 -2.0150
15687TIP3    H268477   1.038   0.800   0.303  0.7254  0.4362 -1.7049
15688TIP3   OH268478   3.566   3.654   2.236  0.0463 -0.5047  0.0320
15688TIP3    H168479   3.655   3.639   2.206 -0.5734 -0.9395 -1.7447
15688TIP3    H268480   3.543   3.577   2.288  0.7163 -0.3440  0.5756
15689TIP3   OH268481   3.328   4.040   0.400  0.5446 -0.3255  0.3210
15689TIP3    H168482   3.324   4.010   0.309 -0.8444  0.0458  0.2406
15689TIP3    H268483   3.298   4.130   0.397 -2.3079 -1.1426  1.4781
15690TIP3   OH268484   3.606   3.448  13.819  0.5976 -0.4418  0.0184
15690TIP3    H168485   3.594   3.355  13.839 -1.4882 -0.0434  0.7994
15690TIP3    H268486   3.672   3.477  13.883  0.2608 -1.0927  0.6826
15691TIP3   OH268487   3.603   5.610   1.850 -0.8531 -0.0353  0.2501
15691TIP3    H168488   3.543   5.550   1.804 -0.8691 -0.1358  0.4005
15691TIP3    H268489   3.638   5.666   1.781 -1.8017  0.6184  0.2747
15692TIP3   OH268490   1.517   3.788  14.992  0.0338  0.5508 -0.0101
15692TIP3    H168491   1.514   3.834  15.076 -1.4242  1.7541 -0.6820
15692TIP3    H268492   1.509   3.857  14.926  0.0135 -0.4771 -1.1120
15693TIP3   OH268493   2.396   5.410  11.777 -0.4671  0.2740  0.4061
15693TIP3    H168494   2.306   5.442  11.767 -1.5305 -2.5469  0.0196
15693TIP3    H268495   2.410   5.353  11.701  1.2956 -0.0976  0.9679
15694TIP3   OH268496   3.230   0.871   1.017  0.1537 -0.1867  0.6536
15694TIP3    H168497   3.259   0.937   1.081 -0.1224  0.2654  0.3210
15694TIP3    H268498   3.161   0.915   0.968 -0.7101 -1.0592  1.0622
15695TIP3   OH268499   2.994   2.667   5.689 -0.3490 -0.5026  0.3839
15695TIP3    H168500   2.917   2.640   5.739  0.5142 -1.1247  1.4282
15695TIP3    H268501   3.044   2.722   5.749  1.0594 -1.8332  0.5026
15696TIP3   OH268502   5.316   6.289   2.339 -0.2213 -0.3630  0.3247
15696TIP3    H168503   5.333   6.234   2.415  1.0274  0.1028  0.4152
15696TIP3    H268504   5.402   6.300   2.298 -0.6038  0.7152 -0.2340
15697TIP3   OH268505   0.466   6.700  13.674  0.7055 -0.1781  0.5442
15697TIP3    H168506   0.383   6.655  13.693  0.8247 -0.7930 -0.3566
15697TIP3    H268507   0.439   6.788  13.645  0.4501  0.1631  1.7276
15698TIP3   OH268508   4.413   0.270  13.626  0.8926 -0.1086  0.1343
15698TIP3    H168509   4.356   0.198  13.601 -1.1991  1.0355  1.2665
15698TIP3    H268510   4.354   0.334  13.667  2.5916  2.3154 -0.9360
15699TIP3   OH268511   2.791   3.603  16.083  0.2014  0.1671 -0.7628
15699TIP3    H168512   2.713   3.649  16.051 -0.4291  0.1216  0.6363
15699TIP3    H268513   2.760   3.516  16.107  0.4298  0.4911  0.8129
15700TIP3   OH268514   1.549   2.431  12.797 -0.1916  0.0373 -0.0259
15700TIP3    H168515   1.627   2.402  12.748 -0.2006  0.5640 -0.3574
15700TIP3    H268516   1.486   2.361  12.784 -0.2766  0.2772 -0.9839
15701TIP3   OH268517   4.864   0.739   3.221 -0.1376  0.1242  0.3548
15701TIP3    H168518   4.920   0.703   3.152 -2.0493 -1.6033 -0.3913
15701TIP3    H268519   4.828   0.819   3.183 -0.5185 -0.3664 -0.3252
15702TIP3   OH268520   3.371   2.136   5.652  0.2756 -0.2233  0.6915
15702TIP3    H168521   3.391   2.229   5.645  0.3706 -0.2226  0.9439
15702TIP3    H268522   3.401   2.112   5.740 -0.7528 -0.2464  1.0491
15703TIP3   OH268523   0.681   5.149  12.373  0.1443 -0.0964 -0.1623
15703TIP3    H168524   0.727   5.230  12.353 -1.0280  0.9664  1.2075
15703TIP3    H268525   0.595   5.159  12.331 -0.9085  0.5082  1.9426
15704TIP3   OH268526   5.266   0.575   2.343  0.1455  0.1175 -0.0426
15704TIP3    H168527   5.223   0.574   2.428  1.4122 -0.4124  0.6259
15704TIP3    H268528   5.332   0.644   2.350 -0.0622  0.3944 -0.7637
15705TIP3   OH268529   5.651   4.697   5.957 -0.2759  0.2132 -0.0136
15705TIP3    H168530   5.665   4.605   5.978 -0.8591  0.3557  1.1300
15705TIP3    H268531   5.598   4.730   6.030 -2.2297  0.8511 -1.6164
15706TIP3   OH268532   1.606   0.922  13.430  0.3732 -0.2498 -0.0990
15706TIP3    H168533   1.564   1.004  13.455  0.6232 -0.1467 -0.0184
15706TIP3    H268534   1.533   0.862  13.413  0.1450  0.4698 -1.8322
15707TIP3   OH268535   6.421   2.775   1.081 -0.4519  0.1666  0.6829
15707TIP3    H168536   6.403   2.869   1.071  0.1136  0.2321  0.2254
15707TIP3    H268537   6.516   2.767   1.069 -0.4660 -0.4416  0.9263
15708TIP3   OH268538   0.893   2.960   2.431 -0.3096  0.6431  0.1044
15708TIP3    H168539   0.963   3.025   2.430 -0.2575  0.5838 -0.5076
15708TIP3    H268540   0.929   2.886   2.481  0.7093 -0.0678 -1.6081
15709TIP3   OH268541   4.241   1.908   1.277 -0.3742 -0.4538 -0.1082
15709TIP3    H168542   4.302   1.935   1.208  0.0519  0.2156  0.5100
15709TIP3    H268543   4.237   1.812   1.269  0.9245 -0.5336 -0.0421
15710TIP3   OH268544   6.686   3.717   0.567 -0.3563  0.1543  0.0693
15710TIP3    H168545   6.611   3.769   0.595 -0.0193  0.0909  1.1406
15710TIP3    H268546   6.668   3.697   0.475 -1.2499  0.8241  0.0793
15711TIP3   OH268547   6.499   6.147  16.503  0.6980  0.2367  0.2272
15711TIP3    H168548   6.534   6.110  16.422 -2.7562 -1.1530 -0.8110
15711TIP3    H268549   6.548   6.103  16.572  0.9325 -1.6753 -1.0880
15712TIP3   OH268550   5.483   3.873  11.678 -0.9829 -0.2948  0.0298
15712TIP3    H168551   5.485   3.892  11.584 -0.5488 -1.3991 -0.2035
15712TIP3    H268552   5.393   3.890  11.704 -0.9670  0.5855 -0.4594
15713TIP3   OH268553   2.290   5.833  14.718 -0.1220  0.1012  0.3906
15713TIP3    H168554   2.347   5.900  14.681  1.2766 -1.1585  0.1630
15713TIP3    H268555   2.228   5.881  14.773 -0.2119  1.7065 -1.0416
15714TIP3   OH268556   4.501   1.217  17.034 -1.1096  0.2137 -0.2507
15714TIP3    H168557   4.432   1.217  16.968 -0.9501  1.6064 -0.4318
15714TIP3    H268558   4.572   1.268  16.996  1.0511 -3.0096 -1.0390
15715TIP3   OH268559   6.537   4.484  16.840  0.2064  0.8548  0.5849
15715TIP3    H168560   6.483   4.541  16.785 -0.9772 -0.4994  0.2867
15715TIP3    H268561   6.475   4.442  16.899  1.2672  1.0840  1.9203
15716TIP3   OH268562   1.023   1.479   0.159 -0.3065  0.4461  0.0224
15716TIP3    H168563   0.965   1.541   0.202 -2.1202 -0.7541 -0.5889
15716TIP3    H268564   0.990   1.472   0.070  1.6188  0.7091 -0.7574
15717TIP3   OH268565   2.286   0.227  14.607  0.3413  0.4456 -0.1917
15717TIP3    H168566   2.282   0.286  14.532  1.6466  0.0728 -0.5734
15717TIP3    H268567   2.320   0.145  14.572 -1.2415 -0.4915  0.3850
15718TIP3   OH268568   5.885   0.729   3.362  0.2499 -0.0429 -0.5225
15718TIP3    H168569   5.956   0.761   3.418 -0.5236  1.0188 -0.1070
15718TIP3    H268570   5.927   0.664   3.305  1.7457  1.1333 -0.8444
15719TIP3   OH268571   0.804   5.126   1.913  0.1310  0.6436  0.0295
15719TIP3    H168572   0.779   5.156   1.826  0.1474  0.7852  0.0746
15719TIP3    H268573   0.888   5.168   1.930  0.3025  0.3337 -0.0345
15720TIP3   OH268574   2.623   4.828  13.219 -0.1240 -0.1073 -0.5223
15720TIP3    H168575   2.560   4.822  13.147 -0.4041 -0.5867 -0.2398
15720TIP3    H268576   2.614   4.745  13.266 -1.1958  0.8744  1.1076
15721TIP3   OH268577   5.181   2.958   4.445 -0.3269  0.4858  0.3264
15721TIP3    H168578   5.197   3.026   4.511  1.1985  2.5596 -1.9775
15721TIP3    H268579   5.268   2.927   4.421 -0.7768  0.3409 -1.2292
15722TIP3   OH268580   3.785   1.409   1.515  0.8835 -0.7891 -0.1343
15722TIP3    H168581   3.765   1.316   1.500 -0.1173 -0.8848  1.5659
15722TIP3    H268582   3.721   1.456   1.462  0.9598 -1.0704 -0.4795
15723TIP3   OH268583   2.816   2.503  12.094  0.1240  0.2358  0.0316
15723TIP3    H168584   2.818   2.589  12.052 -1.1314  0.0750 -0.4097
15723TIP3    H268585   2.837   2.442  12.024 -1.2507  0.0232 -0.2147
15724TIP3   OH268586   3.638   4.927   2.809  0.1976  0.5550 -0.6494
15724TIP3    H168587   3.718   4.885   2.840 -0.0052  1.1143  0.7253
15724TIP3    H268588   3.655   5.021   2.815 -0.3321  0.6765 -0.9525
15725TIP3   OH268589   6.273   6.394  14.692 -0.8858 -0.0241  0.1471
15725TIP3    H168590   6.283   6.445  14.773  0.4848 -0.2839  0.1732
15725TIP3    H268591   6.342   6.428  14.635 -2.4357  0.8239 -1.2938
15726TIP3   OH268592   4.676   5.751  15.254  0.5920  0.0177 -0.3884
15726TIP3    H168593   4.730   5.721  15.182  0.9632  1.7674 -0.8907
15726TIP3    H268594   4.691   5.845  15.258 -1.5509  0.4050  0.1810
15727TIP3   OH268595   4.569   1.307   3.428  0.4307  0.4159 -0.2605
15727TIP3    H168596   4.652   1.344   3.399  1.6356 -2.3995 -0.7934
15727TIP3    H268597   4.543   1.249   3.356  0.7240 -2.6687  1.9039
15728TIP3   OH268598   1.213   0.339  14.349  0.5876 -0.1435 -0.0069
15728TIP3    H168599   1.128   0.381  14.341 -0.3185 -1.4001  2.1259
15728TIP3    H268600   1.266   0.399  14.402  0.3324 -0.2678  0.3935
15729TIP3   OH268601   5.795   6.477   2.248 -0.2461  1.0003 -0.3468
15729TIP3    H168602   5.789   6.485   2.343 -2.2233 -0.3959 -0.2780
15729TIP3    H268603   5.778   6.566   2.215  0.6535  1.5362  0.5862
15730TIP3   OH268604   2.082   6.672   1.724 -0.6120 -0.3906 -0.0904
15730TIP3    H168605   2.072   6.650   1.817 -1.6333  0.0655 -0.0739
15730TIP3    H268606   2.067   6.766   1.720  1.0921 -0.1139 -0.5082
15731TIP3   OH268607   6.541   4.885   3.103  0.0406 -0.6234  0.1585
15731TIP3    H168608   6.551   4.861   3.010  1.4522  0.9519 -0.1586
15731TIP3    H268609   6.495   4.969   3.101 -1.8889 -1.5997  1.0508
15732TIP3   OH268610   0.057   3.747  15.446 -0.0452 -0.7174 -0.1824
15732TIP3    H168611   0.009   3.763  15.527  0.1744 -1.6135  0.1352
15732TIP3    H268612   0.147   3.734  15.474  0.1764 -0.2307 -0.6575
15733TIP3   OH268613   5.784   6.093   3.745 -0.3802 -0.3130 -0.5575
15733TIP3    H168614   5.803   6.016   3.798 -1.9992 -0.5663 -0.2836
15733TIP3    H268615   5.726   6.061   3.676 -0.1903  0.4672 -1.0978
15734TIP3   OH268616   0.647   3.221   0.156 -0.1067 -0.6860 -0.2063
15734TIP3    H168617   0.557   3.237   0.129 -0.0036  0.8850  0.2915
15734TIP3    H268618   0.691   3.305   0.144  1.2588 -1.3754 -0.2583
15735TIP3   OH268619   4.344   5.224   2.404  0.1576 -0.3080  0.2021
15735TIP3    H168620   4.293   5.301   2.377 -1.0992 -1.0398  0.3956
15735TIP3    H268621   4.413   5.217   2.338 -0.7994 -0.0490 -0.8737
15736TIP3   OH268622   3.850   5.829  10.858 -0.0775  0.0305 -0.3173
15736TIP3    H168623   3.858   5.914  10.814  1.0529  0.4973  0.7297
15736TIP3    H268624   3.922   5.777  10.822  0.7840  0.3766  0.8128
15737TIP3   OH268625   3.612   1.030   2.117  0.5378  0.5684 -0.4096
15737TIP3    H168626   3.703   1.039   2.144 -0.2065  0.3467  2.5826
15737TIP3    H268627   3.562   1.053   2.196 -2.0405  1.7980 -2.2591
15738TIP3   OH268628   6.032   3.335  16.467  0.3713  0.0480 -0.8260
15738TIP3    H168629   6.028   3.273  16.540  0.6972 -0.5512 -1.3136
15738TIP3    H268630   6.124   3.362  16.464 -0.0110  1.6215  0.2505
15739TIP3   OH268631   5.254   4.350   2.092 -0.1750  0.0522  0.1853
15739TIP3    H168632   5.195   4.403   2.040  1.6083  1.4602 -0.5293
15739TIP3    H268633   5.229   4.366   2.183  0.3408  2.2048 -0.0125
15740TIP3   OH268634   3.792   5.787  14.729 -0.1553  0.2643 -0.0026
15740TIP3    H168635   3.827   5.826  14.809 -1.1517  1.4177 -0.1007
15740TIP3    H268636   3.714   5.740  14.756  0.3109 -0.5704 -0.0889
15741TIP3   OH268637   5.214   2.007  15.826 -0.2697 -0.1850  0.0003
15741TIP3    H168638   5.286   1.952  15.793 -0.4994 -0.2586 -0.3871
15741TIP3    H268639   5.242   2.032  15.914  0.7524  0.7315 -0.5600
15742TIP3   OH268640   6.082   6.557  12.446 -0.4081 -0.4454 -0.4010
15742TIP3    H168641   6.162   6.579  12.398 -1.5278  1.3056 -1.6094
15742TIP3    H268642   6.069   6.464  12.428  1.9332 -1.0724  0.8007
15743TIP3   OH268643   0.200   5.007   5.501 -0.1066 -0.1122 -0.3717
15743TIP3    H168644   0.274   4.947   5.488 -0.1874  0.1170 -2.1325
15743TIP3    H268645   0.182   5.042   5.414 -1.6915  0.5620  0.1905
15744TIP3   OH268646   3.685   1.699   5.288 -0.4761 -0.6341 -0.3153
15744TIP3    H168647   3.732   1.749   5.222  0.7878 -1.3240  0.0390
15744TIP3    H268648   3.730   1.720   5.370  0.2423 -2.5004 -0.1942
15745TIP3   OH268649   4.482   4.703  11.025 -0.0205 -0.0131  0.1822
15745TIP3    H168650   4.524   4.623  11.056 -0.3637 -0.2311  0.0815
15745TIP3    H268651   4.551   4.749  10.977  0.4792  0.2523  1.1305
15746TIP3   OH268652   0.954   6.401   1.772 -0.1890 -0.4784  0.0914
15746TIP3    H168653   0.869   6.365   1.744 -0.2325 -1.0109  0.8745
15746TIP3    H268654   1.011   6.389   1.697 -0.1784 -2.2950  0.3488
15747TIP3   OH268655   0.064   2.917  11.221 -0.5956 -0.7845  0.3797
15747TIP3    H168656   0.127   2.954  11.159 -2.1046  1.1107 -0.0997
15747TIP3    H268657   0.046   2.987  11.283 -3.1603 -0.7606 -0.2500
15748TIP3   OH268658   6.345   6.610   5.287 -0.4909 -0.2581 -0.2586
15748TIP3    H168659   6.418   6.622   5.347  0.7121 -1.1684 -1.4628
15748TIP3    H268660   6.281   6.559   5.336  0.1681 -0.3980  0.4634
15749TIP3   OH268661   5.785   4.368   6.756  0.4192 -0.8513  0.1408
15749TIP3    H168662   5.791   4.419   6.837  1.7733 -0.2063 -0.3286
15749TIP3    H268663   5.744   4.427   6.693  2.9768  0.1571 -0.7103
15750TIP3   OH268664   3.143   2.243   0.944  0.7294 -0.0369 -0.0058
15750TIP3    H168665   3.211   2.309   0.959 -0.3445  1.2613 -0.6127
15750TIP3    H268666   3.097   2.274   0.866 -0.2864 -1.1193  0.1350
15751TIP3   OH268667   5.256   1.081  11.313 -0.1865 -0.3006  0.3456
15751TIP3    H168668   5.326   1.017  11.300 -0.9680 -0.9801 -0.6460
15751TIP3    H268669   5.182   1.031  11.345 -0.5318  0.2551  0.4319
15752TIP3   OH268670   2.427   3.665   0.998  0.4571  0.0443  0.5298
15752TIP3    H168671   2.502   3.637   1.051  1.1854  1.1933  0.1428
15752TIP3    H268672   2.437   3.760   0.992  0.3337 -0.0439 -1.5599
15753TIP3   OH268673   4.560   6.452  14.111 -0.1588  0.6293  0.6736
15753TIP3    H168674   4.544   6.522  14.048  2.2045 -1.3771 -2.4958
15753TIP3    H268675   4.626   6.487  14.170 -0.2773  1.6562  0.2128
15754TIP3   OH268676   5.205   3.273  15.097  0.1427 -0.0802 -0.3392
15754TIP3    H168677   5.233   3.192  15.139  0.3710  0.5640  0.8090
15754TIP3    H268678   5.127   3.249  15.047  1.3128 -1.3958 -1.6128
15755TIP3   OH268679   4.411   5.809  17.155 -0.9795 -0.4148 -0.0213
15755TIP3    H168680   4.388   5.752  17.229 -1.4832  1.1702  1.0960
15755TIP3    H268681   4.505   5.823  17.164 -1.1872  0.5293  0.9246
15756TIP3   OH268682   2.527   5.956   4.171  0.3760 -0.0644 -0.3858
15756TIP3    H168683   2.518   5.869   4.133 -0.0494  0.0859 -0.6305
15756TIP3    H268684   2.470   6.012   4.118  0.1448  0.2377  0.1722
15757TIP3   OH268685   5.696   2.206   1.776  0.1757  0.3469 -0.7317
15757TIP3    H168686   5.766   2.267   1.802  1.5010 -1.6866  0.7153
15757TIP3    H268687   5.709   2.195   1.682  0.4976  1.5286 -0.8531
15758TIP3   OH268688   2.414   0.090   0.964  0.1040  0.3024  0.0645
15758TIP3    H168689   2.450   0.093   0.875  1.3887 -1.2297  0.4820
15758TIP3    H268690   2.401  -0.004   0.981 -2.5929  0.6897  0.5810
15759TIP3   OH268691   0.105   3.581   1.596 -0.1067  0.2476 -0.1408
15759TIP3    H168692   0.077   3.491   1.610 -0.1734  0.1371 -0.9126
15759TIP3    H268693   0.200   3.576   1.593 -0.1250  0.1253 -0.6323
15760TIP3   OH268694   2.281   2.841   0.769  0.1870 -0.2505  0.0834
15760TIP3    H168695   2.274   2.808   0.858  2.0097 -1.8227 -0.2686
15760TIP3    H268696   2.359   2.797   0.733 -1.2741 -0.8205 -2.7322
15761TIP3   OH268697   5.891   1.478   0.684  0.7059 -0.0675  0.0859
15761TIP3    H168698   5.877   1.539   0.612  1.2828  0.7403  0.6361
15761TIP3    H268699   5.934   1.531   0.751 -0.8029 -0.5121  1.4631
15762TIP3   OH268700   2.895   6.604   5.683 -0.5631  0.6992 -0.2813
15762TIP3    H168701   2.892   6.551   5.604 -0.3675  0.7989 -0.3556
15762TIP3    H268702   2.967   6.665   5.668 -0.0901  0.2762  0.2553
15763TIP3   OH268703   3.463   6.770  14.305 -0.1684  0.3206  0.6062
15763TIP3    H168704   3.416   6.775  14.221  0.2825  0.1874  0.3441
15763TIP3    H268705   3.548   6.809  14.287  0.6131 -1.3225  0.5144
15764TIP3   OH268706   5.747   3.374  11.533 -0.3287  0.2875  0.7511
15764TIP3    H168707   5.661   3.332  11.537 -0.8858  1.2385 -0.6692
15764TIP3    H268708   5.728   3.468  11.533  0.6112  0.5120 -0.7933
15765TIP3   OH268709   1.717   4.520  11.398 -0.3165  0.3445  0.0058
15765TIP3    H168710   1.702   4.537  11.306 -0.2956 -0.4080 -0.1437
15765TIP3    H268711   1.808   4.545  11.413 -0.5189  1.1117 -0.0134
15766TIP3   OH268712   1.858   0.699  13.811 -0.0357  0.8192  0.5164
15766TIP3    H168713   1.936   0.646  13.830  0.6150  2.5122  3.1375
15766TIP3    H268714   1.886   0.760  13.743 -0.9244 -2.2300 -2.8915
15767TIP3   OH268715   5.450   3.595  12.132 -0.5939 -0.2114  0.1758
15767TIP3    H168716   5.541   3.622  12.123 -0.2666 -0.9247  1.1351
15767TIP3    H268717   5.454   3.513  12.181 -1.8680  1.1175  2.7647
15768TIP3   OH268718   2.691   4.359   0.584 -0.2222  0.3371 -0.1217
15768TIP3    H168719   2.701   4.390   0.674  0.7032  2.7960 -0.9908
15768TIP3    H268720   2.604   4.391   0.558  0.1458  1.0046 -0.5634
15769TIP3   OH268721   6.403   3.592  15.689 -0.1076 -0.2524 -0.0077
15769TIP3    H168722   6.328   3.625  15.639  0.6754  1.2915 -0.2452
15769TIP3    H268723   6.479   3.620  15.639  0.6599 -2.1239  0.0374
15770TIP3   OH268724   0.852   0.842  15.934 -0.1308 -0.0976 -0.5123
15770TIP3    H168725   0.908   0.915  15.908 -1.2665  1.0043 -0.0031
15770TIP3    H268726   0.771   0.857  15.886 -1.9680  1.4722  2.6969
15771TIP3   OH268727   0.736   2.711  13.649 -0.2196  0.8221  0.3661
15771TIP3    H168728   0.688   2.685  13.727 -0.5891  1.5339  0.3841
15771TIP3    H268729   0.814   2.655  13.649  0.0888  1.2260  1.5596
15772TIP3   OH268730   0.255   4.154   0.484 -0.9407  0.4462  0.3857
15772TIP3    H168731   0.248   4.082   0.420  3.2409  0.5256 -0.4539
15772TIP3    H268732   0.220   4.230   0.438  0.1034  0.0689 -1.1368
15773TIP3   OH268733   0.175   0.396   3.772 -0.2828  0.0226 -0.2149
15773TIP3    H168734   0.108   0.436   3.827 -0.4432  1.7915 -1.6377
15773TIP3    H268735   0.168   0.302   3.791 -0.9649  0.4656  2.0241
15774TIP3   OH268736   3.367   1.234   2.649 -0.1489 -0.2130 -0.5155
15774TIP3    H168737   3.344   1.326   2.642  1.0663  0.0750 -0.9077
15774TIP3    H268738   3.307   1.189   2.589 -0.4819  0.3734 -0.6187
15775TIP3   OH268739   1.176   4.519   0.571  0.0961 -0.4834  0.1172
15775TIP3    H168740   1.246   4.455   0.560  0.2011 -0.1815 -1.0986
15775TIP3    H268741   1.183   4.576   0.494  0.4443  1.4238  1.4711
15776TIP3   OH268742   2.949   0.042   2.164  0.0657 -0.1802 -0.1020
15776TIP3    H168743   2.932   0.135   2.176 -1.7978 -0.5773  0.6454
15776TIP3    H268744   2.990   0.015   2.246  2.2158  0.2789 -0.9653
15777TIP3   OH268745   3.788   0.982  13.996  0.2826 -0.3262  0.1192
15777TIP3    H168746   3.731   0.951  13.925 -0.0703 -4.1770  1.8291
15777TIP3    H268747   3.734   1.046  14.043 -0.1017  1.0037 -1.9680
15778TIP3   OH268748   4.085   1.734   5.626 -0.2553  0.1290  0.1486
15778TIP3    H168749   4.147   1.702   5.560  0.4488 -1.5824  1.5617
15778TIP3    H268750   4.131   1.807   5.669  0.8053 -1.0912  1.1477
15779TIP3   OH268751   4.664   5.806  10.758 -0.1584  0.5932  0.0292
15779TIP3    H168752   4.748   5.850  10.745  0.8473 -1.2445 -0.0133
15779TIP3    H268753   4.674   5.722  10.714 -2.0344  0.3183  0.0397
15780TIP3   OH268754   2.410   2.741  12.663  0.3569  0.1978 -0.0387
15780TIP3    H168755   2.407   2.647  12.680  0.8190 -0.0297 -1.1726
15780TIP3    H268756   2.422   2.749  12.568 -1.2941  1.4056 -0.1976
15781TIP3   OH268757   0.111   2.739   0.544  0.7246  0.2651  1.0249
15781TIP3    H168758   0.132   2.675   0.476 -2.7652 -1.2612  1.1996
15781TIP3    H268759   0.128   2.824   0.503 -0.5849 -0.6289 -1.5666
15782TIP3   OH268760   2.309   2.146  15.792 -0.0760  0.2220 -0.1009
15782TIP3    H168761   2.361   2.076  15.830 -0.4990  0.2960  0.6387
15782TIP3    H268762   2.366   2.186  15.727 -0.4092 -1.9067 -1.8081
15783TIP3   OH268763   6.276   1.079   0.729  0.4095 -0.2104 -0.2702
15783TIP3    H168764   6.217   1.154   0.718 -0.6141 -0.5541  2.1351
15783TIP3    H268765   6.224   1.004   0.698 -0.3918 -0.4671  1.5385
15784TIP3   OH268766   1.087   5.272  16.477  0.2498 -0.3869 -0.5755
15784TIP3    H168767   0.997   5.252  16.504  0.8646 -0.9227  1.2040
15784TIP3    H268768   1.082   5.282  16.382 -1.6421 -0.6547 -0.5391
15785TIP3   OH268769   0.915   1.588  13.078  0.2661  0.3207 -0.2925
15785TIP3    H168770   0.970   1.665  13.094 -1.6698  1.8703 -0.7736
15785TIP3    H268771   0.942   1.557  12.991  1.0418  0.4444 -0.1014
15786TIP3   OH268772   6.777   5.781   0.134  0.2474  0.2112  0.0747
15786TIP3    H168773   6.785   5.831   0.053  2.2418 -0.2137 -0.0264
15786TIP3    H268774   6.710   5.714   0.115 -1.3226  1.7963 -0.2775
15787TIP3   OH268775   1.423   4.372  14.353 -0.1900 -0.0660  0.0345
15787TIP3    H168776   1.430   4.382  14.258  0.4882  1.5313  0.2226
15787TIP3    H268777   1.514   4.364  14.382 -0.2682  1.2155  0.6931
15788TIP3   OH268778   3.956   4.557   5.285  0.0467 -0.0099  0.3914
15788TIP3    H168779   3.929   4.577   5.195 -0.0939  1.0265  0.6451
15788TIP3    H268780   3.924   4.468   5.301 -3.0072  0.9985  0.5598
15789TIP3   OH268781   6.101   6.302   2.138  0.2872  0.0309 -0.0985
15789TIP3    H168782   6.050   6.372   2.180 -0.8751 -1.0555  0.3812
15789TIP3    H268783   6.041   6.265   2.073  0.9470 -0.4131 -0.4616
15790TIP3   OH268784   3.949   1.449   2.989 -0.2253 -0.0823 -0.1511
15790TIP3    H168785   3.965   1.393   3.065 -0.8902  0.6287  0.5205
15790TIP3    H268786   4.008   1.414   2.921 -0.2082 -1.2244  0.4270
15791TIP3   OH268787   0.322   1.958  16.970  0.2555 -0.1007 -0.2161
15791TIP3    H168788   0.315   1.919  16.883  0.8401  1.6838 -1.1118
15791TIP3    H268789   0.416   1.968  16.984  0.1718 -0.5109  0.6991
15792TIP3   OH268790   0.622   6.333  16.418 -0.2260 -0.2780  0.0296
15792TIP3    H168791   0.653   6.268  16.481  1.8074  0.7090  0.1295
15792TIP3    H268792   0.565   6.391  16.469 -0.5672 -0.9015  0.3659
15793TIP3   OH268793   2.146   1.541   2.448  0.1863  0.0683 -0.0964
15793TIP3    H168794   2.069   1.554   2.393 -0.8055  0.5591  1.3351
15793TIP3    H268795   2.187   1.461   2.415 -1.6658 -0.9187 -0.0984
15794TIP3   OH268796   0.709   5.214  16.967 -0.2328 -0.2477  0.2551
15794TIP3    H168797   0.620   5.212  16.931 -0.5689  2.7745  0.6412
15794TIP3    H268798   0.700   5.178  17.055 -1.2106  0.5060  0.4814
15795TIP3   OH268799   2.118   5.507  15.699 -0.0484  0.0445 -0.8515
15795TIP3    H168800   2.185   5.570  15.671  1.0656 -0.2533  0.9773
15795TIP3    H268801   2.112   5.518  15.794  0.5059 -2.8650 -0.3738
15796TIP3   OH268802   5.889   1.478  12.542  0.5850 -0.3313  0.4162
15796TIP3    H168803   5.835   1.557  12.551 -0.4790 -1.0094  0.2579
15796TIP3    H268804   5.852   1.433  12.466  0.4112 -1.5499  1.1917
15797TIP3   OH268805   0.640   5.388  14.616  0.5947  0.2830 -0.1362
15797TIP3    H168806   0.724   5.428  14.640  1.2096 -0.1966 -1.3939
15797TIP3    H268807   0.651   5.296  14.638  0.7988  0.0259 -1.2802
15798TIP3   OH268808   0.560   2.063   0.864  0.6407 -0.0876  0.6182
15798TIP3    H168809   0.650   2.039   0.887  0.8713 -1.4073 -1.4267
15798TIP3    H268810   0.507   1.992   0.902  0.5981 -0.0195  0.6859
15799TIP3   OH268811   3.118   5.918   1.932  0.2374  0.0162 -0.3103
15799TIP3    H168812   3.179   5.990   1.914 -0.2477  0.3700 -0.5581
15799TIP3    H268813   3.142   5.850   1.869  0.4346  0.1132 -0.3420
15800TIP3   OH268814   4.667   2.076  15.726  0.1095  0.6203  0.1894
15800TIP3    H168815   4.649   2.080  15.632  1.2087  1.2697 -0.0116
15800TIP3    H268816   4.609   2.142  15.764 -1.5229 -0.7600  0.1891
15801TIP3   OH268817   6.461   6.269   0.206 -0.0080  0.3656 -0.9190
15801TIP3    H168818   6.445   6.291   0.114 -0.8003 -0.5401 -1.0200
15801TIP3    H268819   6.462   6.174   0.208  1.6970  0.3663 -0.2438
15802TIP3   OH268820   3.901   5.029  13.822 -0.3691  0.3372  0.3979
15802TIP3    H168821   3.936   5.116  13.843 -1.0254  0.5745  0.5195
15802TIP3    H268822   3.808   5.044  13.804 -0.6232 -0.4291  1.0396
15803TIP3   OH268823   5.339   4.777   2.977  0.3579 -0.4750 -0.6180
15803TIP3    H168824   5.394   4.754   3.052 -2.3971 -2.3088  0.9838
15803TIP3    H268825   5.345   4.873   2.972  1.5178 -0.3986  1.1985
15804TIP3   OH268826   2.030   4.386  16.975  0.3231 -0.4546  0.1427
15804TIP3    H168827   2.057   4.329  17.046 -2.4589 -1.4703  0.5358
15804TIP3    H268828   2.012   4.471  17.016  0.9878 -0.3430  0.2070
15805TIP3   OH268829   2.041   2.759   4.431 -0.0896  0.0940 -0.0431
15805TIP3    H168830   2.016   2.811   4.355  0.6756  0.2854 -0.1726
15805TIP3    H268831   1.969   2.771   4.493 -1.1591 -0.7742 -1.0651
15806TIP3   OH268832   6.404   4.387   4.644 -0.3357  0.0292  0.0148
15806TIP3    H168833   6.362   4.473   4.650 -0.3482  0.0802 -0.6618
15806TIP3    H268834   6.480   4.393   4.702  1.3405  1.5193 -2.1463
15807TIP3   OH268835   4.481   1.010  10.332  0.4045  0.1283 -0.1680
15807TIP3    H168836   4.566   1.052  10.344  0.6579 -0.1792 -0.8129
15807TIP3    H268837   4.418   1.078  10.354  0.8140  0.3224  0.4354
15808TIP3   OH268838   1.475   1.456  12.707 -0.1763 -0.1225 -0.3320
15808TIP3    H168839   1.532   1.514  12.756  0.7096 -0.0235 -1.4483
15808TIP3    H268840   1.532   1.416  12.641 -1.1730 -0.8136 -0.8006
15809TIP3   OH268841   0.481   2.346  14.300  0.5136  0.0621  0.0869
15809TIP3    H168842   0.425   2.300  14.362  1.4840 -1.0605  0.1623
15809TIP3    H268843   0.519   2.418  14.350 -0.0822  0.2267  0.3042
15810TIP3   OH268844   2.626   1.782   3.903 -0.8003  0.9222  0.2044
15810TIP3    H168845   2.643   1.854   3.963 -3.2404 -0.1017  2.3157
15810TIP3    H268846   2.540   1.801   3.865 -2.0925 -1.3166  1.7362
15811TIP3   OH268847   1.612   6.351   0.689 -0.3807  0.2970 -0.8186
15811TIP3    H168848   1.622   6.443   0.713  1.6356 -0.2778  0.8389
15811TIP3    H268849   1.686   6.332   0.632  0.6870 -0.8471  0.8479
15812TIP3   OH268850   1.972   2.923   1.080 -0.1082 -0.9703 -0.3210
15812TIP3    H168851   1.987   2.832   1.056 -1.5738 -1.9586  2.1661
15812TIP3    H268852   1.878   2.936   1.070 -0.1497 -0.2316  0.8095
15813TIP3   OH268853   0.976   3.032  11.190  0.3255 -0.0018  0.0004
15813TIP3    H168854   1.031   3.050  11.114 -0.5763  1.5903 -0.3198
15813TIP3    H268855   0.924   2.956  11.164 -0.0202  0.5611 -1.0260
15814TIP3   OH268856   1.073   4.103  14.992  1.2241 -0.1633 -0.5059
15814TIP3    H168857   1.101   4.041  14.925 -0.6851 -2.3467  0.5619
15814TIP3    H268858   1.003   4.057  15.039 -0.7229  3.0265  0.0183
15815TIP3   OH268859   5.041   0.751   5.467  0.5737 -0.0247  1.2819
15815TIP3    H168860   4.994   0.672   5.493  0.8714 -0.6022  0.1313
15815TIP3    H268861   5.052   0.743   5.373 -0.4027  1.9514  0.9380
15816TIP3   OH268862   6.057   1.932  12.871  0.6340 -0.4308 -0.3468
15816TIP3    H168863   6.091   1.884  12.946  2.2664  2.7571  1.1843
15816TIP3    H268864   6.132   1.982  12.838 -0.6995  0.4001 -2.3512
15817TIP3   OH268865   1.487   6.150   5.356  0.6110 -0.2507 -0.0937
15817TIP3    H168866   1.521   6.207   5.425  0.5087  0.7497 -0.8479
15817TIP3    H268867   1.396   6.133   5.381  0.8378 -0.6585  0.4851
15818TIP3   OH268868   1.760   0.605   0.643  0.5438  0.1291  1.1223
15818TIP3    H168869   1.745   0.600   0.548 -0.1943  1.4158  1.1600
15818TIP3    H268870   1.831   0.542   0.659  0.2399 -0.5790 -0.1812
15819TIP3   OH268871   2.462   2.026   2.823 -0.0878  0.2093  0.5987
15819TIP3    H168872   2.500   2.077   2.751 -0.1076  0.3274  0.6719
15819TIP3    H268873   2.370   2.051   2.825  0.0686  0.7726  1.1455
15820TIP3   OH268874   4.381   4.024  13.598  0.2515 -0.0251  0.0271
15820TIP3    H168875   4.363   3.951  13.658 -3.6837  1.1663  0.6407
15820TIP3    H268876   4.464   4.060  13.628  1.8889 -3.6086  0.2699
15821TIP3   OH268877   1.218   2.551   0.647  0.0907 -0.6065 -0.4335
15821TIP3    H168878   1.273   2.496   0.590  1.0604 -0.3652  0.2371
15821TIP3    H268879   1.257   2.638   0.640 -1.4607  0.0423 -1.5197
15822TIP3   OH268880   4.894   5.376  12.164 -0.0613 -0.0547  0.4654
15822TIP3    H168881   4.814   5.407  12.123  0.4192 -0.1130 -0.5619
15822TIP3    H268882   4.889   5.280  12.156  1.6486 -0.0164 -2.8156
15823TIP3   OH268883   5.600   2.804  11.258  0.2871 -0.4125 -0.2362
15823TIP3    H168884   5.614   2.738  11.190 -1.1138 -0.6982 -0.2730
15823TIP3    H268885   5.686   2.844  11.270  0.6105 -0.4459 -2.0715
15824TIP3   OH268886   0.270   1.961   1.680  0.0223 -0.3055 -0.2175
15824TIP3    H168887   0.279   2.056   1.693  2.2873 -0.5354  0.2853
15824TIP3    H268888   0.193   1.952   1.623 -0.1402  1.8317 -0.4343
15825TIP3   OH268889   0.328   3.703  14.987 -0.1137  0.2570 -0.0075
15825TIP3    H168890   0.256   3.655  14.945  0.6756 -3.5072  2.4023
15825TIP3    H268891   0.405   3.681  14.935  0.2066 -1.0025  0.9471
15826TIP3   OH268892   5.441   1.575   3.209  0.2231  0.4774  0.0424
15826TIP3    H168893   5.402   1.606   3.127 -2.8501  1.9421  1.8802
15826TIP3    H268894   5.401   1.489   3.223  1.8219 -0.4088 -0.6073
15827TIP3   OH268895   2.285   3.692   1.453  0.5813  0.3681 -0.6868
15827TIP3    H168896   2.227   3.685   1.378 -1.7124  0.0578  1.0023
15827TIP3    H268897   2.326   3.607   1.460 -0.0911  0.0151 -0.9251
15828TIP3   OH268898   1.529   1.594  12.971 -0.1638 -0.4246  0.5371
15828TIP3    H168899   1.550   1.676  12.926  1.7444  0.3344  2.6316
15828TIP3    H268900   1.437   1.604  12.997  0.9586  2.9133  4.1070
15829TIP3   OH268901   4.372   3.096  14.246  0.4068 -0.2639  0.0745
15829TIP3    H168902   4.337   3.159  14.184  0.4776 -0.3220 -0.0269
15829TIP3    H268903   4.316   3.102  14.323  0.1148 -0.4279 -0.1233
15830TIP3   OH268904   5.619   3.544  12.612  0.6653 -0.3650 -0.3311
15830TIP3    H168905   5.594   3.598  12.538  1.2147 -1.0473 -1.0345
15830TIP3    H268906   5.540   3.536  12.665  0.3625  0.4123 -0.6559
15831TIP3   OH268907   0.042   1.623   5.177  0.0143 -0.5675  0.5497
15831TIP3    H168908   0.098   1.694   5.209 -0.0417 -0.1934 -0.1793
15831TIP3    H268909   0.100   1.569   5.124 -0.1904 -0.4845  0.2420
15832TIP3   OH268910   6.659   0.489   4.514 -0.0678 -0.2241  0.4897
15832TIP3    H168911   6.708   0.416   4.476  1.4738  0.4606  1.0679
15832TIP3    H268912   6.588   0.448   4.562 -0.6870 -1.2187 -1.1810
15833TIP3   OH268913   5.095   6.526   4.827  0.1962  0.3914 -0.2302
15833TIP3    H168914   5.050   6.542   4.744 -0.8424 -2.3967 -0.3223
15833TIP3    H268915   5.178   6.486   4.803  0.2792  0.3940  0.0435
15834TIP3   OH268916   0.629   2.150  11.367  0.3403 -0.9931 -0.0978
15834TIP3    H168917   0.667   2.118  11.285  0.5505 -0.6302 -0.1423
15834TIP3    H268918   0.628   2.245  11.357  1.8251 -0.8448  0.9754
15835TIP3   OH268919   3.443   5.524   0.386 -0.0051 -0.6001  0.5921
15835TIP3    H168920   3.444   5.609   0.430 -0.3167 -0.1438 -0.2580
15835TIP3    H268921   3.528   5.485   0.407  0.4652  0.2650  0.3500
15836TIP3   OH268922   5.803   0.796  15.932 -0.1376  0.0021 -0.4155
15836TIP3    H168923   5.853   0.858  15.986 -0.6323 -0.2809  0.3851
15836TIP3    H268924   5.738   0.851  15.887 -0.7799  0.0407  0.5320
15837TIP3   OH268925   6.723   3.857   2.914 -0.4969 -0.4783  0.2359
15837TIP3    H168926   6.737   3.797   2.841 -1.3195  0.5788 -0.8365
15837TIP3    H268927   6.632   3.842   2.940  0.0003 -1.3538  1.5486
15838TIP3   OH268928   6.181   0.189  15.324 -0.1090  0.1088 -0.4315
15838TIP3    H168929   6.219   0.149  15.245  0.0542 -1.2103  0.2901
15838TIP3    H268930   6.206   0.282  15.317 -2.0683  0.5520 -3.0777
15839TIP3   OH268931   5.871   4.855  16.476 -0.5494 -0.1902  0.0079
15839TIP3    H168932   5.908   4.807  16.549 -1.6260 -1.6508 -0.3702
15839TIP3    H268933   5.778   4.831  16.475 -0.9600  1.2748 -0.7013
15840TIP3   OH268934   2.643   0.237   1.020 -0.9218  0.1745 -0.0747
15840TIP3    H168935   2.685   0.240   0.934 -0.0948  0.5159  0.3275
15840TIP3    H268936   2.578   0.167   1.013  1.3028 -2.0300 -0.0433
15841TIP3   OH268937   0.166   2.968  12.069  0.0200 -0.9529  0.0228
15841TIP3    H168938   0.085   2.974  12.120 -0.5182  2.2524 -0.9860
15841TIP3    H268939   0.149   2.898  12.006 -2.3750  0.1617 -0.7054
15842TIP3   OH268940   4.137   1.436   3.283  0.5292 -0.8515 -0.4215
15842TIP3    H168941   4.105   1.522   3.254 -1.0365 -1.4402 -0.5104
15842TIP3    H268942   4.188   1.456   3.362 -1.6556 -0.0192  0.8781
15843TIP3   OH268943   4.106   6.458  13.479  0.2090  0.3815 -0.4127
15843TIP3    H168944   4.126   6.366  13.465  0.4879  0.5765 -1.3434
15843TIP3    H268945   4.068   6.488  13.396  1.0514  1.3468 -0.4715
15844TIP3   OH268946   0.382   2.693  15.166 -0.4052  0.4262 -0.7873
15844TIP3    H168947   0.372   2.701  15.261 -0.2695 -2.4635 -0.4226
15844TIP3    H268948   0.328   2.763  15.130 -0.5216  1.5562  1.3979
15845TIP3   OH268949   5.970   2.824  14.524 -0.0134 -0.1802 -0.1804
15845TIP3    H168950   6.056   2.852  14.554  0.6689 -0.4957 -1.7528
15845TIP3    H268951   5.929   2.786  14.601  2.2023 -2.2622  0.0689
15846TIP3   OH268952   1.139   2.458  11.539 -0.2356  0.2060 -0.4597
15846TIP3    H168953   1.058   2.500  11.566  0.5265  1.9491 -0.7728
15846TIP3    H268954   1.192   2.528  11.501  0.4934 -1.3195 -2.4484
15847TIP3   OH268955   3.603   4.104  12.584  0.5345  0.6318  0.6514
15847TIP3    H168956   3.595   4.147  12.498  2.8150  1.6020  0.8466
15847TIP3    H268957   3.521   4.057  12.595 -0.2267  1.2892 -1.6274
15848TIP3   OH268958   3.793   5.909   2.467 -0.6358  1.6082  0.0127
15848TIP3    H168959   3.768   5.878   2.554  0.3626  0.0506 -0.2123
15848TIP3    H268960   3.769   5.837   2.408  0.3909  1.8577 -0.7512
15849TIP3   OH268961   5.311   2.571   5.380 -0.3192  0.0260 -0.1123
15849TIP3    H168962   5.310   2.509   5.453 -0.4663  0.8915  0.6416
15849TIP3    H268963   5.361   2.646   5.413 -1.1762  0.8194 -0.5547
15850TIP3   OH268964   4.831   2.726   0.835  0.5339 -0.0983  0.6623
15850TIP3    H168965   4.909   2.702   0.885  1.4422 -0.7757 -1.0179
15850TIP3    H268966   4.864   2.783   0.765 -0.7629  1.1451  1.0105
15851TIP3   OH268967   2.801   0.730  16.418  0.1216  0.0438  0.1508
15851TIP3    H168968   2.836   0.659  16.365  0.1282 -0.6345  1.0316
15851TIP3    H268969   2.731   0.769  16.365  0.7100 -0.0366 -0.7010
15852TIP3   OH268970   6.493   2.294  13.714 -0.3035 -0.1644 -0.3029
15852TIP3    H168971   6.525   2.243  13.789 -1.5357 -0.0997  0.2799
15852TIP3    H268972   6.495   2.232  13.641  1.8708  0.0506 -0.4889
15853TIP3   OH268973   2.445   1.086  11.632  0.1643 -0.3335 -0.5612
15853TIP3    H168974   2.442   0.990  11.632  2.1213 -0.4332 -1.2087
15853TIP3    H268975   2.391   1.111  11.707 -0.5522 -1.9247 -0.5006
15854TIP3   OH268976   2.490   0.864   4.863 -0.2623  0.4892 -0.2559
15854TIP3    H168977   2.447   0.936   4.909 -1.4229  0.2877 -0.9872
15854TIP3    H268978   2.419   0.813   4.826  0.5783 -0.5785 -0.4486
15855TIP3   OH268979   5.934   0.828  16.806  0.6134  0.1327 -0.1938
15855TIP3    H168980   5.888   0.744  16.796 -0.7337  0.8693 -0.4571
15855TIP3    H268981   5.955   0.833  16.899  2.1670 -1.2073 -0.4339
15856TIP3   OH268982   1.241   4.261   4.271 -0.3508 -0.2139 -0.2029
15856TIP3    H168983   1.151   4.230   4.274 -0.2745 -0.4319 -0.1428
15856TIP3    H268984   1.241   4.330   4.205 -0.6920  0.2100  0.2383
15857TIP3   OH268985   1.400   6.764   0.206  0.4230 -0.2579  0.4030
15857TIP3    H168986   1.310   6.730   0.206  0.8174 -1.3743  1.7564
15857TIP3    H268987   1.401   6.828   0.277  0.0984  1.5677 -1.1534
15858TIP3   OH268988   5.837   1.965  13.617  0.4136 -0.0211 -0.4919
15858TIP3    H168989   5.800   2.030  13.676  5.4349  2.4041  0.5422
15858TIP3    H268990   5.875   1.899  13.674 -0.8389 -1.5741 -1.3939
15859TIP3   OH268991   1.602   6.681  16.889  0.5354 -0.3757 -0.4516
15859TIP3    H168992   1.682   6.632  16.870  0.3844  0.1530 -2.7636
15859TIP3    H268993   1.531   6.619  16.874  0.4694 -0.4233  0.0686
15860TIP3   OH268994   5.094   1.895  14.202 -0.0110  0.6886 -0.7995
15860TIP3    H168995   5.037   1.825  14.234  1.9196 -1.6353 -2.1387
15860TIP3    H268996   5.162   1.904  14.268  0.0794  0.8760 -0.9152
15861TIP3   OH268997   0.292   1.828  14.748  0.0749 -0.2952  0.1665
15861TIP3    H168998   0.326   1.894  14.808 -0.7599  0.1967  0.1117
15861TIP3    H268999   0.199   1.848  14.740 -0.2698 -1.6950  0.4127
15862TIP3   OH269000   1.535   5.251  12.190  0.2033  0.3451  0.0883
15862TIP3    H169001   1.466   5.190  12.165 -0.1240  0.9683 -0.5906
15862TIP3    H269002   1.607   5.196  12.220 -0.1109 -0.3641 -0.4445
15863TIP3   OH269003   4.881   0.658  10.668 -0.0492  0.1687 -0.1165
15863TIP3    H169004   4.856   0.699  10.585 -0.5867  0.9673  0.4186
15863TIP3    H269005   4.861   0.725  10.734  1.1605 -0.1234  0.5797
15864TIP3   OH269006   5.240   5.258   0.846  0.3765  0.3492 -0.3259
15864TIP3    H169007   5.239   5.354   0.839  1.0792  0.3892  0.0584
15864TIP3    H269008   5.179   5.239   0.917  0.8630  0.5706  0.1578
15865TIP3   OH269009   5.249   2.269  15.692 -1.0530 -0.6485  0.1167
15865TIP3    H169010   5.270   2.260  15.599 -0.0196 -1.9609  0.4331
15865TIP3    H269011   5.201   2.189  15.713 -2.6407  0.3427  0.4026
15866TIP3   OH269012   2.186   0.214   5.780 -0.0320 -0.2160 -0.4734
15866TIP3    H169013   2.189   0.243   5.871  0.5284  1.7069 -1.0624
15866TIP3    H269014   2.203   0.293   5.729  0.5904 -1.4347 -2.2375
15867TIP3   OH269015   2.635   5.106   0.150  0.5588  0.5286 -0.0361
15867TIP3    H169016   2.680   5.137   0.228  6.0500 -1.0680 -2.0538
15867TIP3    H269017   2.672   5.158   0.078  0.2210 -1.8920 -2.1198
15868TIP3   OH269018   1.567   6.705  14.661  0.5895 -0.0504 -0.0685
15868TIP3    H169019   1.489   6.731  14.612  1.3417 -1.4740 -2.1323
15868TIP3    H269020   1.537   6.633  14.717 -0.1983  1.3771  1.4513
15869TIP3   OH269021   2.508   3.538   6.493  0.4555  0.1242  0.3565
15869TIP3    H169022   2.468   3.585   6.420  0.3964  0.8761  0.8671
15869TIP3    H269023   2.452   3.461   6.505 -0.5027  0.8501  0.6695
15870TIP3   OH269024   5.926   0.957   5.749 -0.3463  0.6462  0.1759
15870TIP3    H169025   6.009   0.946   5.795 -0.9754 -0.1806  1.1647
15870TIP3    H269026   5.950   0.972   5.658  0.9195  1.7854  0.6714
15871TIP3   OH269027   3.768   5.505   0.127 -0.2663  0.2028  0.1306
15871TIP3    H169028   3.799   5.512   0.218 -1.8460  0.9057  0.6434
15871TIP3    H269029   3.847   5.520   0.074  0.2076  2.6368  1.3652
15872TIP3   OH269030   0.446   6.275   2.566  0.0864  0.0274  0.1866
15872TIP3    H169031   0.503   6.207   2.601 -0.4119 -0.0915  0.7895
15872TIP3    H269032   0.458   6.350   2.625  0.2519  0.2920 -0.1778
15873TIP3   OH269033   0.900   5.480  14.642  0.1024  0.3026  0.6449
15873TIP3    H169034   0.904   5.555  14.701  0.5533 -0.4378  1.5700
15873TIP3    H269035   0.981   5.433  14.656  0.8186  0.7538 -1.4906
15874TIP3   OH269036   2.496   3.223  10.918 -0.6764  0.0737 -0.0999
15874TIP3    H169037   2.537   3.305  10.945  0.2965 -0.1086 -0.9512
15874TIP3    H269038   2.565   3.157  10.930 -1.3457 -0.5758  0.2755
15875TIP3   OH269039   3.602   6.326   2.111  0.3205  0.4867  0.2595
15875TIP3    H169040   3.598   6.263   2.183 -0.5167  0.6338  0.3573
15875TIP3    H269041   3.607   6.272   2.032 -1.3379  0.2366  0.2811
15876TIP3   OH269042   2.997   0.935  15.466  0.0393  0.3064 -0.3059
15876TIP3    H169043   2.967   0.990  15.394  0.6790 -0.8345 -1.5049
15876TIP3    H269044   2.925   0.934  15.528 -0.2391  1.9202 -0.5705
15877TIP3   OH269045   0.087   4.475   4.147  0.1859  0.3472  0.1772
15877TIP3    H169046   0.086   4.527   4.067 -1.2906  1.3176  0.7846
15877TIP3    H269047   0.117   4.537   4.214 -0.5454  0.1201  0.7212
15878TIP3   OH269048   1.183   3.304   3.994  0.0327 -0.0383  0.9431
15878TIP3    H169049   1.102   3.287   3.947 -0.2566 -0.1983  1.4994
15878TIP3    H269050   1.235   3.224   3.983 -0.7323 -0.7438  2.3316
15879TIP3   OH269051   5.118   2.192  12.037  0.0001  0.3343 -0.2710
15879TIP3    H169052   5.168   2.193  12.118  0.7360 -1.0165 -0.6720
15879TIP3    H269053   5.177   2.230  11.972 -0.3164  0.7332 -0.3329
15880TIP3   OH269054   5.865   5.362   5.840 -0.1489 -0.4441  0.5436
15880TIP3    H169055   5.940   5.422   5.837 -0.0197 -0.6178  0.2933
15880TIP3    H269056   5.904   5.278   5.864 -0.1413 -0.7327 -0.4453
15881TIP3   OH269057   1.513   2.205  13.968 -0.2819  0.1946 -0.2686
15881TIP3    H169058   1.533   2.263  13.895  0.8331 -0.8834 -0.8519
15881TIP3    H269059   1.598   2.191  14.011 -0.7988  0.2090  0.7841
15882TIP3   OH269060   3.971   2.830  14.175  0.2336  0.0077 -0.6779
15882TIP3    H169061   4.004   2.773  14.106 -0.9744 -0.8208 -0.5973
15882TIP3    H269062   4.026   2.810  14.251  1.6016  0.9580 -1.3664
15883TIP3   OH269063   2.947   4.988   3.318 -0.1152 -0.0098 -0.2285
15883TIP3    H169064   2.921   4.934   3.244 -1.3338 -0.0416  0.1992
15883TIP3    H269065   3.015   4.937   3.363 -0.5936 -0.7657 -0.3556
15884TIP3   OH269066   5.181   6.566   1.265 -0.2983  0.2323  0.2751
15884TIP3    H169067   5.119   6.589   1.195 -0.3053  0.0755  0.2281
15884TIP3    H269068   5.217   6.650   1.294  1.4452  0.1858 -1.5013
15885TIP3   OH269069   2.156   0.899   4.108  0.2354  0.0699  0.2811
15885TIP3    H169070   2.165   0.986   4.147 -0.1040 -0.2781  1.1587
15885TIP3    H269071   2.232   0.850   4.142  1.2889  0.4498 -1.4261
15886TIP3   OH269072   1.100   3.324  12.230  0.0134 -0.2486  0.4648
15886TIP3    H169073   1.168   3.257  12.233 -1.0529 -1.3280  1.0835
15886TIP3    H269074   1.018   3.276  12.236 -0.8084  1.0729  0.2969
15887TIP3   OH269075   6.113   5.407  15.683 -0.3349 -0.0886 -0.1601
15887TIP3    H169076   6.048   5.353  15.637 -0.8727  0.3565  0.0595
15887TIP3    H269077   6.095   5.391  15.776 -1.5238  1.6207 -0.0520
15888TIP3   OH269078   2.319   1.803   4.839  0.0728  0.5115  0.1413
15888TIP3    H169079   2.352   1.839   4.757 -0.0980  1.3627  0.4315
15888TIP3    H269080   2.398   1.793   4.893  0.3920 -1.4575 -0.6153
15889TIP3   OH269081   5.333   2.451  12.114 -0.0304  0.4509 -0.1562
15889TIP3    H169082   5.240   2.459  12.092  0.1099 -1.7896 -1.8751
15889TIP3    H269083   5.350   2.357  12.115  2.2946  0.8012 -0.2326
15890TIP3   OH269084   1.660   6.610   1.885 -0.0757 -0.0296  0.1552
15890TIP3    H169085   1.689   6.702   1.889 -0.5145  0.2369 -1.9344
15890TIP3    H269086   1.729   6.565   1.838 -0.1662 -0.6616  0.6153
15891TIP3   OH269087   2.507   5.236   2.773  0.1094  0.0311 -0.4016
15891TIP3    H169088   2.414   5.255   2.756 -0.0701 -0.7641 -0.3356
15891TIP3    H269089   2.513   5.236   2.868  0.0648 -0.4472 -0.3991
15892TIP3   OH269090   5.358   2.688   3.342 -0.4978  0.1288  0.6337
15892TIP3    H169091   5.276   2.733   3.325 -0.6042 -0.0342  0.7177
15892TIP3    H269092   5.401   2.684   3.256  0.3138  1.9368  0.8944
15893TIP3   OH269093   4.070   2.413  13.900 -0.0701  0.3166 -0.4657
15893TIP3    H169094   4.032   2.381  13.981 -2.7058 -0.0586 -1.7373
15893TIP3    H269095   4.061   2.509  13.905  0.0920  0.3193 -0.2014
15894TIP3   OH269096   1.118   4.281   6.049 -0.0215 -0.0567  0.0507
15894TIP3    H169097   1.136   4.330   6.129  1.4810 -0.3578 -0.0687
15894TIP3    H269098   1.139   4.190   6.072 -0.7896 -0.3406 -0.3280
15895TIP3   OH269099   3.010   1.148  14.596 -0.3961 -0.4260  0.1707
15895TIP3    H169100   3.059   1.081  14.549 -0.7723 -0.2264 -0.5276
15895TIP3    H269101   2.987   1.108  14.679 -0.9471 -1.3055 -0.3919
15896TIP3   OH269102   0.046   5.965   3.728  0.2007 -0.6304 -0.0452
15896TIP3    H169103   0.041   6.057   3.753 -2.9233  0.0183 -2.4545
15896TIP3    H269104  -0.010   5.920   3.791 -1.2128 -0.2513 -0.9923
15897TIP3   OH269105   0.643   6.770   2.240  0.2144 -0.7482 -0.4529
15897TIP3    H169106   0.712   6.772   2.306  0.1087 -1.1975 -0.3277
15897TIP3    H269107   0.616   6.678   2.235 -0.9463 -0.4601  0.0936
15898TIP3   OH269108   2.431   5.200  15.186 -0.4794  0.2892  0.1519
15898TIP3    H169109   2.367   5.269  15.197  0.6356  1.3053  0.5108
15898TIP3    H269110   2.516   5.245  15.190  0.2525 -0.9151 -0.9006
15899TIP3   OH269111   1.300   3.900   5.892 -0.2397 -0.0960 -0.2727
15899TIP3    H169112   1.246   3.869   5.819  0.1566  0.0930 -0.6463
15899TIP3    H269113   1.236   3.932   5.957 -0.7212 -2.2893  0.4361
15900TIP3   OH269114   2.121   4.841  17.029 -0.1088 -0.0216  0.4817
15900TIP3    H169115   2.129   4.925  17.075 -0.3004  1.2371 -1.6663
15900TIP3    H269116   2.056   4.857  16.961 -2.0573 -2.6776  1.5336
15901TIP3   OH269117   2.883   4.420   6.706  0.3172  0.6966  0.2755
15901TIP3    H169118   2.965   4.374   6.725  0.4676  0.7960 -0.1249
15901TIP3    H269119   2.890   4.444   6.614 -0.1205  0.7970  0.2673
15902TIP3   OH269120   3.529   4.471  14.483  0.0199  0.0127  0.1926
15902TIP3    H169121   3.621   4.497  14.472  0.5355 -0.2431  3.0805
15902TIP3    H269122   3.531   4.375  14.477 -0.5403  0.0744 -2.1500
15903TIP3   OH269123   3.937   5.794   0.556  0.9471 -0.3635 -0.2570
15903TIP3    H169124   3.952   5.856   0.628 -2.9316  3.0153 -1.9507
15903TIP3    H269125   3.851   5.756   0.575  0.2866 -0.1334 -2.5072
15904TIP3   OH269126   6.340   3.014   0.996 -0.3576  0.4533  0.5083
15904TIP3    H169127   6.396   3.045   0.925  1.1470 -0.9250  1.0498
15904TIP3    H269128   6.260   2.986   0.952  0.7793 -0.9391 -0.7536
15905TIP3   OH269129   2.176   5.321  12.951  0.0283  0.0723  0.0382
15905TIP3    H169130   2.209   5.369  13.027 -0.2558  0.7227 -0.2398
15905TIP3    H269131   2.208   5.372  12.876 -0.3150 -0.1495 -0.2606
15906TIP3   OH269132   2.873   6.758  12.867 -0.7476 -0.0018  0.4278
15906TIP3    H169133   2.813   6.766  12.942 -0.6163  1.3727  0.4165
15906TIP3    H269134   2.895   6.849  12.845 -0.5203 -0.3985 -1.0709
15907TIP3   OH269135   6.651   5.854  15.167  0.8495  0.0440 -0.1389
15907TIP3    H169136   6.627   5.818  15.082  0.7126 -0.2395  0.0191
15907TIP3    H269137   6.572   5.899  15.198  0.3040 -1.4301  0.6638
15908TIP3   OH269138   6.311   4.975  16.693  0.6278 -0.0029 -1.0880
15908TIP3    H169139   6.397   5.002  16.724  0.2196 -0.2635  0.3093
15908TIP3    H269140   6.327   4.895  16.643  1.2007 -0.0248 -0.8744
15909TIP3   OH269141   3.470   5.455  15.563 -0.0358 -0.2263  0.3031
15909TIP3    H169142   3.376   5.474  15.554 -0.3265 -0.8918  1.6375
15909TIP3    H269143   3.511   5.542  15.561 -0.7191  0.1053  0.1101
15910TIP3   OH269144   0.199   1.068  16.581  0.0148  0.1001  0.0908
15910TIP3    H169145   0.269   1.016  16.621  0.1541 -0.6015 -1.0255
15910TIP3    H269146   0.223   1.159  16.600  0.5941 -0.1810  0.7427
15911TIP3   OH269147   3.629   5.599  15.919 -0.5946  0.1092 -0.4651
15911TIP3    H169148   3.674   5.683  15.926 -0.5557  0.2204 -1.6946
15911TIP3    H269149   3.687   5.546  15.864 -0.8414 -0.5679 -0.0843
15912TIP3   OH269150   2.006   0.761  12.187  0.3082 -0.2716  0.1437
15912TIP3    H169151   1.959   0.699  12.242  0.6738  0.5391  1.4043
15912TIP3    H269152   2.050   0.819  12.248  0.7564  0.6460 -1.0113
15913TIP3   OH269153   2.117   5.621  12.871 -0.1117  0.4559 -0.6141
15913TIP3    H169154   2.209   5.638  12.890 -0.5398  2.3859  0.0028
15913TIP3    H269155   2.084   5.572  12.946 -0.0589  1.5890  0.1628
15914TIP3   OH269156   3.953   1.633  14.928  0.3053 -0.0302 -0.8102
15914TIP3    H169157   3.907   1.600  15.004  0.5811 -1.0576 -1.0771
15914TIP3    H269158   3.890   1.625  14.856 -0.5353  2.4082 -0.4658
15915TIP3   OH269159   1.547   5.957  12.992  0.2673  0.1828 -0.6142
15915TIP3    H169160   1.498   6.007  12.926  0.1122 -0.8126 -1.2757
15915TIP3    H269161   1.511   5.868  12.986  1.9288 -0.4997 -0.8851
15916TIP3   OH269162   5.080   6.623  16.575 -0.2477  0.5206 -0.3099
15916TIP3    H169163   5.151   6.651  16.632 -0.8233 -0.7392  1.1031
15916TIP3    H269164   5.060   6.700  16.522  2.9768  0.5614 -1.7084
15917TIP3   OH269165   5.729   5.938   3.195 -0.2963 -0.3915  0.2789
15917TIP3    H169166   5.749   6.024   3.159  0.3903 -1.3167 -1.6859
15917TIP3    H269167   5.813   5.905   3.227 -0.4975 -0.4589  0.7446
15918TIP3   OH269168   5.128   6.613  16.896  0.4068  0.1011 -0.2651
15918TIP3    H169169   5.181   6.658  16.963  0.2727 -0.0353 -0.0662
15918TIP3    H269170   5.051   6.668  16.885 -0.5364 -0.8656  1.1347
15919TIP3   OH269171   0.617   4.233  12.600  0.0378 -0.2570 -0.1955
15919TIP3    H169172   0.563   4.259  12.526  1.8453  2.1204 -0.8006
15919TIP3    H269173   0.631   4.139  12.588  1.7831  0.3107 -4.0155
15920TIP3   OH269174   1.725   5.424   4.162  0.0641  0.2084  0.3514
15920TIP3    H169175   1.815   5.441   4.191 -0.5211  1.8003  1.3684
15920TIP3    H269176   1.670   5.476   4.221 -1.3868  1.5129 -1.9816
15921TIP3   OH269177   4.156   5.817  16.460 -0.0099 -0.2982 -0.5869
15921TIP3    H169178   4.160   5.790  16.551  1.1132 -1.7100 -1.0158
15921TIP3    H269179   4.079   5.774  16.424 -0.8605  0.8206 -0.1690
15922TIP3   OH269180   2.870   0.307   2.193  0.1247 -0.3479  0.4239
15922TIP3    H169181   2.907   0.389   2.227  0.2844  0.2231 -1.0222
15922TIP3    H269182   2.784   0.300   2.235  0.3464  0.2621  0.9984
15923TIP3   OH269183   6.443   4.188  10.468  0.1079 -0.3064 -0.0105
15923TIP3    H169184   6.414   4.179  10.558  1.2570 -0.2043  0.3778
15923TIP3    H269185   6.362   4.200  10.418 -0.5306 -0.3082  1.0038
15924TIP3   OH269186   4.246   2.181   0.087  0.2604  0.2166  0.3261
15924TIP3    H169187   4.205   2.115   0.031  0.3234  0.7027 -0.3004
15924TIP3    H269188   4.173   2.219   0.136  0.2116 -0.2409  0.6167
15925TIP3   OH269189   6.673   1.452   0.760  0.1794 -0.4592 -0.1148
15925TIP3    H169190   6.604   1.518   0.768  1.2328  0.9612 -1.8245
15925TIP3    H269191   6.639   1.391   0.695 -0.0270 -0.5361  0.0642
15926TIP3   OH269192   5.530   2.658   0.806 -0.5677  0.3115  0.4562
15926TIP3    H169193   5.566   2.627   0.723  0.8322 -1.1364  1.5434
15926TIP3    H269194   5.518   2.752   0.794 -0.4900  0.1203 -1.3958
15927TIP3   OH269195   2.563   5.857   1.552 -0.1151 -0.0018  0.7313
15927TIP3    H169196   2.590   5.795   1.484  2.1520  1.7037 -0.0369
15927TIP3    H269197   2.481   5.821   1.586  1.2725 -3.6811  0.6812
15928TIP3   OH269198   0.302   2.401  13.218  0.0733 -0.0439  0.0066
15928TIP3    H169199   0.360   2.434  13.286  1.4002  1.2390 -1.6660
15928TIP3    H269200   0.337   2.314  13.197  0.7978  0.3148 -0.3017
15929TIP3   OH269201   3.450   0.788   1.697  0.0357 -0.4712 -0.5056
15929TIP3    H169202   3.386   0.809   1.764 -0.7822 -2.0796 -0.7415
15929TIP3    H269203   3.489   0.705   1.725 -0.3493 -1.1926 -2.0010
15930TIP3   OH269204   2.471   0.947   0.301 -0.6840  0.3700 -0.6246
15930TIP3    H169205   2.557   0.988   0.291  0.5281 -1.9634 -0.5301
15930TIP3    H269206   2.433   0.989   0.378  0.3634  1.4464 -0.6643
15931TIP3   OH269207   0.614   3.727  16.736  0.9431 -0.3705 -0.2560
15931TIP3    H169208   0.679   3.748  16.803 -0.9225 -2.8804  2.6308
15931TIP3    H269209   0.533   3.710  16.785 -1.2786  0.1542 -3.4273
15932TIP3   OH269210   5.663   4.146   2.030 -0.1772 -0.1622 -0.4053
15932TIP3    H169211   5.741   4.186   2.069 -0.8987  1.2232 -0.3244
15932TIP3    H269212   5.609   4.220   2.004 -1.9360 -1.0767  0.4653
15933TIP3   OH269213   2.525   4.487   0.221  0.0332  0.1642  0.1312
15933TIP3    H169214   2.559   4.571   0.192 -0.5153  1.0046  1.8187
15933TIP3    H269215   2.436   4.506   0.252 -0.7105 -1.3446 -0.9523
15934TIP3   OH269216   4.106   2.337  13.253  0.0079  0.3916 -0.0635
15934TIP3    H169217   4.200   2.331  13.238 -0.1497 -3.6127 -0.6328
15934TIP3    H269218   4.070   2.365  13.169  0.5837  0.5636 -0.2595
15935TIP3   OH269219   2.441   2.058   5.355 -0.0284  0.1325  0.1129
15935TIP3    H169220   2.363   2.108   5.377 -0.7188 -1.1884  0.7441
15935TIP3    H269221   2.411   1.990   5.295  0.6351 -0.3693  0.3301
15936TIP3   OH269222   5.597   2.879   3.063  0.1646  0.0224  0.0375
15936TIP3    H169223   5.533   2.931   3.112  0.1449 -0.0258  0.0617
15936TIP3    H269224   5.674   2.876   3.120 -0.0904 -0.6059  0.3582
15937TIP3   OH269225   1.805   4.878  12.595 -0.0322 -0.0311 -0.1746
15937TIP3    H169226   1.711   4.894  12.605 -0.3498 -1.1541 -1.1059
15937TIP3    H269227   1.820   4.794  12.639  0.2897 -0.4567 -1.0782
15938TIP3   OH269228   6.550   5.467  11.704 -0.3053  0.0065 -0.1151
15938TIP3    H169229   6.625   5.525  11.719 -0.0061 -0.3252 -0.2952
15938TIP3    H269230   6.579   5.409  11.634 -0.1045 -1.2145  0.9398
15939TIP3   OH269231   6.231   0.959   5.091 -0.5302  0.4766  0.5977
15939TIP3    H169232   6.198   1.028   5.034  0.0543  0.8124  0.6599
15939TIP3    H269233   6.181   0.968   5.171 -2.0404 -0.6038 -0.1761
15940TIP3   OH269234   3.985   2.500   2.537 -0.8672 -0.4704 -0.1155
15940TIP3    H169235   3.904   2.520   2.584  0.2025 -1.5652  2.4011
15940TIP3    H269236   4.055   2.523   2.599  0.7693  0.1056 -2.0660
15941TIP3   OH269237   6.049   2.849   0.123  0.6362  0.6829 -0.0150
15941TIP3    H169238   5.984   2.902   0.076  0.5034  0.5391  0.0066
15941TIP3    H269239   6.074   2.781   0.061 -1.0144 -0.7175  0.7879
15942TIP3   OH269240   4.198   3.365  10.716 -0.2031 -0.0435  0.0353
15942TIP3    H169241   4.284   3.407  10.721 -1.4940  2.7447  0.9712
15942TIP3    H269242   4.158   3.402  10.637 -1.5037  0.8869  1.0726
15943TIP3   OH269243   1.581   6.157  11.845  0.1910  0.1623 -1.1295
15943TIP3    H169244   1.645   6.133  11.779  0.7858  1.3169 -0.9908
15943TIP3    H269245   1.527   6.078  11.856  2.8748 -1.6291  0.3217
15944TIP3   OH269246   3.801   3.681  16.619  0.1696 -0.4398 -0.3236
15944TIP3    H169247   3.801   3.776  16.627 -0.7041 -0.4599  0.0505
15944TIP3    H269248   3.720   3.660  16.574  0.9732 -0.9380 -1.5774
15945TIP3   OH269249   2.434   1.018   3.338  0.5053 -0.3757 -0.1548
15945TIP3    H169250   2.480   0.936   3.321 -0.9357 -0.9460 -1.5948
15945TIP3    H269251   2.503   1.080   3.360  1.6841 -1.8353  0.4440
15946TIP3   OH269252   6.179   2.649  13.735 -0.8130 -0.3241 -0.2893
15946TIP3    H169253   6.233   2.584  13.779 -1.5624 -1.1907 -0.6305
15946TIP3    H269254   6.229   2.731  13.744  0.0964 -0.9130  0.2214
15947TIP3   OH269255   0.532   3.726  12.448  0.1167 -0.0492 -0.7741
15947TIP3    H169256   0.547   3.711  12.541 -0.3469  0.6392 -0.5806
15947TIP3    H269257   0.566   3.648  12.405 -1.9269 -1.5316  0.1524
15948TIP3   OH269258   4.850   2.379  16.690  0.4999  0.4724 -0.4269
15948TIP3    H169259   4.773   2.360  16.635  0.5250  0.6147 -0.5116
15948TIP3    H269260   4.884   2.461  16.655  0.3751  0.6908 -0.0408
15949TIP3   OH269261   6.670   0.887  11.767  0.8550  0.1160 -0.3599
15949TIP3    H169262   6.739   0.848  11.714  0.4502 -2.4099  0.8007
15949TIP3    H269263   6.673   0.839  11.850 -0.1040  2.2536  1.0342
15950TIP3   OH269264   6.719   6.305  15.555 -0.1342  0.0856 -0.7032
15950TIP3    H169265   6.783   6.303  15.484  1.5388 -2.9187  0.7226
15950TIP3    H269266   6.692   6.397  15.559  2.1426  1.0051 -3.0558
15951TIP3   OH269267   1.752   2.599  12.190 -0.4288  0.1948 -0.7257
15951TIP3    H169268   1.815   2.556  12.132  0.3861  1.9357 -1.2262
15951TIP3    H269269   1.674   2.610  12.137  0.2286  1.5532 -1.4635
15952TIP3   OH269270   4.927   4.481  14.124  0.3557  0.2799 -0.4865
15952TIP3    H169271   5.009   4.467  14.078  0.7260 -0.9032  0.4511
15952TIP3    H269272   4.861   4.490  14.056  0.9350 -1.0652 -1.2572
15953TIP3   OH269273   0.867   1.581   6.579  0.5645 -0.0164 -0.1215
15953TIP3    H169274   0.927   1.525   6.628 -0.8640 -1.7684 -0.2691
15953TIP3    H269275   0.785   1.532   6.575 -0.1373  1.1545 -2.1211
15954TIP3   OH269276   5.672   4.377  16.337 -0.1241 -0.4664  0.4931
15954TIP3    H169277   5.620   4.411  16.264  1.4266  1.1422  0.0802
15954TIP3    H269278   5.706   4.293  16.306 -0.4902 -0.3849 -0.1455
15955TIP3   OH269279   0.759   2.604   3.737 -0.0306 -0.1107 -0.0473
15955TIP3    H169280   0.783   2.593   3.829  1.0040 -0.1794 -0.3039
15955TIP3    H269281   0.790   2.692   3.715 -0.3240 -0.0743 -0.3124
15956TIP3   OH269282   2.783   5.335  15.856 -0.7935 -0.3245 -0.0787
15956TIP3    H169283   2.868   5.333  15.812 -1.1483  1.1604 -0.9396
15956TIP3    H269284   2.789   5.409  15.917 -0.6146 -1.8225  1.7886
15957TIP3   OH269285   0.486   5.905   4.001  0.5641  0.0947  0.0442
15957TIP3    H169286   0.570   5.951   4.010  1.1656 -0.5990 -1.6537
15957TIP3    H269287   0.496   5.825   4.053  0.8087  0.2055  0.1666
15958TIP3   OH269288   5.217   2.641   4.713 -0.0623  0.1202 -1.3771
15958TIP3    H169289   5.168   2.657   4.632  0.4597 -0.4657 -1.8184
15958TIP3    H269290   5.307   2.626   4.683 -0.0007 -0.8164 -0.7506
15959TIP3   OH269291   2.633   0.434   3.764 -0.2311 -0.5792  0.2232
15959TIP3    H169292   2.553   0.446   3.714  0.2671 -1.8038 -0.9050
15959TIP3    H269293   2.704   0.451   3.702  0.4466  1.6126  1.4790
15960TIP3   OH269294   1.853   1.272  15.276  0.5607  0.0838 -0.0703
15960TIP3    H169295   1.889   1.297  15.360  0.8942 -0.8982  0.0916
15960TIP3    H269296   1.761   1.253  15.294  0.3888  0.8568 -0.1298
15961TIP3   OH269297   1.648   6.620   2.170 -0.0298 -0.2546 -1.0159
15961TIP3    H169298   1.634   6.613   2.076 -0.4119  1.3638 -1.1194
15961TIP3    H269299   1.586   6.688   2.198  1.2876  0.5371  0.1030
15962TIP3   OH269300   2.320   6.028   1.395  0.3134  0.6042  0.3472
15962TIP3    H169301   2.329   5.950   1.449 -3.5503 -1.3390 -1.3629
15962TIP3    H269302   2.243   6.073   1.429  0.5850  1.9286 -0.6742
15963TIP3   OH269303   3.036   6.213  13.458  0.1613 -0.2587  0.1744
15963TIP3    H169304   2.998   6.127  13.473  1.6982 -1.1269 -0.6650
15963TIP3    H269305   2.966   6.274  13.482 -0.7239 -1.6930  1.5073
15964TIP3   OH269306   4.570   0.519  15.162  0.2507 -0.2237 -0.7854
15964TIP3    H169307   4.574   0.602  15.210  0.4699 -0.4005 -0.4911
15964TIP3    H269308   4.500   0.470  15.205  0.8429 -0.6191 -0.2530
15965TIP3   OH269309   2.443   5.356   1.965  0.4673 -0.1244 -0.3218
15965TIP3    H169310   2.456   5.449   1.946  1.6002 -0.1538  0.1971
15965TIP3    H269311   2.512   5.311   1.915 -0.8999 -0.8277 -1.6440
15966TIP3   OH269312   3.200   6.454   0.574  0.0877  0.2552 -0.3187
15966TIP3    H169313   3.115   6.411   0.574  0.9487 -1.6650  2.2150
15966TIP3    H269314   3.195   6.519   0.644 -0.0048  1.8346 -1.7264
15967TIP3   OH269315   4.952   0.283  13.978 -0.7004  0.8776  0.2539
15967TIP3    H169316   5.009   0.346  13.935 -2.3824  2.0155 -0.4218
15967TIP3    H269317   4.885   0.262  13.912  0.4311 -2.6251 -0.0307
15968TIP3   OH269318   1.258   2.522  16.545  0.2313 -0.4665  0.3264
15968TIP3    H169319   1.323   2.572  16.594 -0.4355  0.8952 -0.1298
15968TIP3    H269320   1.208   2.475  16.613  0.2655  0.2315  0.8430
15969TIP3   OH269321   4.492   5.376   4.403 -0.3954  0.3493 -0.2662
15969TIP3    H169322   4.562   5.318   4.373  1.0998  1.7046  0.4190
15969TIP3    H269323   4.509   5.459   4.358  1.1654  2.0793  3.1010
15970TIP3   OH269324   3.017   1.110   5.041  0.1402  0.0276 -0.1538
15970TIP3    H169325   3.111   1.112   5.060 -0.0064  0.7428  0.5652
15970TIP3    H269326   2.985   1.196   5.070 -1.1676 -1.1097  2.0531
15971TIP3   OH269327   2.389   3.919   1.197  0.3227 -0.1412  0.0670
15971TIP3    H169328   2.446   3.916   1.120 -0.1503 -1.3529 -0.2490
15971TIP3    H269329   2.437   3.872   1.265 -0.6394 -1.9765 -0.4625
15972TIP3   OH269330   2.036   4.283  13.422  0.6783 -0.5535  0.3105
15972TIP3    H169331   1.997   4.321  13.344  0.7267 -1.0078  0.0593
15972TIP3    H269332   1.983   4.316  13.494  0.0183 -0.9087 -0.0003
15973TIP3   OH269333   2.557   4.660  16.117 -0.0527 -0.0755 -0.2046
15973TIP3    H169334   2.520   4.584  16.161 -0.2996 -0.5057 -1.1410
15973TIP3    H269335   2.612   4.624  16.047  0.3999  0.5935 -0.2105
15974TIP3   OH269336   4.526   0.721  10.282  0.0016  0.0662 -0.2603
15974TIP3    H169337   4.445   0.678  10.255  0.5254  0.9899 -3.7954
15974TIP3    H269338   4.500   0.810  10.304 -0.0767  0.0046 -0.0933
15975TIP3   OH269339   6.615   3.997  11.696 -0.3128  0.1104  0.2718
15975TIP3    H169340   6.532   3.955  11.675 -0.2158 -0.3918  0.8825
15975TIP3    H269341   6.597   4.051  11.773 -0.1817  0.3669  0.1258
15976TIP3   OH269342   3.307   2.775   5.329 -0.2302 -0.2464  0.4799
15976TIP3    H169343   3.327   2.868   5.325  0.0016 -0.3349 -0.9924
15976TIP3    H269344   3.337   2.740   5.245 -1.7763 -1.3500  0.3379
15977TIP3   OH269345   5.517   1.986  10.505  0.0870  0.0720  0.6918
15977TIP3    H169346   5.564   1.920  10.453  0.0013 -0.1824  0.9303
15977TIP3    H269347   5.426   1.980  10.475  0.4982  1.8350 -1.0737
15978TIP3   OH269348   1.223   0.082   4.394  0.5598 -0.3340 -0.2527
15978TIP3    H169349   1.187   0.161   4.356  0.6331  0.8666  1.9959
15978TIP3    H269350   1.316   0.083   4.371  0.8725  1.0413  0.9468
15979TIP3   OH269351   0.094   1.233   5.210 -0.1460 -0.2456  0.0753
15979TIP3    H169352   0.138   1.155   5.176  1.3982  1.1464 -1.3104
15979TIP3    H269353   0.155   1.269   5.275  0.2000  0.9396 -0.8572
15980TIP3   OH269354   3.237   3.580  13.596  0.6374 -0.1592  0.1682
15980TIP3    H169355   3.251   3.493  13.633 -0.1410 -0.3261  0.0862
15980TIP3    H269356   3.169   3.567  13.530  1.1466  0.3519 -0.4727
15981TIP3   OH269357   3.922   2.378  14.994  0.2822 -0.3597 -0.1294
15981TIP3    H169358   3.864   2.332  15.055 -1.2820 -0.5418 -1.6811
15981TIP3    H269359   3.967   2.443  15.048 -1.4234 -0.1644  1.1473
15982TIP3   OH269360   1.818   0.154   1.677  0.1292  0.3765 -0.2293
15982TIP3    H169361   1.805   0.060   1.659 -0.2410  0.3617  0.1070
15982TIP3    H269362   1.820   0.160   1.772 -0.7110  0.8256 -0.2352
15983TIP3   OH269363   3.288   0.724   2.664  0.2408  0.4503  0.0069
15983TIP3    H169364   3.381   0.718   2.684  0.6748  0.2152 -1.8627
15983TIP3    H269365   3.249   0.763   2.742  2.3446  3.4880 -0.2745
15984TIP3   OH269366   4.111   3.437   4.287  0.0967  0.3059  0.2720
15984TIP3    H169367   4.043   3.487   4.331  0.5211  0.3833  0.8503
15984TIP3    H269368   4.188   3.446   4.344  0.4315 -0.2394 -0.0896
15985TIP3   OH269369   1.337   5.068   5.149  0.0910  0.8334 -0.1971
15985TIP3    H169370   1.425   5.069   5.187  0.8255  0.1765 -1.8137
15985TIP3    H269371   1.347   5.021   5.066 -1.2305  3.1903 -1.7784
15986TIP3   OH269372   1.451   2.932  15.262  0.0339  0.3146 -0.0411
15986TIP3    H169373   1.516   2.977  15.315  0.0431 -0.3695  0.5358
15986TIP3    H269374   1.374   2.989  15.265  0.3834  0.8041 -0.1899
15987TIP3   OH269375   1.486   6.673   1.198  0.0221  0.2264  0.5066
15987TIP3    H169376   1.557   6.716   1.150 -0.4828  1.9160  1.1770
15987TIP3    H269377   1.489   6.582   1.170  1.7489  0.4957 -0.3020
15988TIP3   OH269378   2.194   4.088   4.359 -0.8299  0.0703  0.6663
15988TIP3    H169379   2.266   4.053   4.307 -1.5788 -1.4706  0.6151
15988TIP3    H269380   2.138   4.013   4.377 -1.7619  0.9883  1.8059
15989TIP3   OH269381   4.228   6.003  14.010 -0.4815  0.6003 -0.0098
15989TIP3    H169382   4.189   6.091  14.015 -0.3985  0.5800  1.7820
15989TIP3    H269383   4.210   5.965  14.096  2.2659  0.0738  0.4091
15990TIP3   OH269384   5.276   4.680  11.487 -0.5942  0.2203 -0.5987
15990TIP3    H169385   5.315   4.741  11.425  1.6450  1.2879  1.6756
15990TIP3    H269386   5.322   4.697  11.570 -2.0030 -2.4820  0.8837
15991TIP3   OH269387   0.278   5.384  15.711  0.0542 -0.8324 -0.4871
15991TIP3    H169388   0.205   5.392  15.772 -0.0450 -0.4635 -0.6493
15991TIP3    H269389   0.267   5.457  15.651 -0.3800 -1.6974 -1.5092
15992TIP3   OH269390   0.218   0.446   2.521  0.0051  0.0493  0.0624
15992TIP3    H169391   0.235   0.359   2.484 -0.0529 -0.1229  0.4347
15992TIP3    H269392   0.300   0.493   2.510 -0.5095  0.5751 -1.8304
15993TIP3   OH269393   2.113   6.770  13.541 -0.0161 -0.3447  0.6509
15993TIP3    H169394   2.059   6.761  13.462  1.4665 -1.4000 -0.2863
15993TIP3    H269395   2.063   6.829  13.597 -0.2090  2.1327 -1.8824
15994TIP3   OH269396   4.235   1.466   5.869  0.0630  0.1048 -0.1607
15994TIP3    H169397   4.161   1.405   5.870 -0.7254  1.0294 -0.8188
15994TIP3    H269398   4.234   1.507   5.956  0.1601 -0.2801  0.0272
15995TIP3   OH269399   1.193   4.756   0.832 -0.2024  0.5779 -0.1822
15995TIP3    H169400   1.115   4.706   0.857 -0.0352  0.9203  1.0428
15995TIP3    H269401   1.241   4.697   0.774 -0.6833 -0.1657  0.1620
15996TIP3   OH269402   0.784   4.851   2.380  0.4234 -0.1159 -0.5889
15996TIP3    H169403   0.783   4.850   2.284  1.0092 -1.4241 -0.5953
15996TIP3    H269404   0.783   4.759   2.405  0.6213  0.2094  0.6692
15997TIP3   OH269405   0.914   3.439  14.261  0.2878 -0.3521  0.1760
15997TIP3    H169406   0.880   3.458  14.174  1.0803 -0.5487 -0.1780
15997TIP3    H269407   1.008   3.432  14.250  0.2238 -2.7756  0.5874
15998TIP3   OH269408   1.086   5.235   2.977 -0.3068 -0.4939  0.8921
15998TIP3    H169409   1.017   5.190   2.928 -0.5663  1.0295 -0.2248
15998TIP3    H269410   1.046   5.254   3.062 -1.3752  0.5545  0.1867
15999TIP3   OH269411   1.607   6.408   4.229  0.0531  0.3463  0.3431
15999TIP3    H169412   1.607   6.381   4.137 -0.8307 -0.8101  0.6558
15999TIP3    H269413   1.517   6.394   4.258  0.6614 -0.8076  1.7977
16000TIP3   OH269414   6.609   3.638  16.004  0.0817 -0.2522  0.3954
16000TIP3    H169415   6.615   3.548  15.970 -1.1921  0.1989 -1.1662
16000TIP3    H269416   6.523   3.669  15.975  0.1639  1.2181  1.5988
16001TIP3   OH269417   4.878   3.547   2.855  0.0093 -0.2207  0.3183
16001TIP3    H169418   4.857   3.639   2.871 -0.1601 -0.1275 -0.3857
16001TIP3    H269419   4.974   3.545   2.848 -0.0438  0.1091 -0.7730
16002TIP3   OH269420   2.208   5.015  14.345  0.0091  0.2406 -0.0448
16002TIP3    H169421   2.254   4.996  14.264 -0.7952  0.8475 -0.6555
16002TIP3    H269422   2.270   5.068  14.395  0.3516  0.2050 -0.4208
16003TIP3   OH269423   1.994   6.440  11.809 -0.3758 -0.0621  0.6933
16003TIP3    H169424   1.977   6.530  11.837 -1.0073  0.4707 -1.2384
16003TIP3    H269425   2.066   6.448  11.746 -1.1071 -0.7512 -0.2687
16004TIP3   OH269426   0.857   5.398   5.308  0.4760 -0.1874  0.0049
16004TIP3    H169427   0.765   5.424   5.318  0.4142 -1.1366  3.3558
16004TIP3    H269428   0.860   5.309   5.342  2.7724  0.1504  0.8634
16005TIP3   OH269429   1.880   0.514  16.092  0.5233  0.3035 -0.1210
16005TIP3    H169430   1.797   0.480  16.125 -0.4496  2.2229 -0.4683
16005TIP3    H269431   1.894   0.468  16.009 -1.4453  1.6137 -1.2618
16006TIP3   OH269432   0.741   1.848  10.309  0.3302  0.4872  0.3419
16006TIP3    H169433   0.661   1.901  10.303  0.1149  0.2011  0.7110
16006TIP3    H269434   0.711   1.762  10.339  0.8337  0.5176  0.9460
16007TIP3   OH269435   6.291   2.490  16.277 -0.5062 -0.3043  0.3453
16007TIP3    H169436   6.255   2.410  16.316 -1.4071 -0.8219 -1.4334
16007TIP3    H269437   6.361   2.458  16.220  0.4386  0.3833  1.0940
16008TIP3   OH269438   1.285   2.729   4.470  0.0132  0.2605  0.2065
16008TIP3    H169439   1.293   2.636   4.493  1.6524  0.0638 -1.0221
16008TIP3    H269440   1.217   2.762   4.529 -0.1966 -1.5755  1.0688
16009TIP3   OH269441   0.794   0.497  11.214  0.6055 -0.2836  0.2975
16009TIP3    H169442   0.854   0.428  11.242  0.3175 -0.0276  1.6114
16009TIP3    H269443   0.833   0.578  11.249 -0.1244 -0.0317  0.5395
16010TIP3   OH269444   1.475   3.177   2.167  0.0348  0.1690  0.0881
16010TIP3    H169445   1.442   3.090   2.145 -0.2082  0.4775 -0.8161
16010TIP3    H269446   1.477   3.224   2.083 -2.1155  1.8155  0.8667
16011TIP3   OH269447   1.604   1.480   4.424 -0.0051  0.4672  0.7070
16011TIP3    H169448   1.630   1.434   4.504 -0.6606 -1.2354 -0.0060
16011TIP3    H269449   1.517   1.515   4.445 -0.1403  0.0983  0.7775
16012TIP3   OH269450   6.704   1.495  13.142  0.3710  0.7078  0.2669
16012TIP3    H169451   6.635   1.460  13.199 -0.7784  1.3599 -0.6676
16012TIP3    H269452   6.712   1.587  13.168 -0.7790  1.2500 -1.1276
16013TIP3   OH269453   5.784   6.329  15.627 -0.3039 -0.2964 -0.4615
16013TIP3    H169454   5.742   6.412  15.605  0.1316  0.2316  0.6542
16013TIP3    H269455   5.716   6.280  15.674  0.0880  0.2693  0.7094
16014TIP3   OH269456   4.296   0.410  12.684  0.0917 -0.4912  0.2870
16014TIP3    H169457   4.347   0.414  12.765 -0.0123 -2.2298  0.4678
16014TIP3    H269458   4.362   0.397  12.615  0.0475 -0.7342  0.2910
16015TIP3   OH269459   3.892   5.593  10.528 -0.4691 -0.6351  0.5663
16015TIP3    H169460   3.822   5.530  10.508 -0.0690 -1.4090  1.5813
16015TIP3    H269461   3.942   5.553  10.598  1.0507 -0.1083 -0.1835
16016TIP3   OH269462   5.720   6.717   5.995  0.0013  0.1741  0.1936
16016TIP3    H169463   5.730   6.742   5.903  1.0117  0.3998  0.3472
16016TIP3    H269464   5.630   6.740   6.016 -0.4220 -0.4106 -0.8926
16017TIP3   OH269465   2.542   1.206  12.033  0.1555 -0.1768  0.5679
16017TIP3    H169466   2.553   1.167  12.119  1.0170  0.9059  0.9737
16017TIP3    H269467   2.605   1.160  11.977 -1.6124 -2.1005  0.0461
16018TIP3   OH269468   6.450   1.391   2.544  0.0305 -0.3681  0.8032
16018TIP3    H169469   6.375   1.422   2.595  0.3153  2.5988 -0.3907
16018TIP3    H269470   6.431   1.298   2.528 -2.2938 -0.2584  2.3676
16019TIP3   OH269471   5.274   0.272   5.294  0.5948 -0.2235  0.5514
16019TIP3    H169472   5.270   0.324   5.214 -3.0496 -4.1919 -2.2945
16019TIP3    H269473   5.189   0.288   5.336  0.7963 -1.2919  1.3921
16020TIP3   OH269474   1.548   6.417  12.292 -0.3572  0.1758  0.0595
16020TIP3    H169475   1.460   6.451  12.308 -0.3997  1.2665 -2.1399
16020TIP3    H269476   1.554   6.408  12.197  2.2208  1.0279  0.0544
16021TIP3   OH269477   6.781   0.853  17.244  0.0714 -0.1274 -0.3511
16021TIP3    H169478   6.743   0.765  17.253 -0.7836  0.3914  1.7863
16021TIP3    H269479   6.713   0.904  17.200 -0.9328  0.2785  1.5717
16022TIP3   OH269480   5.590   4.840  16.130 -0.6754  0.3656  0.8163
16022TIP3    H169481   5.619   4.928  16.150 -0.4073  0.6763 -0.7529
16022TIP3    H269482   5.648   4.783  16.180  0.6389  1.0512  0.1181
16023TIP3   OH269483   5.798   1.539  11.383 -0.7028  0.1036 -0.4427
16023TIP3    H169484   5.812   1.616  11.327 -2.6364 -0.1354 -1.3590
16023TIP3    H269485   5.799   1.465  11.322 -4.6192 -0.0201 -0.6564
16024TIP3   OH269486   3.338   3.372  12.024 -0.8078 -0.3690  0.1658
16024TIP3    H169487   3.257   3.382  11.975 -0.9486  0.6838  0.5930
16024TIP3    H269488   3.386   3.303  11.977 -1.4297 -0.1794 -0.7768
16025TIP3   OH269489   5.903   1.645   1.968  0.5125  0.0388 -1.1737
16025TIP3    H169490   5.811   1.664   1.952  0.5726  0.2419 -1.2708
16025TIP3    H269491   5.925   1.694   2.047  0.4405 -0.3002 -0.9392
16026TIP3   OH269492   2.460   0.798   4.449 -0.1356 -0.3541 -0.0682
16026TIP3    H169493   2.531   0.735   4.459 -0.1455 -0.2434  0.7455
16026TIP3    H269494   2.394   0.770   4.512 -0.9046 -0.5641 -0.9415
16027TIP3   OH269495   0.917   0.917   5.524  0.3804  0.4980 -1.1009
16027TIP3    H169496   0.838   0.930   5.472 -1.0373 -1.1954  0.4936
16027TIP3    H269497   0.952   0.833   5.494 -0.5084 -0.5456  0.6507
16028TIP3   OH269498   2.682   2.534   4.535  0.3513  0.1065 -0.1960
16028TIP3    H169499   2.638   2.529   4.620  2.4147  1.5115  1.0328
16028TIP3    H269500   2.749   2.466   4.538  0.4219  0.1463 -0.7168
16029TIP3   OH269501   5.534   4.226  15.426  0.0216  0.5973  0.3201
16029TIP3    H169502   5.462   4.221  15.364  0.5171  3.9719 -0.7484
16029TIP3    H269503   5.506   4.293  15.489  1.1136 -0.0192  1.5016
16030TIP3   OH269504   5.333   2.960   5.103  0.1380 -0.4441  0.2443
16030TIP3    H169505   5.357   3.052   5.103 -0.7844 -0.1718 -1.0192
16030TIP3    H269506   5.293   2.945   5.189  0.2771  0.3326  0.4462
16031TIP3   OH269507   2.727   4.713   4.683 -0.1629 -0.2964  0.5839
16031TIP3    H169508   2.671   4.775   4.638  1.6144  1.2439  0.3886
16031TIP3    H269509   2.757   4.653   4.614  0.7659  0.6986  0.0862
16032TIP3   OH269510   6.691   2.407  11.416  0.0082  0.6960  0.2425
16032TIP3    H169511   6.698   2.497  11.447 -0.8636  1.0048 -0.4141
16032TIP3    H269512   6.667   2.415  11.324 -0.5624 -0.1979  0.2990
16033TIP3   OH269513   3.884   3.355  11.397  0.3653  0.1537  0.0624
16033TIP3    H169514   3.836   3.327  11.319 -1.1440 -0.7317  1.2433
16033TIP3    H269515   3.872   3.284  11.459  3.2504 -0.1030  0.4805
16034TIP3   OH269516   0.527   6.615  10.719  0.1621 -0.2097 -0.8417
16034TIP3    H169517   0.572   6.531  10.732 -1.0276 -0.4091  3.3468
16034TIP3    H269518   0.597   6.680  10.722  0.8039 -0.8692 -1.0912
16035TIP3   OH269519   3.905   5.612   1.912 -0.3481 -0.0298 -0.5261
16035TIP3    H169520   3.947   5.682   1.862  0.1796 -1.1311 -1.6496
16035TIP3    H269521   3.972   5.584   1.975 -0.7258  0.7709  0.2678
16036TIP3   OH269522   1.788   5.356  13.457  0.0424 -0.2003  0.1575
16036TIP3    H169523   1.872   5.310  13.449  0.1034 -0.0718  0.0647
16036TIP3    H269524   1.734   5.318  13.388 -0.7167 -1.8715  1.5821
16037TIP3   OH269525   5.770   4.523  14.761 -0.0445  0.3306  0.1683
16037TIP3    H169526   5.819   4.592  14.715  0.8227 -0.6988 -0.5042
16037TIP3    H269527   5.790   4.443  14.711  3.7094 -1.5795  4.0775
16038TIP3   OH269528   4.421   6.678   6.234 -0.3562 -0.2869  0.4359
16038TIP3    H169529   4.495   6.713   6.185  1.3407  0.9492  3.5378
16038TIP3    H269530   4.368   6.754   6.255 -0.5918 -0.6413  1.1693
16039TIP3   OH269531   4.525   0.939   1.344  0.5025  0.7443 -0.0431
16039TIP3    H169532   4.585   0.868   1.322 -0.6101 -0.2635  0.0346
16039TIP3    H269533   4.536   1.003   1.274  0.8268  0.0391 -0.6445
16040TIP3   OH269534   0.749   5.136  11.120 -0.3044 -0.0188  0.0758
16040TIP3    H169535   0.665   5.135  11.074  0.5908 -0.7321 -1.6443
16040TIP3    H269536   0.728   5.167  11.208 -2.4081 -0.4802 -0.2145
16041TIP3   OH269537   3.010   4.268   3.452 -0.2710  0.5686  0.2505
16041TIP3    H169538   2.939   4.298   3.395  0.8477  1.8668 -0.5183
16041TIP3    H269539   3.038   4.185   3.413  0.1109  1.1678 -0.7946
16042TIP3   OH269540   3.611   6.511  14.544  0.2065 -0.4066 -0.1468
16042TIP3    H169541   3.653   6.510  14.458  2.7139 -0.8226  0.9951
16042TIP3    H269542   3.652   6.439  14.591 -0.5242  0.3204  1.6808
16043TIP3   OH269543   5.409   5.649  16.916  0.0711 -0.1611  0.2462
16043TIP3    H169544   5.330   5.703  16.910 -1.0226 -1.8045 -0.7952
16043TIP3    H269545   5.384   5.575  16.971  1.2897 -0.1117  0.9170
16044TIP3   OH269546   2.091   3.115   1.240 -0.0981  0.3156 -0.1393
16044TIP3    H169547   2.058   3.042   1.187  1.8929 -1.5013  1.0017
16044TIP3    H269548   2.023   3.129   1.306 -2.1307  1.9325 -2.3779
16045TIP3   OH269549   0.217   2.410  15.261  0.6400  0.6611  0.2788
16045TIP3    H169550   0.183   2.498  15.243 -1.4760 -0.5231 -2.1136
16045TIP3    H269551   0.142   2.361  15.293  0.8289 -1.1121 -1.7201
16046TIP3   OH269552   1.437   5.503  15.399  0.5397  0.5666 -0.5128
16046TIP3    H169553   1.401   5.478  15.314 -0.6468  1.3056 -0.2512
16046TIP3    H269554   1.496   5.576  15.379  0.2859  0.7207 -0.7112
16047TIP3   OH269555   2.663   6.058  12.622 -0.0183  0.1141  0.1029
16047TIP3    H169556   2.652   6.129  12.684 -1.8004  0.6885 -0.7997
16047TIP3    H269557   2.757   6.051  12.610  0.2311  1.8049  0.7880
16048TIP3   OH269558   3.183   5.596   1.875 -0.0297  0.0912 -0.8733
16048TIP3    H169559   3.229   5.537   1.934 -0.2229  0.6625 -0.1341
16048TIP3    H269560   3.094   5.561   1.871 -0.0315  0.0804 -0.7631
16049TIP3   OH269561   1.202   1.689   2.605 -0.3936  0.2429  1.0198
16049TIP3    H169562   1.203   1.726   2.693 -0.8717 -1.9757  2.0446
16049TIP3    H269563   1.139   1.743   2.558 -1.0726  0.7332  2.4110
16050TIP3   OH269564   3.626   2.990  14.862 -0.3590  0.2489  0.4790
16050TIP3    H169565   3.650   3.001  14.770 -0.7970  0.0028  0.3319
16050TIP3    H269566   3.531   2.975  14.860 -0.1849 -0.9851  0.8645
16051TIP3   OH269567   3.710   2.078  16.594  1.0793 -0.0275 -0.4524
16051TIP3    H169568   3.615   2.084  16.580  0.9451 -0.2195  0.3314
16051TIP3    H269569   3.747   2.069  16.506  0.3599 -0.0908 -0.7529
16052TIP3   OH269570   3.557   3.402   6.030 -0.3992  0.3577  0.4392
16052TIP3    H169571   3.618   3.443   6.090  1.6608 -2.9152  0.7965
16052TIP3    H269572   3.471   3.430   6.060  0.6955  1.1500  3.0802
16053TIP3   OH269573   2.338   0.511   3.913  0.2852 -0.2351  0.2621
16053TIP3    H169574   2.289   0.545   3.838  0.7523 -0.7985 -0.3066
16053TIP3    H269575   2.285   0.536   3.989  0.0047  0.7014 -0.2140
16054TIP3   OH269576   2.956   1.073  14.851  0.5450  0.3493 -0.7206
16054TIP3    H169577   2.965   1.024  14.933  0.3387 -0.1258 -0.9741
16054TIP3    H269578   2.871   1.117  14.858  0.7831  0.7656 -0.4423
16055TIP3   OH269579   1.473   5.744   1.925  0.4860  0.1100 -0.4626
16055TIP3    H169580   1.393   5.738   1.874 -0.5933  1.0964  1.0359
16055TIP3    H269581   1.535   5.788   1.867  0.1425 -1.0823 -1.8106
16056TIP3   OH269582   6.380   6.221   2.969 -0.5876 -0.1378 -0.5863
16056TIP3    H169583   6.357   6.313   2.961  0.5810  0.1070 -1.3123
16056TIP3    H269584   6.467   6.214   2.929 -0.9432 -1.6623 -1.1699
16057TIP3   OH269585   5.178   1.333  16.802 -0.6015 -0.3143 -0.4617
16057TIP3    H169586   5.173   1.259  16.862  1.7369 -0.7940 -0.7800
16057TIP3    H269587   5.271   1.341  16.781 -0.9298  2.0276 -1.3091
16058TIP3   OH269588   2.601   5.176   3.523 -0.4683  0.6141 -0.5381
16058TIP3    H169589   2.539   5.165   3.596  1.3676 -1.1782  0.8962
16058TIP3    H269590   2.688   5.165   3.564  0.7028  0.8433 -2.8014
16059TIP3   OH269591   4.340   0.256  15.018 -0.5356 -0.5450  0.1986
16059TIP3    H169592   4.376   0.169  15.032 -0.1939 -0.2290  1.4707
16059TIP3    H269593   4.410   0.305  14.975 -0.7142 -0.8735 -0.4811
16060TIP3   OH269594   5.552   1.006   0.813  1.0665  0.0411  0.0371
16060TIP3    H169595   5.509   0.947   0.751 -1.6939  1.5241  0.3833
16060TIP3    H269596   5.561   0.954   0.893 -0.4648 -0.2391  0.0564
16061TIP3   OH269597   5.077   1.444  10.713 -0.3282 -1.0870  0.2238
16061TIP3    H169598   5.137   1.487  10.773 -0.5295 -1.5856  0.7924
16061TIP3    H269599   4.990   1.469  10.744 -0.4722 -2.5080  1.0475
16062TIP3   OH269600   3.942   3.323   1.564 -0.0758  0.0824  0.0163
16062TIP3    H169601   3.885   3.249   1.541  0.8711 -0.7909  0.3777
16062TIP3    H269602   3.921   3.341   1.656  1.7264 -1.7040  0.8489
16063TIP3   OH269603   1.862   5.300   2.303 -0.2391 -0.3477  0.2184
16063TIP3    H169604   1.876   5.380   2.354 -1.0411  0.5373 -0.9005
16063TIP3    H269605   1.950   5.264   2.290 -0.0734 -1.2340  3.1330
16064TIP3   OH269606   4.716   6.231  14.343  0.1616 -0.9846  0.0461
16064TIP3    H169607   4.653   6.303  14.345  0.9767 -0.2456 -0.0018
16064TIP3    H269608   4.783   6.261  14.281  1.1832 -1.2123  1.0244
16065TIP3   OH269609   1.296   4.635  15.797  0.1674  0.2163 -0.5824
16065TIP3    H169610   1.298   4.557  15.741 -2.4326 -1.0798  0.9522
16065TIP3    H269611   1.322   4.707  15.739  1.6405 -1.6015 -2.3221
16066TIP3   OH269612   2.178   2.223   5.659 -0.5237 -0.5154 -0.4323
16066TIP3    H169613   2.192   2.264   5.745  2.0429 -4.1804  1.1980
16066TIP3    H269614   2.238   2.269   5.601  0.9009 -0.6509  0.8541
16067TIP3   OH269615   4.491   3.688   6.659 -0.0178 -0.4055 -0.0462
16067TIP3    H169616   4.501   3.621   6.592 -0.3673 -2.2068  1.6173
16067TIP3    H269617   4.415   3.739   6.630 -1.3896 -2.3581 -0.1039
16068TIP3   OH269618   2.533   2.638   4.084 -0.1481 -0.7385  0.4121
16068TIP3    H169619   2.587   2.673   4.013 -1.3278  1.4716  0.5180
16068TIP3    H269620   2.456   2.694   4.086 -0.3816 -0.9903  3.1613
16069TIP3   OH269621   6.189   2.501   6.111 -0.3502 -0.3248  0.1227
16069TIP3    H169622   6.115   2.531   6.058  0.6457  0.4325 -0.8827
16069TIP3    H269623   6.164   2.412   6.138 -2.6546  0.7387  1.8282
16070TIP3   OH269624   3.590   1.662  15.850  0.2060 -0.3125 -0.3484
16070TIP3    H169625   3.578   1.602  15.924 -1.7292  0.1455 -0.2127
16070TIP3    H269626   3.610   1.605  15.776  0.6714 -0.9107  0.2198
16071TIP3   OH269627   5.321   4.157  12.549  0.3028  0.0061 -0.1058
16071TIP3    H169628   5.291   4.084  12.495 -1.5370  1.0269 -0.5551
16071TIP3    H269629   5.317   4.233  12.492 -0.1573  0.8558  1.0149
16072TIP3   OH269630   1.325   6.436   6.778  0.3558  0.3164  0.0268
16072TIP3    H169631   1.409   6.393   6.791 -0.3851 -0.7519  1.6483
16072TIP3    H269632   1.262   6.364   6.768 -0.1688  1.0613 -3.1733
16073TIP3   OH269633   1.132   3.537   1.391  0.0812 -0.2907  0.1555
16073TIP3    H169634   1.218   3.518   1.428 -0.2154  1.2799  1.7873
16073TIP3    H269635   1.077   3.557   1.466 -1.4584 -0.2551 -0.9269
16074TIP3   OH269636   5.291   3.401  12.007  0.4034 -0.3995 -0.1127
16074TIP3    H169637   5.225   3.399  11.938  0.7612  0.7170 -0.5095
16074TIP3    H269638   5.307   3.494  12.023  1.0258 -0.6416  0.8082
16075TIP3   OH269639   0.839   5.358  14.368 -0.7601  0.4505  0.7593
16075TIP3    H169640   0.880   5.275  14.390  0.4626  0.9562  0.4884
16075TIP3    H269641   0.846   5.411  14.448  0.8280  1.1760  0.1923
16076TIP3   OH269642   5.432   4.039  10.571  0.2625  0.0754 -0.1415
16076TIP3    H169643   5.341   4.012  10.583  0.1191  0.3403 -0.5816
16076TIP3    H269644   5.480   3.957  10.559  0.1649 -0.0957  0.5700
16077TIP3   OH269645   2.981   6.075  12.981 -0.0768  0.1979  0.4881
16077TIP3    H169646   2.896   6.120  12.983 -0.1949  0.0100 -0.1031
16077TIP3    H269647   2.968   5.998  13.037  0.9378  2.2320  3.7839
16078TIP3   OH269648   2.646   2.455  11.704 -0.4171  0.5275  0.1111
16078TIP3    H169649   2.557   2.470  11.736 -0.3300 -0.5940  0.9572
16078TIP3    H269650   2.642   2.368  11.663  0.4259  0.1879  0.7310
16079TIP3   OH269651   5.835   2.997   2.138 -0.5020 -0.0765 -0.1915
16079TIP3    H169652   5.815   3.014   2.230 -0.5200 -0.5561 -0.1055
16079TIP3    H269653   5.815   3.079   2.093 -1.8799 -0.2834  0.0106
16080TIP3   OH269654   5.531   3.413   0.921 -0.1329 -0.4469 -0.0329
16080TIP3    H169655   5.553   3.457   0.839 -1.5673 -0.8853 -0.6884
16080TIP3    H269656   5.469   3.344   0.896  0.6529 -1.6674  1.2059
16081TIP3   OH269657   4.848   0.604  12.774 -0.2685  0.0727  0.2092
16081TIP3    H169658   4.861   0.685  12.822  1.6866 -1.1052  1.7761
16081TIP3    H269659   4.824   0.540  12.840 -1.9230 -0.6696 -1.0195
16082TIP3   OH269660   1.023   2.504   1.175  0.1328  0.2058 -0.0278
16082TIP3    H169661   0.992   2.434   1.233  0.1437 -0.2650 -0.5764
16082TIP3    H269662   1.109   2.526   1.208 -0.4238  0.9340  0.9994
16083TIP3   OH269663   6.543   4.282  12.673 -0.1803  0.4250  0.6016
16083TIP3    H169664   6.504   4.349  12.729 -1.1600 -1.1719  1.9481
16083TIP3    H269665   6.567   4.212  12.734 -0.0248 -0.8124 -0.8308
16084TIP3   OH269666   2.561   1.307   3.068  0.3673 -0.4679 -0.1528
16084TIP3    H169667   2.511   1.229   3.044  0.1754 -0.4303  0.1160
16084TIP3    H269668   2.515   1.342   3.145  0.3003  0.0559 -0.4278
16085TIP3   OH269669   3.061   5.284   3.362 -0.7685  0.2220 -0.0650
16085TIP3    H169670   2.998   5.253   3.297 -0.4705 -1.0183  0.2143
16085TIP3    H269671   3.113   5.351   3.316 -1.3907  0.2747 -0.6995
16086TIP3   OH269672   4.785   4.046   3.160 -0.2357  0.3453  0.3699
16086TIP3    H169673   4.714   4.089   3.111 -1.2326 -0.6245  0.9269
16086TIP3    H269674   4.865   4.073   3.114 -0.8896  2.0633  0.1736
16087TIP3   OH269675   6.613   2.642   5.480 -0.3530  0.3623  0.4999
16087TIP3    H169676   6.540   2.665   5.538 -0.7271 -0.0974  0.2255
16087TIP3    H269677   6.643   2.557   5.512 -1.1520 -0.3282 -0.5143
16088TIP3   OH269678   3.453   3.608  11.193 -0.0855 -0.6943 -0.3048
16088TIP3    H169679   3.452   3.548  11.267  0.0552 -0.3692 -0.0338
16088TIP3    H269680   3.489   3.690  11.228 -0.1261 -0.4981 -0.7018
16089TIP3   OH269681   3.062   5.648  10.743  0.2857 -0.0763 -0.4758
16089TIP3    H169682   2.990   5.693  10.786  0.2363 -0.3409 -0.2755
16089TIP3    H269683   3.140   5.678  10.789  0.1668 -0.9752  0.3605
16090TIP3   OH269684   2.590   6.221   0.266 -0.0518 -0.1253  0.3731
16090TIP3    H169685   2.673   6.268   0.278 -1.0342  1.8024  0.0722
16090TIP3    H269686   2.578   6.217   0.171  0.0021 -0.9768  0.3976
16091TIP3   OH269687   1.738   0.004   3.825  0.1322  0.2178 -0.3480
16091TIP3    H169688   1.813   0.026   3.880  0.4645  1.2721 -1.1852
16091TIP3    H269689   1.774  -0.056   3.760 -0.2880 -1.1289  0.6122
16092TIP3   OH269690   4.745   3.670  12.833  0.3330  0.2476  0.6740
16092TIP3    H169691   4.713   3.629  12.913  0.6050  1.0270  1.1946
16092TIP3    H269692   4.795   3.746  12.863 -1.2069  1.7235 -0.2864
16093TIP3   OH269693   4.193   2.357   1.537  0.1112 -0.0201  0.0254
16093TIP3    H169694   4.170   2.274   1.495  0.2825 -0.4809  0.8058
16093TIP3    H269695   4.258   2.332   1.603  1.1019  0.9141 -0.5668
16094TIP3   OH269696   1.587   4.387   3.031 -0.0254 -0.2832  0.8776
16094TIP3    H169697   1.528   4.438   3.085  0.9374  1.0412  0.7333
16094TIP3    H269698   1.657   4.359   3.090  0.8296  0.8470  0.4408
16095TIP3   OH269699   1.730   5.611  16.990 -0.3532  0.1678  0.1845
16095TIP3    H169700   1.705   5.603  16.898  0.0874  0.0154  0.0764
16095TIP3    H269701   1.734   5.706  17.005  1.8877  0.2398 -0.6055
16096TIP3   OH269702   5.280   0.759   1.200 -0.2875 -0.3037  0.4970
16096TIP3    H169703   5.239   0.714   1.127 -0.9735  2.8278 -1.2211
16096TIP3    H269704   5.374   0.758   1.180 -0.5892  1.9707 -1.4758
16097TIP3   OH269705   3.934   4.408  13.732 -0.6638 -0.1338 -0.1923
16097TIP3    H169706   3.871   4.385  13.665 -0.0528  0.7538 -1.1038
16097TIP3    H269707   4.012   4.356  13.712  0.0963  1.3163 -1.1980
16098TIP3   OH269708   1.510   2.722  10.767  0.0097  0.0869  0.2043
16098TIP3    H169709   1.534   2.787  10.701  1.5582  2.8328  3.2057
16098TIP3    H269710   1.425   2.750  10.799 -0.8421 -1.3623 -0.6942
16099TIP3   OH269711   1.179   4.916   1.482  0.7755 -0.5707 -0.3169
16099TIP3    H169712   1.180   4.960   1.398  1.1888 -0.8609 -0.4707
16099TIP3    H269713   1.142   4.830   1.464 -0.9243  0.0321  0.1582
16100TIP3   OH269714   2.288   6.730  14.578 -0.6235  0.0446  0.1666
16100TIP3    H169715   2.203   6.757  14.542 -1.0663 -0.0057  1.1553
16100TIP3    H269716   2.267   6.659  14.639  0.0701  0.3433  0.7648
16101TIP3   OH269717   5.728   0.348  15.594  0.0642  0.0875  0.0522
16101TIP3    H169718   5.797   0.283  15.584  0.2510  0.0704  1.3601
16101TIP3    H269719   5.774   0.430  15.614 -0.2017  0.5084 -0.9817
16102TIP3   OH269720   6.366   5.621   1.730 -0.2696 -0.1710  0.5224
16102TIP3    H169721   6.455   5.602   1.700 -0.1575  0.3091  0.5503
16102TIP3    H269722   6.344   5.546   1.786  1.1931  0.9968  2.8288
16103TIP3   OH269723   2.877   6.387   2.944  0.0785 -0.1048  0.4205
16103TIP3    H169724   2.855   6.371   2.852  0.2484  0.9609  0.1882
16103TIP3    H269725   2.834   6.315   2.991  1.7876 -1.9766 -0.6820
16104TIP3   OH269726   4.136   4.956   5.314  0.0126  0.3239  0.2914
16104TIP3    H169727   4.054   5.005   5.320 -0.6074 -0.4792 -1.0132
16104TIP3    H269728   4.164   4.943   5.405 -1.0842  0.9697  0.7372
16105TIP3   OH269729   0.948   6.720   0.026  0.8937  0.0530 -0.0044
16105TIP3    H169730   0.885   6.649   0.039  1.9814 -0.8981  0.3255
16105TIP3    H269731   0.961   6.724  -0.069  2.2072 -1.5127  0.0540
16106TIP3   OH269732   3.767   1.163  13.255  0.2730 -0.2173  0.0626
16106TIP3    H169733   3.843   1.212  13.225  1.7343 -1.5006  1.4688
16106TIP3    H269734   3.795   1.123  13.337 -1.5044 -1.7789 -0.0185
16107TIP3   OH269735   0.896   3.376  15.141 -0.2369  0.3941 -0.4992
16107TIP3    H169736   0.898   3.471  15.138  0.2055  0.3853 -0.5371
16107TIP3    H269737   0.943   3.353  15.221  1.5831  0.1474 -1.5912
16108TIP3   OH269738   2.448   0.663  15.179  0.5927 -0.6400  0.5658
16108TIP3    H169739   2.401   0.726  15.124 -0.5911 -0.8960  1.2410
16108TIP3    H269740   2.537   0.663  15.145  0.2579  0.3260 -0.3705
16109TIP3   OH269741   6.560   1.694  14.504  0.0787  0.1432  0.2525
16109TIP3    H169742   6.522   1.749  14.435  1.8529  0.3801 -0.5856
16109TIP3    H269743   6.654   1.697  14.488  0.4836 -0.4089  2.2556
16110TIP3   OH269744   0.272   5.336   5.812  0.1496 -0.7075 -0.7546
16110TIP3    H169745   0.312   5.301   5.732  1.5261  1.0073 -0.8814
16110TIP3    H269746   0.228   5.415   5.783 -1.0898 -1.1510 -0.1316
16111TIP3   OH269747   5.947   5.993  16.329  0.1976  0.2665 -0.5756
16111TIP3    H169748   5.886   5.994  16.403 -0.5914  3.1895 -1.1251
16111TIP3    H269749   5.925   5.914  16.280  2.0637 -2.8887  3.1854
16112TIP3   OH269750   5.085   3.232  12.453 -0.0903  0.2957 -0.4531
16112TIP3    H169751   5.118   3.208  12.366 -1.3022 -1.3164 -0.5247
16112TIP3    H269752   5.018   3.166  12.472 -1.0123  1.5875  1.0109
16113TIP3   OH269753   0.883   4.781  16.784 -0.2752 -0.0094  0.1187
16113TIP3    H169754   0.951   4.759  16.848 -0.3208  0.1954  0.2378
16113TIP3    H269755   0.911   4.737  16.704 -1.4078 -2.1930  0.8631
16114TIP3   OH269756   1.022   6.378   3.905 -0.2746 -0.2167  0.1600
16114TIP3    H169757   0.947   6.319   3.902 -1.8061  1.7080 -2.0637
16114TIP3    H269758   1.076   6.353   3.830  0.2223 -0.1591  0.4866
16115TIP3   OH269759   2.135   1.950   4.465  0.0385  0.1235 -1.2181
16115TIP3    H169760   2.160   1.981   4.378 -2.5676  0.2369 -1.9970
16115TIP3    H269761   2.086   2.022   4.503 -0.6903 -0.7196 -0.5207
16116TIP3   OH269762   1.609   1.707   0.071 -0.2875  0.2042  0.6070
16116TIP3    H169763   1.695   1.669   0.091  0.2804  1.4183  0.5735
16116TIP3    H269764   1.576   1.656  -0.002  0.4934 -0.1743  0.5102
16117TIP3   OH269765   0.931   1.162  14.983 -0.7804 -0.4786  0.0657
16117TIP3    H169766   0.996   1.233  14.980 -1.9584  0.6392  0.2402
16117TIP3    H269767   0.855   1.197  14.938 -0.9586 -2.1411 -1.0199
16118TIP3   OH269768   0.799   6.082  15.823 -0.0315  0.4558  0.2656
16118TIP3    H169769   0.849   6.108  15.901  0.6864 -0.0543 -0.0197
16118TIP3    H269770   0.744   6.158  15.804  0.7011  1.0643  0.5301
16119TIP3   OH269771   4.904   1.132  14.069  0.5581 -0.1433  0.1419
16119TIP3    H169772   4.931   1.171  14.153 -0.1370  1.5050 -0.3460
16119TIP3    H269773   4.871   1.046  14.092  1.3722 -0.1468  1.4140
16120TIP3   OH269774   5.406   1.327   4.689  0.3737  0.1236 -0.2260
16120TIP3    H169775   5.337   1.388   4.662  0.7260 -0.4653 -2.7546
16120TIP3    H269776   5.487   1.374   4.672  0.6212 -0.4461 -0.6632
16121TIP3   OH269777   0.410   1.794  15.460 -0.3137 -0.3294  0.3710
16121TIP3    H169778   0.381   1.883  15.443  1.1772  0.5011  1.8615
16121TIP3    H269779   0.348   1.760  15.525 -1.2796 -0.6656 -0.6858
16122TIP3   OH269780   6.044   3.736   1.436 -0.9130  0.4014  0.5474
16122TIP3    H169781   6.046   3.641   1.437 -0.4965  0.3915 -0.5449
16122TIP3    H269782   5.967   3.759   1.489 -0.3614 -0.4962  1.7738
16123TIP3   OH269783   1.298   1.705   3.690 -0.7073  0.3250  0.4205
16123TIP3    H169784   1.272   1.777   3.747 -0.5524  0.9296 -0.2632
16123TIP3    H269785   1.355   1.651   3.745  0.0910  1.3251  0.6002
16124TIP3   OH269786   1.163   1.694   3.954  0.1014  0.2359 -0.7482
16124TIP3    H169787   1.095   1.753   3.922 -0.5139  0.4902  0.9306
16124TIP3    H269788   1.216   1.747   4.013  0.9774 -0.2987 -1.0343
16125TIP3   OH269789   6.662   3.273   2.505 -0.5658  0.2384 -0.3479
16125TIP3    H169790   6.629   3.204   2.447 -0.9676  0.9831 -1.0200
16125TIP3    H269791   6.666   3.351   2.450 -0.3088  0.8061  0.4573
16126TIP3   OH269792   0.638   6.294  15.775  0.1700 -0.7316 -0.3225
16126TIP3    H169793   0.551   6.304  15.738 -0.5021 -0.4270  1.2698
16126TIP3    H269794   0.670   6.383  15.788  0.7453 -0.8392 -0.9146
16127TIP3   OH269795   0.970   1.447   3.341 -0.0436  0.1102  0.3463
16127TIP3    H169796   1.005   1.495   3.416 -0.4321  0.6827  0.1682
16127TIP3    H269797   0.876   1.441   3.359 -0.2806  1.0078 -0.4922
16128TIP3   OH269798   0.276   6.563   0.080 -0.2508  0.4140 -0.8414
16128TIP3    H169799   0.366   6.569   0.111 -0.3278  0.8743 -0.6932
16128TIP3    H269800   0.278   6.604  -0.006 -0.4517  1.0632 -0.5433
16129TIP3   OH269801   5.189   0.872  11.652  0.0421  0.5549  0.3078
16129TIP3    H169802   5.124   0.842  11.715 -0.7557 -2.0352 -1.5609
16129TIP3    H269803   5.137   0.903  11.577  0.9193 -0.2560 -0.6653
16130TIP3   OH269804   1.818   3.452   5.954  0.0331 -0.0635  0.7071
16130TIP3    H169805   1.759   3.523   5.927 -0.5210 -0.0029  1.9860
16130TIP3    H269806   1.765   3.373   5.947  0.3170 -0.2227  0.3116
16131TIP3   OH269807   3.201   5.316  11.845 -0.1072  0.4140  0.0495
16131TIP3    H169808   3.263   5.388  11.857 -0.1903  0.8625 -1.8565
16131TIP3    H269809   3.256   5.239  11.827 -0.0201  0.9925 -2.5516
16132TIP3   OH269810   2.313   5.016   5.346 -0.4847  0.1275  0.0922
16132TIP3    H169811   2.276   5.099   5.375 -0.0092 -0.0873  1.3661
16132TIP3    H269812   2.378   5.040   5.280 -1.4147  0.6383 -0.6684
16133TIP3   OH269813   2.225   3.910  16.733  0.2394  0.2352 -0.0822
16133TIP3    H169814   2.167   3.835  16.731  0.3439  0.1471  0.0970
16133TIP3    H269815   2.284   3.898  16.659 -1.5009  1.5794 -1.7830
16134TIP3   OH269816   4.703   6.612  16.174  0.2049 -0.4645  1.1991
16134TIP3    H169817   4.674   6.643  16.259  1.4614  0.0115  1.4733
16134TIP3    H269818   4.677   6.520  16.171  0.8060 -0.6798  2.3978
16135TIP3   OH269819   0.717   2.087   3.579 -0.4838 -0.0360  0.6439
16135TIP3    H169820   0.678   2.007   3.616  1.0106 -0.7513  0.7555
16135TIP3    H269821   0.745   2.137   3.656 -1.1440  0.4576  0.5653
16136TIP3   OH269822   1.099   2.420   6.164  0.1445 -0.0902  0.3787
16136TIP3    H169823   1.135   2.346   6.116 -1.1868 -0.9696  0.7188
16136TIP3    H269824   1.005   2.415   6.150  0.1347  3.4910 -2.4319
16137TIP3   OH269825   0.372   0.729   0.138  0.4207  0.0066 -0.0873
16137TIP3    H169826   0.286   0.704   0.105  1.4296 -0.7880 -2.3271
16137TIP3    H269827   0.387   0.817   0.103  0.3707  0.3140  0.6428
16138TIP3   OH269828   1.770   3.306  11.861  0.7611 -0.0116 -0.2747
16138TIP3    H169829   1.730   3.389  11.833  0.1073  0.1628  1.1117
16138TIP3    H269830   1.742   3.243  11.795 -0.4227  0.4620 -0.2508
16139TIP3   OH269831   4.146   4.028   4.632  0.2708 -0.2361  0.9103
16139TIP3    H169832   4.208   4.098   4.614  0.7681 -1.1420 -1.2211
16139TIP3    H269833   4.062   4.072   4.641  0.6707  0.6842  0.2728
16140TIP3   OH269834   5.293   6.049   5.262 -0.7588  0.2018  0.0536
16140TIP3    H169835   5.286   5.963   5.221 -0.0621  0.3504 -0.3987
16140TIP3    H269836   5.317   6.031   5.353  0.3370 -0.0716 -0.2713
16141TIP3   OH269837   3.946   0.581  12.659 -0.3807  0.0041 -0.4567
16141TIP3    H169838   3.953   0.489  12.634 -0.7923 -0.1937  0.1426
16141TIP3    H269839   4.005   0.590  12.733 -1.1654 -0.0390  0.1835
16142TIP3   OH269840   3.184   3.404   3.701  0.4547  0.0555 -0.3647
16142TIP3    H169841   3.120   3.334   3.693  0.4492  0.1010 -0.7178
16142TIP3    H269842   3.206   3.427   3.611  1.7671 -0.6807 -0.2596
16143TIP3   OH269843   3.698   1.370   2.147  0.4179  0.6160 -0.7523
16143TIP3    H169844   3.711   1.360   2.053 -0.2051  0.4700 -0.8294
16143TIP3    H269845   3.692   1.465   2.161 -0.7147  0.6093 -1.0502
16144TIP3   OH269846   6.385   3.201  15.687  0.3569  0.0481  0.9395
16144TIP3    H169847   6.340   3.209  15.771  1.2292  1.5245  1.3166
16144TIP3    H269848   6.339   3.262  15.630  1.2104  0.8251  1.0479
16145TIP3   OH269849   0.235   2.214  13.937 -0.3694 -0.3932 -0.0282
16145TIP3    H169850   0.145   2.233  13.909  0.0980 -0.3511 -1.5988
16145TIP3    H269851   0.227   2.191  14.030 -2.0715 -0.8624 -0.2544
16146TIP3   OH269852   1.970   1.335   5.914  0.4378 -0.2710 -0.1631
16146TIP3    H169853   2.026   1.359   5.988  1.0251  0.7885 -0.9200
16146TIP3    H269854   1.881   1.346   5.946  0.6837  0.1804  0.3852
16147TIP3   OH269855   1.438   2.365  13.575 -0.3035 -0.9975 -0.2301
16147TIP3    H169856   1.408   2.278  13.548 -0.3567 -1.5964  1.6150
16147TIP3    H269857   1.359   2.420  13.571  0.0980 -0.4445 -3.3088
16148TIP3   OH269858   6.780   5.583  12.597 -0.2810  0.4715 -0.1526
16148TIP3    H169859   6.817   5.523  12.662 -0.0602 -1.4963 -1.9589
16148TIP3    H269860   6.779   5.531  12.516 -1.4387  2.4859 -1.4936
16149TIP3   OH269861   5.691   1.788   2.622  0.3022  0.1796 -0.4437
16149TIP3    H169862   5.599   1.794   2.596  0.1233 -0.7200 -0.0708
16149TIP3    H269863   5.715   1.697   2.604  0.2207 -0.4617  2.2412
16150TIP3   OH269864   5.485   0.932   3.673  0.5421  0.5889  0.0653
16150TIP3    H169865   5.548   0.867   3.705  0.1246  0.1091 -0.0681
16150TIP3    H269866   5.525   0.968   3.594 -0.1806 -1.0900 -1.1115
16151TIP3   OH269867   3.405   3.672   3.919  0.0892 -0.2298 -0.2013
16151TIP3    H169868   3.420   3.664   3.824  0.4562 -2.2056 -0.0183
16151TIP3    H269869   3.490   3.697   3.955 -0.1399  0.9047 -0.4026
16152TIP3   OH269870   2.046   0.830   4.508  0.0322 -0.5632 -0.2412
16152TIP3    H169871   2.038   0.796   4.419 -1.0572 -0.4304 -0.1978
16152TIP3    H269872   1.957   0.834   4.541  0.4815 -1.4630  1.1929
16153TIP3   OH269873   1.458   6.424  11.630 -0.0543 -0.6256  0.1240
16153TIP3    H169874   1.524   6.483  11.593 -1.5940  1.6494  0.7927
16153TIP3    H269875   1.508   6.364  11.687  1.6998 -0.7816 -1.4936
16154TIP3   OH269876   1.714   2.927  17.111  0.3164  0.2306 -0.1140
16154TIP3    H169877   1.624   2.954  17.092  0.5482  0.3575 -1.0772
16154TIP3    H269878   1.764   3.009  17.114  0.6580  0.0614 -1.0308
16155TIP3   OH269879   5.151   2.246   0.374  0.1851 -0.2414 -0.1332
16155TIP3    H169880   5.197   2.163   0.358  2.0220  0.3949  1.3763
16155TIP3    H269881   5.090   2.225   0.445 -0.5467 -0.6632 -0.8732
16156TIP3   OH269882   0.680   4.722   0.357 -0.3472 -0.4382  0.3245
16156TIP3    H169883   0.751   4.658   0.355 -0.4352 -0.5658  0.9132
16156TIP3    H269884   0.721   4.805   0.330  0.0440 -0.4954  0.7246
16157TIP3   OH269885   6.461   0.649  15.846  0.3677 -0.3166 -0.2231
16157TIP3    H169886   6.419   0.625  15.928  0.5879  0.4327  0.1195
16157TIP3    H269887   6.523   0.577  15.829  0.5490 -0.3244  0.4320
16158TIP3   OH269888   2.372   0.366   0.585  0.4403  0.1593  0.2420
16158TIP3    H169889   2.455   0.320   0.571 -0.2772 -0.9761 -0.4872
16158TIP3    H269890   2.326   0.313   0.650 -0.7086 -0.6304 -1.1466
16159TIP3   OH269891   3.003   1.241  16.428 -0.2310 -0.1759 -0.0023
16159TIP3    H169892   2.908   1.238  16.416 -0.1174 -0.6927 -0.9131
16159TIP3    H269893   3.015   1.254  16.522 -1.2007 -0.4671  0.1808
16160TIP3   OH269894   3.220   6.063   3.650 -0.5485 -0.5351  0.0430
16160TIP3    H169895   3.244   5.970   3.648  0.5146 -0.3761  2.1547
16160TIP3    H269896   3.303   6.110   3.651 -1.0307  0.3424  0.9395
16161TIP3   OH269897   4.506   1.911  17.251  0.2222 -0.4485 -0.6724
16161TIP3    H169898   4.441   1.843  17.268  0.9347 -0.6057  1.8503
16161TIP3    H269899   4.549   1.924  17.335  1.2646  1.9459 -1.4907
16162TIP3   OH269900   6.213   1.303  15.123  0.8126  0.2988 -0.4981
16162TIP3    H169901   6.210   1.215  15.159 -0.9608 -0.7160 -2.8807
16162TIP3    H269902   6.182   1.359  15.194  0.8981 -1.1201  0.6921
16163TIP3   OH269903   0.961   5.388  11.137 -0.0723  0.2976 -0.4908
16163TIP3    H169904   1.049   5.350  11.137 -0.9051 -1.7560  0.1075
16163TIP3    H269905   0.936   5.387  11.045  0.5106  0.8971 -0.6671
16164TIP3   OH269906   4.819   4.884  13.546  0.1838  0.3021 -0.4865
16164TIP3    H169907   4.768   4.959  13.578  2.6358  2.2685 -0.8877
16164TIP3    H269908   4.847   4.839  13.626 -4.1805 -2.5284 -0.1978
16165TIP3   OH269909   4.284   0.765   2.788 -0.3499 -0.1668  0.5011
16165TIP3    H169910   4.233   0.785   2.709 -0.6672  0.0498  0.7611
16165TIP3    H269911   4.342   0.693   2.761  0.3517  0.6675 -0.2485
16166TIP3   OH269912   4.758   5.295   4.368  0.5763 -0.6449 -0.0953
16166TIP3    H169913   4.808   5.299   4.449  0.5690 -2.1408  0.0223
16166TIP3    H269914   4.822   5.264   4.303  0.3131 -0.5446 -0.4019
16167TIP3   OH269915   0.571   0.340  14.663 -0.1072 -0.0580  0.2613
16167TIP3    H169916   0.520   0.412  14.700  0.6669  0.2512  0.7335
16167TIP3    H269917   0.661   0.358  14.689 -0.0766 -1.9738  1.6640
16168TIP3   OH269918   3.603   1.829   4.633 -0.0381  0.3873  0.1632
16168TIP3    H169919   3.539   1.899   4.646  0.2654  0.4458  1.4532
16168TIP3    H269920   3.622   1.797   4.721  1.4158  0.1099 -0.2248
16169TIP3   OH269921   4.173   3.206  16.631  0.1794 -0.2008 -0.6023
16169TIP3    H169922   4.125   3.173  16.707 -1.7209  0.5913 -1.3779
16169TIP3    H269923   4.214   3.287  16.662  0.0019 -0.2501 -0.2294
16170TIP3   OH269924   4.349   0.917   4.212  0.8125  0.2382  0.4930
16170TIP3    H169925   4.292   0.967   4.153  1.2973  2.0265  1.4690
16170TIP3    H269926   4.420   0.886   4.156  0.8625  1.2571 -0.0286
16171TIP3   OH269927   4.433   3.796  16.856  0.4117  0.6748 -0.6563
16171TIP3    H169928   4.416   3.837  16.940 -1.5390 -0.0364 -0.6572
16171TIP3    H269929   4.371   3.837  16.796 -1.3364 -1.8484 -0.7401
16172TIP3   OH269930   4.873   5.870  14.245 -0.3379  0.2297 -0.1140
16172TIP3    H169931   4.849   5.874  14.338 -0.8650  1.6415 -0.2782
16172TIP3    H269932   4.815   5.934  14.203  0.2492 -0.0171 -1.3390
16173TIP3   OH269933   1.860   4.488   1.824 -0.4357  0.6987 -0.3380
16173TIP3    H169934   1.816   4.485   1.739  0.2998 -0.8181 -0.7048
16173TIP3    H269935   1.792   4.512   1.886 -1.1201  1.2302 -1.2732
16174TIP3   OH269936   5.037   3.957   3.784  0.0998  0.2165  0.1676
16174TIP3    H169937   5.039   4.038   3.733 -1.4005 -0.1743 -0.5581
16174TIP3    H269938   5.103   3.970   3.852  0.4372  1.7264 -0.4157
16175TIP3   OH269939   6.421   1.131  12.161 -0.3521  0.1281 -0.2043
16175TIP3    H169940   6.498   1.086  12.197 -1.0275 -0.3820  0.6214
16175TIP3    H269941   6.424   1.218  12.200  0.3643  0.4652 -0.9752
16176TIP3   OH269942   5.333   4.101   4.679  0.2129 -0.1804  0.8272
16176TIP3    H169943   5.330   4.149   4.762 -3.8224 -1.9633  1.9368
16176TIP3    H269944   5.256   4.131   4.631  1.2457 -0.8307 -1.3747
16177TIP3   OH269945   0.500   0.889   5.529 -0.1212  0.2782  0.1797
16177TIP3    H169946   0.465   0.907   5.442 -0.4007 -0.7582  0.0610
16177TIP3    H269947   0.441   0.823   5.566  2.4440 -2.7143 -0.6247
16178TIP3   OH269948   2.887   3.514   2.556 -0.0486  0.0309 -0.7703
16178TIP3    H169949   2.960   3.498   2.495 -0.0236 -2.6261 -0.1560
16178TIP3    H269950   2.923   3.495   2.642 -0.9070  0.8712 -0.2070
16179TIP3   OH269951   0.023   2.427  11.924  0.3834 -0.0949  0.0975
16179TIP3    H169952  -0.051   2.428  11.863 -0.2761  1.1457  0.8704
16179TIP3    H269953   0.015   2.344  11.970 -0.5780  0.0400  0.2036
16180TIP3   OH269954   4.714   4.338   2.082 -0.1776  0.0476  0.5565
16180TIP3    H169955   4.781   4.271   2.097 -0.3294 -0.0052  0.9999
16180TIP3    H269956   4.746   4.415   2.130  1.3845  1.2165 -2.1093
16181TIP3   OH269957   6.389   5.989   0.214 -0.3547  0.0033 -0.3630
16181TIP3    H169958   6.411   5.939   0.135  0.0643  0.2954 -0.4354
16181TIP3    H269959   6.467   5.980   0.269 -1.3029 -1.7061  0.8002
16182TIP3   OH269960   2.875   1.228  11.940 -0.5349  0.5174  0.3195
16182TIP3    H169961   2.837   1.250  11.855 -1.2886  0.4612  0.6250
16182TIP3    H269962   2.844   1.139  11.958  1.1254 -0.1820 -0.1545
16183TIP3   OH269963   5.966   5.046   3.512  0.2597 -0.4311  0.0331
16183TIP3    H169964   5.903   4.999   3.566  1.1396 -1.6830  0.0024
16183TIP3    H269965   5.976   5.131   3.555 -0.7568 -0.5658  0.5463
16184TIP3   OH269966   5.388   0.032  17.010  0.9703 -0.0091 -0.5395
16184TIP3    H169967   5.330  -0.014  17.071  1.2364  1.3307  0.7884
16184TIP3    H269968   5.458  -0.031  16.993 -0.0364 -1.0771 -0.9375
16185TIP3   OH269969   2.301   3.919  12.651  0.0753 -0.6664 -0.0652
16185TIP3    H169970   2.347   3.987  12.700  0.2518 -1.5490  1.0312
16185TIP3    H269971   2.369   3.856  12.627  0.3022  0.4622 -2.8577
16186TIP3   OH269972   4.692   5.715   2.558 -0.7191 -0.0177  0.2686
16186TIP3    H169973   4.630   5.655   2.517 -0.5175  0.0038 -0.0763
16186TIP3    H269974   4.637   5.783   2.598 -0.9445 -0.4228  0.6522
16187TIP3   OH269975   0.164   4.340   4.662 -0.6441  0.4234  0.0649
16187TIP3    H169976   0.153   4.345   4.757 -0.6089  3.4063  0.0366
16187TIP3    H269977   0.151   4.431   4.633 -2.1892 -0.6428 -2.9765
16188TIP3   OH269978   2.976   2.529  13.578 -0.1767 -0.9179  0.2752
16188TIP3    H169979   2.883   2.545  13.587 -0.0441 -0.6900  1.3433
16188TIP3    H269980   3.018   2.606  13.616  0.4514 -0.6516 -0.9099
16189TIP3   OH269981   1.754   4.911   5.925  0.2469 -0.1238 -0.5385
16189TIP3    H169982   1.824   4.853   5.896  0.6374 -0.1469  0.4193
16189TIP3    H269983   1.728   4.877   6.011  2.0328  2.3693  1.1255
16190TIP3   OH269984   6.310   2.116  17.114  0.6347  0.2045  0.1487
16190TIP3    H169985   6.398   2.153  17.120 -0.0599  2.0511 -0.2258
16190TIP3    H269986   6.285   2.101  17.205  0.5461  1.7394  0.4043
16191TIP3   OH269987   6.266   3.511   6.211 -0.7259  0.3462 -0.0198
16191TIP3    H169988   6.332   3.446   6.236 -1.2503 -1.7100 -3.3925
16191TIP3    H269989   6.299   3.593   6.247  1.4138 -1.2834  2.0823
16192TIP3   OH269990   6.659   4.137  11.945 -0.2630 -0.3172  0.3934
16192TIP3    H169991   6.640   4.207  12.008 -0.0528 -0.2308  0.3605
16192TIP3    H269992   6.754   4.130  11.945 -0.0260  1.7286 -2.1111
16193TIP3   OH269993   3.018   1.761   5.444  0.2223  0.0319  0.0346
16193TIP3    H169994   3.092   1.752   5.504 -0.4263  0.4749  0.9312
16193TIP3    H269995   2.968   1.835   5.479 -1.2062 -0.9103  0.0817
16194TIP3   OH269996   0.675   0.720   5.802  0.3236  0.5442  0.4681
16194TIP3    H169997   0.624   0.649   5.763 -0.6601  1.4844 -0.0265
16194TIP3    H269998   0.765   0.703   5.774 -0.3039  1.0898 -2.2211
16195TIP3   OH269999   3.195   0.626  16.360 -0.1935  0.0822  0.5045
16195TIP3    H170000   3.177   0.720  16.354  1.7461  0.4117 -2.7248
16195TIP3    H270001   3.266   0.620  16.423  0.6611  1.0349 -0.3200
16196TIP3   OH270002   1.998   4.214  12.205 -0.0862 -0.1347  0.0951
16196TIP3    H170003   1.904   4.204  12.220 -0.0779 -0.1960  0.1071
16196TIP3    H270004   2.039   4.177  12.283 -0.1056  2.0670  1.2557
16197TIP3   OH270005   1.149   2.367  16.254 -0.0800  0.0352  0.3290
16197TIP3    H170006   1.215   2.397  16.192  0.0963 -0.0610  0.4684
16197TIP3    H270007   1.146   2.434  16.322 -1.5046  1.0341 -0.6435
16198TIP3   OH270008   5.982   4.047   6.242 -0.7467 -0.4689 -0.9306
16198TIP3    H170009   6.049   3.985   6.270 -0.3229 -0.7810 -2.5292
16198TIP3    H270010   6.029   4.131   6.237 -0.5378 -0.6285 -1.7525
16199TIP3   OH270011   3.929   1.447   0.535  0.5753  0.1294 -0.2666
16199TIP3    H170012   3.980   1.424   0.613 -2.4290  0.3286  1.9129
16199TIP3    H270013   3.991   1.496   0.480  3.2419 -1.3456  1.2178
16200TIP3   OH270014   3.896   2.899  11.609  0.1381 -0.0568  0.1776
16200TIP3    H170015   3.959   2.844  11.562  0.5654  0.6508 -0.1008
16200TIP3    H270016   3.825   2.840  11.633 -0.1229 -0.4576 -1.4174
16201TIP3   OH270017   0.962   4.092  13.456 -0.4517 -0.5333 -0.3719
16201TIP3    H170018   1.003   4.070  13.540 -1.5930  0.8514  0.6159
16201TIP3    H270019   1.018   4.161  13.419  0.7870 -2.0536 -1.4293
16202TIP3   OH270020   3.059   2.263   2.926  0.9946 -0.0125 -0.1201
16202TIP3    H170021   3.148   2.248   2.959  0.8459  0.6208  0.6124
16202TIP3    H270022   3.005   2.199   2.971  1.0186 -0.1662 -0.3052
16203TIP3   OH270023   6.762   5.778   5.493  0.1776 -0.4503 -0.0025
16203TIP3    H170024   6.763   5.858   5.440  0.7629  0.3073  1.1183
16203TIP3    H270025   6.832   5.790   5.557 -1.5866 -0.5473  2.0622
16204TIP3   OH270026   3.982   5.444  14.495 -0.6930 -0.2302 -0.3749
16204TIP3    H170027   3.993   5.518  14.554  0.4885  0.8090 -1.8340
16204TIP3    H270028   4.027   5.372  14.538 -1.6713 -0.0904  0.9560
16205TIP3   OH270029   6.140   4.386  14.357 -0.2194 -0.5195  0.0264
16205TIP3    H170030   6.116   4.478  14.364 -1.3808 -0.8010 -0.0881
16205TIP3    H270031   6.173   4.363  14.444 -1.1210 -0.3131  0.4329
16206TIP3   OH270032   5.620   1.683  14.542  0.0396 -0.5376  0.4505
16206TIP3    H170033   5.638   1.763  14.491 -0.3877 -0.8642 -0.2343
16206TIP3    H270034   5.594   1.716  14.628 -2.2894  0.2056 -0.4546
16207TIP3   OH270035   2.463   2.167   3.668 -0.2988 -0.3303  0.5220
16207TIP3    H170036   2.369   2.154   3.683  0.0340 -1.2707  1.9785
16207TIP3    H270037   2.495   2.081   3.640  0.0143  0.1776 -0.7603
16208TIP3   OH270038   4.391   6.480   1.303 -0.0543  0.3140 -0.4927
16208TIP3    H170039   4.338   6.403   1.282 -2.3663  1.6992 -0.1262
16208TIP3    H270040   4.467   6.445   1.349 -1.0681 -1.7535 -0.2592
16209TIP3   OH270041   4.997   4.342   5.459  0.6657 -0.3300 -0.2616
16209TIP3    H170042   5.089   4.318   5.475  0.6128  0.2624  1.0345
16209TIP3    H270043   4.997   4.438   5.460 -0.0144 -0.3310  0.0103
16210TIP3   OH270044   3.451   5.716   4.850 -0.0521  0.3492 -0.0081
16210TIP3    H170045   3.430   5.728   4.758 -0.4919  1.6504  0.2455
16210TIP3    H270046   3.457   5.805   4.886  1.1931 -0.1001  0.9812
16211TIP3   OH270047   0.036   6.110   2.164 -0.0538 -0.6484  0.1646
16211TIP3    H170048   0.085   6.099   2.083  0.7612 -0.8959  0.6816
16211TIP3    H270049   0.026   6.021   2.198 -1.5385 -0.6989 -0.3042
16212TIP3   OH270050   5.769   4.846   1.291 -0.0054 -0.4429 -0.4243
16212TIP3    H170051   5.847   4.797   1.319 -0.1206 -1.1510 -1.3111
16212TIP3    H270052   5.786   4.936   1.319  0.1044 -1.0024  1.4611
16213TIP3   OH270053   5.481   6.416  14.895 -0.2891 -0.2357 -0.2728
16213TIP3    H170054   5.537   6.493  14.899 -0.5253 -0.1104  0.9958
16213TIP3    H270055   5.409   6.442  14.837 -1.5262  1.3456  1.8005
16214TIP3   OH270056   4.106   2.000  17.205  0.0828  0.0946  0.7686
16214TIP3    H170057   4.058   2.038  17.132 -0.2838 -1.9794 -0.1604
16214TIP3    H270058   4.041   1.949  17.253  1.0984 -2.1559 -0.0819
16215TIP3   OH270059   0.858   0.756   3.898 -0.0573  0.0012 -0.7830
16215TIP3    H170060   0.876   0.701   3.975 -1.0989  1.9744  0.9591
16215TIP3    H270061   0.938   0.807   3.886 -0.1115  0.1180 -0.6440
16216TIP3   OH270062   5.373   2.821  16.886  0.0249  0.0376 -0.3961
16216TIP3    H170063   5.419   2.902  16.860 -2.4606  1.5002 -0.5783
16216TIP3    H270064   5.378   2.765  16.808  1.1015  0.3116 -0.5432
16217TIP3   OH270065   6.077   5.566   3.438 -0.3377  0.3937 -0.1814
16217TIP3    H170066   6.163   5.604   3.421  0.4611 -0.8239  0.9820
16217TIP3    H270067   6.071   5.492   3.378 -1.2604  1.3976 -1.3726
16218TIP3   OH270068   3.989   5.986   0.760  0.2111 -0.6428 -0.6803
16218TIP3    H170069   3.893   5.982   0.751  0.1882  0.0486 -0.8861
16218TIP3    H270070   4.006   5.960   0.850 -0.3023  0.6220 -0.1937
16219TIP3   OH270071   1.423   5.945  11.596 -0.2852  0.0189  0.2411
16219TIP3    H170072   1.400   6.004  11.525 -0.6991  1.1091  1.2442
16219TIP3    H270073   1.344   5.895  11.613 -0.0574 -0.5494 -0.3366
16220TIP3   OH270074   2.669   3.947  15.003 -0.5621  0.8587  0.6725
16220TIP3    H170075   2.598   3.899  14.961 -0.7766  1.0523  0.8124
16220TIP3    H270076   2.741   3.944  14.940 -0.6022  0.4263  0.6470
16221TIP3   OH270077   0.819   0.045  14.302 -0.0533  0.0263 -0.6092
16221TIP3    H170078   0.738  -0.002  14.323 -0.6083  1.5558  0.8835
16221TIP3    H270079   0.810   0.069  14.210 -1.8175  1.0739 -0.2204
16222TIP3   OH270080   4.895   5.700   6.254  0.1476 -0.0044 -0.1419
16222TIP3    H170081   4.902   5.636   6.325  1.8965  0.2467 -0.0332
16222TIP3    H270082   4.872   5.782   6.297  0.5395  0.0025  0.0572
16223TIP3   OH270083   2.023   2.472  12.745  0.4928 -0.0515  0.0375
16223TIP3    H170084   1.940   2.425  12.740  0.3525  0.1508  0.4308
16223TIP3    H270085   2.009   2.538  12.813  0.9640  0.0005  0.0854
16224TIP3   OH270086   4.488   6.560   2.690 -0.4942  0.6727  0.2893
16224TIP3    H170087   4.501   6.542   2.597 -0.9273  1.7140  0.0174
16224TIP3    H270088   4.433   6.488   2.720 -0.6225  0.4992 -0.3356
16225TIP3   OH270089   0.288   3.711  12.756  0.0245 -0.0994  0.3053
16225TIP3    H170090   0.340   3.778  12.712  1.4382 -1.1980  0.2305
16225TIP3    H270091   0.347   3.673  12.820  0.0716 -2.8542 -1.2313
16226TIP3   OH270092   6.014   2.078  15.564 -0.3516 -0.0157  0.5025
16226TIP3    H170093   6.054   2.101  15.480 -0.6148 -1.1488  0.0515
16226TIP3    H270094   5.960   2.002  15.545  0.2324 -0.8017  1.8645
16227TIP3   OH270095   5.606   1.608  12.564  0.5655 -0.6819  0.1658
16227TIP3    H170096   5.541   1.569  12.505  0.0564 -2.0754  1.5952
16227TIP3    H270097   5.596   1.560  12.646  1.5768  0.8903  1.2616
16228TIP3   OH270098   2.262   4.142   0.930 -0.5452 -0.8541 -0.4174
16228TIP3    H170099   2.303   4.205   0.989 -0.3035  0.8475 -2.3061
16228TIP3    H270100   2.202   4.092   0.986  1.1995 -0.7719  1.6368
16229TIP3   OH270101   1.775   5.382   5.845  0.4846 -0.1041  0.0566
16229TIP3    H170102   1.731   5.298   5.837  2.1240 -0.8751 -1.4272
16229TIP3    H270103   1.847   5.378   5.782  1.4204  1.8937  0.9114
16230TIP3   OH270104   4.686   3.763   4.458  0.2642  0.4012  0.5168
16230TIP3    H170105   4.652   3.800   4.376  1.4870  0.0101 -0.2024
16230TIP3    H270106   4.765   3.716   4.431  1.3365  1.2094  2.0741
16231TIP3   OH270107   0.459   5.568   5.625 -0.4501  0.2683 -0.0636
16231TIP3    H170108   0.449   5.621   5.705 -1.5311  0.6032 -0.4101
16231TIP3    H270109   0.479   5.632   5.557  0.1806  0.0124 -0.1225
16232TIP3   OH270110   3.515   5.283   1.921  0.4707  0.4201  0.0224
16232TIP3    H170111   3.433   5.314   1.883  0.0121  1.5208  1.7869
16232TIP3    H270112   3.581   5.343   1.887  0.0743  1.3603  0.8633
16233TIP3   OH270113   5.981   6.230  15.439 -0.8426  0.1443  0.2111
16233TIP3    H170114   5.901   6.252  15.486 -0.6771 -0.6012  0.8562
16233TIP3    H270115   6.015   6.152  15.483 -0.0280  0.1530 -0.3690
16234TIP3   OH270116   5.922   2.244   4.681 -0.2148  0.4266 -0.5020
16234TIP3    H170117   5.854   2.218   4.743  0.3663 -0.3418 -0.1720
16234TIP3    H270118   5.940   2.165   4.630  2.2102 -0.1737  1.1017
16235TIP3   OH270119   4.139   1.417  16.935  0.0357  0.1087 -0.0124
16235TIP3    H170120   4.161   1.510  16.945 -0.3548  0.2818 -0.6938
16235TIP3    H270121   4.088   1.397  17.013  0.5549  0.3271  0.3936
16236TIP3   OH270122   4.082   4.967  13.569  0.2545  0.0816 -0.1242
16236TIP3    H170123   4.029   5.046  13.559 -2.1365 -1.7227 -3.7762
16236TIP3    H270124   4.150   4.974  13.502 -0.0879 -1.0186 -0.5978
16237TIP3   OH270125   3.893   2.828   5.802 -0.0276 -0.6269 -0.0204
16237TIP3    H170126   3.865   2.744   5.837 -0.3638  0.6079  2.9797
16237TIP3    H270127   3.988   2.829   5.814 -0.1469 -0.1887  1.0440
16238TIP3   OH270128   2.801   1.209  15.532  0.0551 -0.6492  0.7363
16238TIP3    H170129   2.828   1.266  15.460  3.2214 -1.9538  0.7551
16238TIP3    H270130   2.766   1.269  15.598  0.4569  0.9369 -0.4242
16239TIP3   OH270131   1.069   0.988  17.239  0.2360  0.2046  0.2399
16239TIP3    H170132   1.144   0.932  17.221  2.2459  2.2237  1.6918
16239TIP3    H270133   1.055   1.035  17.157  0.8853  0.1344  0.0802
16240TIP3   OH270134   2.882   6.694  15.109 -0.1349 -0.0240  0.1295
16240TIP3    H170135   2.875   6.598  15.108  2.6995 -0.3311  0.1864
16240TIP3    H270136   2.928   6.714  15.191 -1.2765  1.4866  0.4513
16241TIP3   OH270137   2.242   1.287   2.344  0.1626 -0.1817  0.6153
16241TIP3    H170138   2.180   1.215   2.335 -0.6297  0.6489 -0.8388
16241TIP3    H270139   2.307   1.272   2.275  1.1233 -0.5541  1.5615
16242TIP3   OH270140   3.711   6.581   3.392 -0.4045  0.4334 -0.5223
16242TIP3    H170141   3.759   6.664   3.403  0.7940 -0.1670 -0.9686
16242TIP3    H270142   3.762   6.534   3.326  0.3652 -1.7015  1.4815
16243TIP3   OH270143   3.165   6.518   2.304 -0.4357  0.0480  0.1631
16243TIP3    H170144   3.075   6.487   2.302 -0.5171  0.0633  1.9474
16243TIP3    H270145   3.186   6.525   2.397  1.0863  0.9869 -0.2123
16244TIP3   OH270146   0.804   3.032  13.863  0.1242  0.5794  0.1117
16244TIP3    H170147   0.730   2.999  13.812  0.2588  1.5372 -0.7396
16244TIP3    H270148   0.869   2.961  13.861 -0.1337  0.3552 -0.5001
16245TIP3   OH270149   3.778   3.323  13.489 -0.2587 -0.5019  0.2762
16245TIP3    H170150   3.728   3.386  13.438  0.5649 -1.7326 -2.2352
16245TIP3    H270151   3.718   3.250  13.504 -0.0336 -0.8316 -0.3898
16246TIP3   OH270152   6.392   3.873  13.571  0.2672 -0.0735  0.2666
16246TIP3    H170153   6.376   3.845  13.661  0.9149 -3.9071 -0.6314
16246TIP3    H270154   6.376   3.795  13.518 -1.6211  2.3632 -3.2291
16247TIP3   OH270155   3.694   5.435   0.496 -0.5625  0.3380 -0.0459
16247TIP3    H170156   3.686   5.449   0.590  0.0617  0.0139  0.0576
16247TIP3    H270157   3.768   5.374   0.486  0.2799  1.4299 -0.8108
16248TIP3   OH270158   5.613   2.106  11.875 -0.0478  0.0577 -0.1075
16248TIP3    H170159   5.592   2.198  11.857  2.7835  0.4871 -1.7858
16248TIP3    H270160   5.572   2.057  11.804  0.0376  0.2512 -0.2909
16249TIP3   OH270161   1.400   3.562  15.295  0.5550 -0.2059 -0.5713
16249TIP3    H170162   1.471   3.566  15.231  1.4159 -0.6964  0.3110
16249TIP3    H270163   1.350   3.484  15.271  1.2839 -0.7854 -0.2603
16250TIP3   OH270164   5.840   0.254  13.749 -0.2145 -0.0839 -0.9149
16250TIP3    H170165   5.839   0.259  13.844  0.0803 -0.4943 -0.8862
16250TIP3    H270166   5.920   0.300  13.723  0.9461 -1.9178 -0.8173
16251TIP3   OH270167   5.340   0.288  13.314  0.1873 -0.2198  0.2683
16251TIP3    H170168   5.338   0.206  13.363  2.5270 -0.7065 -0.3167
16251TIP3    H270169   5.248   0.311  13.302 -0.5081 -1.7384  2.0885
16252TIP3   OH270170   3.244   2.950  16.172 -0.4325  0.3523 -0.3136
16252TIP3    H170171   3.163   2.933  16.124  0.0732  1.1479 -1.5022
16252TIP3    H270172   3.263   2.867  16.216 -2.0499  0.2513  0.2717
16253TIP3   OH270173   5.991   3.736   3.436  0.5613 -0.2149 -0.1888
16253TIP3    H170174   5.945   3.816   3.461 -0.6322 -1.0762  0.4435
16253TIP3    H270175   6.058   3.725   3.504  0.1193 -0.2506  0.2455
16254TIP3   OH270176   3.312   1.679   3.710  0.2783 -0.3488  0.0255
16254TIP3    H170177   3.400   1.714   3.719  0.6488 -0.9156 -1.1256
16254TIP3    H270178   3.263   1.747   3.664 -0.1061  0.2764  1.3289
16255TIP3   OH270179   5.175   6.159   4.971 -0.0254  0.1270 -0.0159
16255TIP3    H170180   5.166   6.074   4.928  0.9845  1.3194 -2.7601
16255TIP3    H270181   5.095   6.168   5.023 -1.1734 -1.5811 -1.3797
16256TIP3   OH270182   4.892   2.585  15.063  0.2212  0.1968  0.0895
16256TIP3    H170183   4.906   2.493  15.044 -2.7489 -0.6373  1.4488
16256TIP3    H270184   4.828   2.615  14.999 -1.8138  0.1662  1.9803
16257TIP3   OH270185   0.697   1.336  14.928 -0.4640  0.2769  0.1837
16257TIP3    H170186   0.652   1.334  15.013 -0.5101  0.4482  0.1639
16257TIP3    H270187   0.627   1.329  14.863 -0.3706 -0.6233  0.1693
16258TIP3   OH270188   2.965   4.732   3.199  0.0665  0.4316  0.2707
16258TIP3    H170189   2.922   4.651   3.224 -2.0363  1.5386  0.4261
16258TIP3    H270190   3.052   4.705   3.170 -0.5163 -1.8369  0.4646
16259TIP3   OH270191   2.510   5.070   0.652 -0.0937 -0.6399  0.1881
16259TIP3    H170192   2.524   5.111   0.567 -0.0834 -2.6574 -0.8512
16259TIP3    H270193   2.485   5.142   0.710  0.0524  0.8121 -1.4664
16260TIP3   OH270194   0.319   2.490  16.386 -0.3424  0.2923  0.0513
16260TIP3    H170195   0.371   2.505  16.464  0.9193  1.0118 -0.8954
16260TIP3    H270196   0.245   2.437  16.416  0.1803  0.4479  1.6882
16261TIP3   OH270197   5.498   1.780  11.203  0.4058 -0.8794 -0.1703
16261TIP3    H170198   5.474   1.823  11.284  0.5545 -0.7251 -0.2084
16261TIP3    H270199   5.523   1.851  11.144  0.2115 -0.9837 -0.3821
16262TIP3   OH270200   2.782   2.937  11.468  0.2813 -0.4401 -0.1752
16262TIP3    H170201   2.727   2.871  11.426  0.4911 -0.8202  0.1478
16262TIP3    H270202   2.721   3.007  11.492  0.1954 -0.0958 -1.3475
16263TIP3   OH270203   0.888   4.580  11.870  0.4366 -1.0295  0.2843
16263TIP3    H170204   0.937   4.649  11.916  1.3355 -0.8124 -0.9391
16263TIP3    H270205   0.844   4.531  11.939  1.1916 -0.2958  1.3109
16264TIP3   OH270206   0.479   6.229   4.057 -0.2624  0.0835  0.1957
16264TIP3    H170207   0.550   6.214   3.995 -0.2310 -0.5338  0.3662
16264TIP3    H270208   0.524   6.238   4.142 -0.4142 -0.9157  0.3949
16265TIP3   OH270209   4.219   3.140  11.689 -0.1714 -0.1102  0.7599
16265TIP3    H170210   4.301   3.169  11.648 -0.2093 -0.0684  0.7131
16265TIP3    H270211   4.194   3.214  11.745 -2.8577  2.2165 -3.0137
16266TIP3   OH270212   2.645   6.761   1.315  0.1014  0.0712 -0.3801
16266TIP3    H170213   2.560   6.790   1.282 -0.4150 -2.0009 -1.0539
16266TIP3    H270214   2.636   6.666   1.324  2.6474 -0.3553 -1.4254
16267TIP3   OH270215   5.307   0.357   0.566 -0.6819  0.1769 -0.9636
16267TIP3    H170216   5.366   0.341   0.640 -1.7967  1.6162  0.3039
16267TIP3    H270217   5.357   0.329   0.489  1.2666  0.4183  0.1473
16268TIP3   OH270218   0.447   4.499   1.094  0.0461  0.2913 -0.0071
16268TIP3    H170219   0.532   4.541   1.078  1.3171 -1.6234  1.2226
16268TIP3    H270220   0.434   4.442   1.019  0.6730 -0.5970  0.5346
16269TIP3   OH270221   3.701   1.518   5.555 -0.7225  0.1533  0.4173
16269TIP3    H170222   3.625   1.517   5.496  0.2603  1.2199 -0.9495
16269TIP3    H270223   3.721   1.610   5.565 -1.0574  0.0144  2.7814
16270TIP3   OH270224   3.415   4.056   2.739 -0.0867 -0.3483  0.4446
16270TIP3    H170225   3.431   3.963   2.722  0.0689 -0.4310  1.0383
16270TIP3    H270226   3.319   4.063   2.739 -0.1188 -0.1223 -1.6163
16271TIP3   OH270227   0.192   0.141  15.769  0.8779  0.2776  0.9610
16271TIP3    H170228   0.163   0.229  15.793  0.8779  0.6240 -0.2460
16271TIP3    H270229   0.213   0.147  15.675  1.4983 -0.8447  1.0085
16272TIP3   OH270230   3.264   6.254  14.287 -0.2029 -0.4576 -0.1315
16272TIP3    H170231   3.317   6.328  14.317 -0.0751 -0.5834 -0.0490
16272TIP3    H270232   3.230   6.282  14.202 -2.2133  0.7341  0.9929
16273TIP3   OH270233   5.582   4.298   2.589 -0.1207 -0.7797 -0.1407
16273TIP3    H170234   5.622   4.211   2.595 -0.1225 -0.6891  1.8970
16273TIP3    H270235   5.648   4.357   2.626 -0.1140  0.1189 -1.5203
16274TIP3   OH270236   4.142   3.924  11.748  0.8512  0.1983  0.3579
16274TIP3    H170237   4.135   3.832  11.722  0.7216  0.2518  0.1975
16274TIP3    H270238   4.077   3.935  11.817 -0.0619  0.4777 -0.5138
16275TIP3   OH270239   5.917   1.061   5.499 -0.2999 -0.1863  0.4555
16275TIP3    H170240   5.934   1.149   5.533 -2.6550  0.8451 -0.8187
16275TIP3    H270241   5.825   1.063   5.472 -0.4314 -3.0786  0.4168
16276TIP3   OH270242   6.180   0.954   3.065 -0.1590 -0.0930 -0.0346
16276TIP3    H170243   6.094   0.996   3.057 -0.6447 -1.0762 -0.1660
16276TIP3    H270244   6.207   0.972   3.155 -0.4506  0.3406 -0.0323
16277TIP3   OH270245   1.645   3.110   1.684 -0.5749 -0.2971  0.1055
16277TIP3    H170246   1.594   3.162   1.622 -2.1156 -0.9330  0.7836
16277TIP3    H270247   1.579   3.067   1.739  0.6588 -2.4231  0.0056
16278TIP3   OH270248   1.230   5.744  10.759 -0.4268 -0.2040  0.1985
16278TIP3    H170249   1.315   5.715  10.724  0.2447  1.7130  0.1092
16278TIP3    H270250   1.165   5.698  10.706  0.5462 -1.7919  0.3338
16279TIP3   OH270251   1.527   0.088   2.216  0.2296  0.4741  0.4318
16279TIP3    H170252   1.450   0.098   2.160 -0.4001  3.2947  1.6490
16279TIP3    H270253   1.541   0.175   2.254  3.9311  0.0668  0.4044
16280TIP3   OH270254   5.109   4.250  12.887  0.1346  0.0338  0.1475
16280TIP3    H170255   5.181   4.225  12.944 -1.4879 -2.8193  1.1543
16280TIP3    H270256   5.103   4.179  12.823 -1.0734  0.7718 -0.6072
16281TIP3   OH270257   3.250   1.518  12.751 -0.5917  0.1373  0.2430
16281TIP3    H170258   3.265   1.483  12.839  2.7684  0.9278  0.1403
16281TIP3    H270259   3.267   1.612  12.759 -1.3817  0.4150 -1.0593
16282TIP3   OH270260   5.215   3.101  13.038  0.4639  0.1814 -0.1088
16282TIP3    H170261   5.192   3.194  13.048 -0.0664  0.5123 -3.2254
16282TIP3    H270262   5.145   3.065  12.983  1.0719 -1.8843  0.3977
16283TIP3   OH270263   2.153   0.482   1.221 -0.1802  0.0630  0.6396
16283TIP3    H170264   2.124   0.527   1.141 -0.3710  0.9558  1.1888
16283TIP3    H270265   2.131   0.543   1.291 -1.6798 -1.4652  1.5616
16284TIP3   OH270266   2.631   4.888  16.227  0.8459  0.3580  0.1974
16284TIP3    H170267   2.722   4.906  16.204  0.5999  1.1368 -0.1914
16284TIP3    H270268   2.611   4.804  16.185  0.8648  1.0249 -1.2033
16285TIP3   OH270269   4.959   4.908  16.333  0.2252 -0.3217 -0.1233
16285TIP3    H170270   4.952   4.953  16.417  0.8382  0.2781 -0.3817
16285TIP3    H270271   5.047   4.870  16.333  1.2991  1.9657 -1.5691
16286TIP3   OH270272   5.704   5.892  13.389  0.5744 -0.2464  0.6841
16286TIP3    H170273   5.694   5.932  13.303 -0.5662  0.9921  1.3407
16286TIP3    H270274   5.711   5.966  13.449  2.1616 -1.0889  1.5982
16287TIP3   OH270275   5.661   5.999  10.950 -0.6514  0.5037  0.2800
16287TIP3    H170276   5.622   6.055  11.017 -2.1165 -0.6076  0.3921
16287TIP3    H270277   5.599   5.927  10.939 -1.0251  1.1844 -3.0886
16288TIP3   OH270278   3.246   2.491  12.848  0.5660 -0.5605 -0.5147
16288TIP3    H170279   3.214   2.543  12.775  1.3604  0.5688 -0.0889
16288TIP3    H270280   3.336   2.470  12.825  2.0450  2.6857  1.4897
16289TIP3   OH270281   1.464   5.789   3.686 -0.3202 -0.5490 -0.0219
16289TIP3    H170282   1.438   5.825   3.771 -0.1321  1.1007 -0.6122
16289TIP3    H270283   1.382   5.784   3.636 -0.1364  0.6239 -0.4701
16290TIP3   OH270284   0.227   3.064   2.012 -0.5091  0.2219 -0.2868
16290TIP3    H170285   0.274   3.031   2.089  1.1246  2.0290 -0.4334
16290TIP3    H270286   0.280   3.034   1.938 -1.6217 -0.8010 -0.6953
16291TIP3   OH270287   3.986   0.453  13.066  1.1376  0.4340 -0.2529
16291TIP3    H170288   3.924   0.452  13.139  0.7483 -2.9933 -0.4495
16291TIP3    H270289   4.062   0.501  13.100 -0.0685  1.2538  1.4267
16292TIP3   OH270290   1.560   1.730  14.978 -0.3278  0.0734 -0.4651
16292TIP3    H170291   1.475   1.725  15.023 -0.3445  2.4930 -0.0561
16292TIP3    H270292   1.617   1.673  15.029 -1.7134 -1.7647 -0.8624
16293TIP3   OH270293   3.597   4.241   3.986  0.4081 -0.5351  0.0894
16293TIP3    H170294   3.655   4.233   3.910  0.1486 -2.5714  0.0489
16293TIP3    H270295   3.510   4.254   3.948  0.6719  1.8959  0.1440
16294TIP3   OH270296   0.673   1.018   3.011  0.2890  0.1629  0.1444
16294TIP3    H170297   0.612   1.073   3.061 -1.4048 -0.0299 -1.6230
16294TIP3    H270298   0.666   0.931   3.052 -2.3037 -0.4025 -1.2724
16295TIP3   OH270299   0.963   0.276  13.583 -0.1618  0.0060 -0.6757
16295TIP3    H170300   0.894   0.224  13.625 -1.0435  2.8018  1.6178
16295TIP3    H270301   0.918   0.353  13.550  1.6495  1.2246 -0.4073
16296TIP3   OH270302   4.542   1.574  12.352  0.0537  0.2079  0.3899
16296TIP3    H170303   4.597   1.551  12.427 -0.1812 -1.3567  0.1201
16296TIP3    H270304   4.477   1.504  12.348 -0.1595  0.4624 -1.0608
16297TIP3   OH270305   1.876   1.673   3.426  0.5827  0.2985 -0.4530
16297TIP3    H170306   1.897   1.586   3.392 -0.7074 -0.5236  0.7835
16297TIP3    H270307   1.933   1.684   3.502  0.0566  0.1375 -0.0376
16298TIP3   OH270308   0.605   6.524  12.137  0.2999  0.0994  0.0337
16298TIP3    H170309   0.519   6.488  12.159 -0.0799  0.7185 -0.4149
16298TIP3    H270310   0.657   6.509  12.216 -0.6924  1.1889  0.9513
16299TIP3   OH270311   4.397   0.734  14.083 -0.1300  0.3457  0.3039
16299TIP3    H170312   4.364   0.823  14.093 -1.1746 -0.2093  2.6197
16299TIP3    H270313   4.443   0.716  14.166 -0.7408 -1.5555  0.2833
16300TIP3   OH270314   4.211   1.178  14.925  0.3342  0.3175  0.5823
16300TIP3    H170315   4.237   1.157  14.835  2.4834 -0.9721  1.4391
16300TIP3    H270316   4.290   1.214  14.965 -0.5494  0.7271  2.0141
16301TIP3   OH270317   5.981   1.546   0.937  0.0857  0.2185  1.2312
16301TIP3    H170318   5.909   1.503   0.984  1.1062 -1.2755  1.4981
16301TIP3    H270319   6.041   1.573   1.006  0.8009 -0.4774  0.8871
16302TIP3   OH270320   0.704   1.394   4.918 -0.2423 -0.5848 -0.2166
16302TIP3    H170321   0.735   1.329   4.981 -0.6938 -1.9011 -1.3093
16302TIP3    H270322   0.685   1.344   4.839 -0.3557  0.9223 -1.1878
16303TIP3   OH270323   3.351   4.510  11.745 -0.4875  0.5096 -0.4946
16303TIP3    H170324   3.276   4.456  11.771  0.6045 -0.5455  0.5849
16303TIP3    H270325   3.420   4.447  11.727  0.4237  1.5051 -0.5363
16304TIP3   OH270326   2.972   5.744  16.671 -0.1804 -0.2222 -0.0132
16304TIP3    H170327   2.942   5.655  16.690  0.9804 -0.4042  1.0879
16304TIP3    H270328   2.904   5.801  16.707  0.6957 -0.6227  2.4557
16305TIP3   OH270329   5.079   5.711  14.313 -0.1087 -0.1705  0.6581
16305TIP3    H170330   5.095   5.713  14.408  1.2923  1.3727  0.4477
16305TIP3    H270331   5.013   5.779  14.299 -0.6824 -0.7465  0.5867
16306TIP3   OH270332   6.361   4.096  10.720 -0.4837  0.3615 -0.4187
16306TIP3    H170333   6.319   4.095  10.806 -0.8253  1.6144 -0.5421
16306TIP3    H270334   6.309   4.035  10.667  0.0613 -0.8387  0.3923
16307TIP3   OH270335   1.987   3.805   3.882  0.1230  0.2778 -0.2486
16307TIP3    H170336   1.946   3.766   3.960  0.4821  2.2760  0.9984
16307TIP3    H270337   1.919   3.799   3.814 -0.8659  0.1260  0.7180
16308TIP3   OH270338   3.620   2.247   0.000 -0.6486  0.3670 -0.1399
16308TIP3    H170339   3.703   2.295  -0.008  0.0543 -0.5317  1.2266
16308TIP3    H270340   3.601   2.217  -0.089 -1.3252  3.4271 -1.1220
16309TIP3   OH270341   6.724   4.739   1.258  0.1306  0.7186 -0.3813
16309TIP3    H170342   6.685   4.787   1.185 -1.0345 -0.3638 -0.4921
16309TIP3    H270343   6.698   4.648   1.244  2.1862  0.0424 -0.1013
16310TIP3   OH270344   0.574   5.714  14.101  0.1270 -0.2930  0.3100
16310TIP3    H170345   0.591   5.728  14.008  0.9320  0.6625  0.5755
16310TIP3    H270346   0.643   5.764  14.145 -1.3168  0.8172  1.4381
16311TIP3   OH270347   1.569   6.460   3.006  0.1554  0.0635  0.3645
16311TIP3    H170348   1.549   6.373   3.041 -0.7881 -0.6373 -1.7361
16311TIP3    H270349   1.495   6.480   2.949 -0.0381  2.6447  1.4037
16312TIP3   OH270350   3.470   3.502  15.569 -0.3967  0.2185 -0.0604
16312TIP3    H170351   3.395   3.537  15.616  0.7168 -0.9384  2.7866
16312TIP3    H270352   3.546   3.545  15.609  0.6259 -1.0130 -0.5898
16313TIP3   OH270353   3.815   4.055   2.286 -0.4477 -0.0248 -0.1516
16313TIP3    H170354   3.730   4.056   2.330  0.0510 -0.9529  0.8644
16313TIP3    H270355   3.853   3.970   2.308 -0.1128 -0.4853 -2.2732
16314TIP3   OH270356   0.678   1.485  15.172  0.2656  0.1803 -0.2378
16314TIP3    H170357   0.679   1.521  15.260 -0.3865 -0.3928  0.0096
16314TIP3    H270358   0.596   1.515  15.134  0.9753  1.2295 -1.0055
16315TIP3   OH270359   2.526   1.944  15.899  0.0574  0.3563 -0.0737
16315TIP3    H170360   2.580   1.875  15.938  0.0178  0.1977 -0.2989
16315TIP3    H270361   2.554   1.948  15.808 -1.5278 -0.9598 -0.6675
16316TIP3   OH270362   3.958   1.417   3.612 -0.3081 -0.1659  0.5650
16316TIP3    H170363   3.894   1.354   3.580 -1.2997  0.8063  0.5669
16316TIP3    H270364   4.035   1.365   3.635 -2.3312 -1.9357  4.1577
16317TIP3   OH270365   6.213   6.142   1.023 -0.7167 -0.2011 -0.2298
16317TIP3    H170366   6.248   6.074   1.080 -0.4143  1.7958  2.0942
16317TIP3    H270367   6.127   6.108   0.996 -1.4847 -0.6872  2.5483
16318TIP3   OH270368   0.212   1.911   4.604  0.0466  0.3456 -0.1338
16318TIP3    H170369   0.136   1.857   4.584 -0.9140  1.0153  1.4783
16318TIP3    H270370   0.261   1.860   4.668 -0.4996  1.0506  0.8708
16319TIP3   OH270371   4.723   2.033   0.517  0.5199 -0.7907 -0.1721
16319TIP3    H170372   4.738   2.045   0.423  2.9805 -1.0759  0.1056
16319TIP3    H270373   4.678   1.948   0.523 -1.9632  0.3470 -1.1593
16320TIP3   OH270374   2.304   1.395   1.221  0.0970  0.0593 -0.2339
16320TIP3    H170375   2.356   1.471   1.194  1.1957 -1.7910 -4.0678
16320TIP3    H270376   2.213   1.422   1.206  0.5139  0.3715 -2.7466
16321TIP3   OH270377   3.838   5.230   4.366  0.3261  0.0379  0.5874
16321TIP3    H170378   3.931   5.208   4.378  0.2018 -1.2624 -0.6291
16321TIP3    H270379   3.792   5.147   4.377 -0.4138  0.1099 -1.6440
16322TIP3   OH270380   3.379   1.272  16.832 -0.2704 -0.0334 -0.0756
16322TIP3    H170381   3.404   1.181  16.847  0.1412 -0.2051 -1.6094
16322TIP3    H270382   3.434   1.323  16.891  0.3733 -0.7137 -0.0744
16323TIP3   OH270383   4.666   2.714  16.111  0.1595  0.3799 -0.3263
16323TIP3    H170384   4.616   2.791  16.136 -0.8574 -0.0896 -0.8286
16323TIP3    H270385   4.728   2.746  16.046  0.3538  0.9354  0.1327
16324TIP3   OH270386   2.491   6.238   2.749 -0.2124 -0.3562 -0.0747
16324TIP3    H170387   2.402   6.220   2.780 -0.1603 -0.1412  0.2072
16324TIP3    H270388   2.547   6.187   2.807 -0.0597  0.7461  0.7841
16325TIP3   OH270389   2.533   1.325  14.414  0.0655 -0.0071 -0.1798
16325TIP3    H170390   2.525   1.354  14.505  3.0996 -0.6139  0.3702
16325TIP3    H270391   2.533   1.229  14.419  0.3652 -0.0437 -0.8072
16326TIP3   OH270392   5.274   4.955  12.720 -0.2299 -0.0371  0.4487
16326TIP3    H170393   5.293   4.929  12.630 -0.2161 -1.5201  0.8458
16326TIP3    H270394   5.181   4.936  12.731 -0.6032  1.6075  0.2939
16327TIP3   OH270395   0.665   4.267  16.997 -0.4023  0.1151  0.2119
16327TIP3    H170396   0.596   4.283  16.932 -0.4047  0.3417  0.2714
16327TIP3    H270397   0.617   4.242  17.077 -0.5451  2.4970  0.9384
16328TIP3   OH270398   0.956   4.743   5.523 -0.7034 -0.3936  0.1788
16328TIP3    H170399   0.972   4.786   5.439  2.7347  0.0086  0.9039
16328TIP3    H270400   0.914   4.660   5.500  0.5376 -0.4809 -2.0205
16329TIP3   OH270401   5.386   0.774  12.597  0.2152 -0.3710 -0.4538
16329TIP3    H170402   5.325   0.717  12.645 -1.0149  0.6237 -0.7735
16329TIP3    H270403   5.472   0.750  12.630 -0.3720 -1.5813  0.2852
16330TIP3   OH270404   2.067   4.571  14.510  0.5719 -0.2161  0.2778
16330TIP3    H170405   2.019   4.509  14.564  3.2246 -0.4353  2.6398
16330TIP3    H270406   2.063   4.534  14.422 -2.0389 -1.0626  0.6757
16331TIP3   OH270407   3.367   1.478   1.044  0.1170 -0.4437 -0.3364
16331TIP3    H170408   3.447   1.520   1.011  1.4290 -0.1912  2.8227
16331TIP3    H270409   3.300   1.546   1.039  0.4407 -0.1914 -1.6102
16332TIP3   OH270410   5.837   5.740   0.215 -0.3163  0.0514  0.4928
16332TIP3    H170411   5.922   5.729   0.258  1.0747  0.8542 -1.8198
16332TIP3    H270412   5.780   5.775   0.283  1.4387  0.2772  1.9363
16333TIP3   OH270413   2.458   3.883  13.283  0.2764 -0.0864 -0.0068
16333TIP3    H170414   2.520   3.811  13.291 -0.4600 -0.7240  0.1137
16333TIP3    H270415   2.505   3.960  13.314  1.5161 -0.2554 -1.3535
16334TIP3   OH270416   5.537   6.165  12.289  0.1010  0.1838 -0.2615
16334TIP3    H170417   5.528   6.078  12.249  0.8739  0.3164 -0.7609
16334TIP3    H270418   5.554   6.147  12.381 -1.9539 -0.1226  0.0969
16335TIP3   OH270419   4.895   4.469  16.987 -0.2155 -0.1907  0.3390
16335TIP3    H170420   4.925   4.393  17.037 -2.7639 -1.9697 -0.5730
16335TIP3    H270421   4.952   4.472  16.911 -0.7096 -1.9366 -0.1477
16336TIP3   OH270422   3.854   0.644  14.770  0.5096  0.4234  0.1102
16336TIP3    H170423   3.905   0.567  14.795 -0.0712  0.1761  0.5729
16336TIP3    H270424   3.894   0.675  14.689  1.1964  0.0604  0.3075
16337TIP3   OH270425   0.325   2.844  12.514 -0.0324  0.2365 -0.4030
16337TIP3    H170426   0.256   2.895  12.472 -0.4372 -0.1163 -0.1859
16337TIP3    H270427   0.360   2.902  12.582  0.1151  0.5389 -0.7397
16338TIP3   OH270428   4.698   6.647   3.968 -0.1627 -0.0199 -0.0585
16338TIP3    H170429   4.666   6.569   3.922 -2.5971  0.6874  0.2705
16338TIP3    H270430   4.703   6.714   3.900 -1.8790  0.5083  0.2735
16339TIP3   OH270431   2.822   6.515   4.928  0.3786 -0.1186 -0.7059
16339TIP3    H170432   2.901   6.560   4.898  0.2128 -0.0116 -0.9902
16339TIP3    H270433   2.848   6.423   4.936  0.8718  0.1003  0.4050
16340TIP3   OH270434   4.878   3.282  13.471  0.0139 -0.2317  0.4813
16340TIP3    H170435   4.868   3.186  13.472  2.6942 -0.5934  1.7414
16340TIP3    H270436   4.803   3.314  13.520  0.1071 -1.8654  1.7875
16341TIP3   OH270437   2.888   4.476   1.435 -0.1267 -0.4068  0.1347
16341TIP3    H170438   2.832   4.416   1.483 -2.2118  0.8814 -0.5272
16341TIP3    H270439   2.854   4.474   1.346  0.0653  1.2912 -0.0210
16342TIP3   OH270440   0.503   4.147  17.177 -0.0270  0.5161 -0.6835
16342TIP3    H170441   0.439   4.121  17.110  1.4559 -1.9762 -1.2494
16342TIP3    H270442   0.456   4.136  17.260 -0.5927 -0.6118 -1.1197
16343TIP3   OH270443   6.632   3.363   3.410 -0.3878  0.4552  0.2166
16343TIP3    H170444   6.693   3.403   3.348 -1.8574  2.1714 -0.1729
16343TIP3    H270445   6.571   3.314   3.354 -0.6293  0.4867  0.4564
16344TIP3   OH270446   1.124   3.602  12.512 -0.4822 -0.2490 -0.1510
16344TIP3    H170447   1.195   3.539  12.502 -1.2044 -1.1062 -0.0451
16344TIP3    H270448   1.143   3.671  12.449  1.8074  0.8768  1.6152
16345TIP3   OH270449   6.344   5.624  14.659 -0.2711 -0.0642 -0.2569
16345TIP3    H170450   6.411   5.688  14.631 -0.4522  1.3728  2.2556
16345TIP3    H270451   6.261   5.665  14.634 -0.3236 -1.1554 -2.0292
16346TIP3   OH270452   4.200   4.594   1.961 -0.0349 -0.1065 -0.3489
16346TIP3    H170453   4.173   4.664   2.020  1.9785  0.5595 -0.1516
16346TIP3    H270454   4.209   4.517   2.018 -1.0043 -0.2308 -0.3443
16347TIP3   OH270455   3.256   6.639  12.870  0.1357 -0.0202  0.0912
16347TIP3    H170456   3.200   6.628  12.793  0.4920 -0.0210 -0.1719
16347TIP3    H270457   3.230   6.569  12.929  0.0054 -0.1485 -0.1174
16348TIP3   OH270458   5.224   4.721  15.067 -0.8507  0.0974 -0.2189
16348TIP3    H170459   5.205   4.700  15.159 -0.6592 -0.4174 -0.2944
16348TIP3    H270460   5.198   4.643  15.018  1.0600 -0.5095 -0.3634
16349TIP3   OH270461   6.306   1.027  15.210 -0.3108  0.1895  0.0584
16349TIP3    H170462   6.222   1.011  15.252 -0.4611  2.3241  0.7141
16349TIP3    H270463   6.371   1.012  15.278 -0.3343  0.6690  0.1912
16350TIP3   OH270464   4.020   6.681  16.435  0.7329 -0.3219 -0.3685
16350TIP3    H170465   4.107   6.716  16.415  0.6282  0.2711  0.1440
16350TIP3    H270466   3.960   6.750  16.406  0.4168 -0.8170 -0.9115
16351TIP3   OH270467   5.793   5.992  12.240  0.2855  0.5686  0.6999
16351TIP3    H170468   5.880   6.011  12.204  0.6183 -0.2281  1.0385
16351TIP3    H270469   5.732   6.022  12.173  0.8978 -1.3573 -0.8262
16352TIP3   OH270470   6.134   2.458   1.756 -0.3891 -0.7010  0.4664
16352TIP3    H170471   6.118   2.550   1.739  0.2301 -0.6225  0.2834
16352TIP3    H270472   6.056   2.428   1.803 -1.3660 -0.5034 -0.9619
16353TIP3   OH270473   2.578   2.881   0.217 -0.6386  0.7629  0.3624
16353TIP3    H170474   2.641   2.899   0.148 -1.1252  1.2150  0.0289
16353TIP3    H270475   2.510   2.947   0.205 -1.8540 -0.5327 -0.1188
16354TIP3   OH270476   0.731   5.104  15.293 -0.3717 -0.3894 -0.0464
16354TIP3    H170477   0.822   5.079  15.306 -0.7882 -1.6207  0.6851
16354TIP3    H270478   0.681   5.037  15.340 -1.6746 -0.0756 -0.9414
16355TIP3   OH270479   5.564   4.734   6.235 -0.2513  0.2605  0.8571
16355TIP3    H170480   5.545   4.640   6.225 -0.8858  0.5414 -1.0977
16355TIP3    H270481   5.657   4.738   6.255 -0.4592 -0.8235  2.1773
16356TIP3   OH270482   1.154   2.480   5.515 -0.4422  0.3040  0.3067
16356TIP3    H170483   1.191   2.532   5.444  0.7492 -0.8242  0.0625
16356TIP3    H270484   1.102   2.413   5.471  0.6120 -0.6350  0.4510
16357TIP3   OH270485   4.283   2.693   1.720 -0.2803 -0.2241 -0.0186
16357TIP3    H170486   4.371   2.654   1.720 -0.2666 -0.1997  0.4945
16357TIP3    H270487   4.278   2.740   1.636  0.7781  1.0718  0.5913
16358TIP3   OH270488   0.801   0.044   1.825 -0.0658 -0.2299  0.0550
16358TIP3    H170489   0.878   0.044   1.883  0.8114 -0.6180 -1.0658
16358TIP3    H270490   0.823  -0.020   1.757 -0.7968  0.6792 -1.0563
16359TIP3   OH270491   1.780   2.653   1.989  0.2007 -0.2379  0.0757
16359TIP3    H170492   1.859   2.689   2.030 -0.8339  0.3369  1.6919
16359TIP3    H270493   1.784   2.559   2.006 -0.8328  0.0981  2.8944
16360TIP3   OH270494   6.657   1.371  14.675 -0.0565  0.2160  0.1754
16360TIP3    H170495   6.711   1.369  14.596  1.5512  1.7792  1.1558
16360TIP3    H270496   6.685   1.451  14.721 -1.5956 -0.1556  1.8682
16361TIP3   OH270497   5.789   6.023   6.368 -0.0507 -0.0448  0.0972
16361TIP3    H170498   5.715   6.017   6.427  0.0778 -0.1519  0.2478
16361TIP3    H270499   5.866   6.009   6.423  0.1182  0.6063  0.0359
16362TIP3   OH270500   6.709   3.469  14.755 -0.2112 -0.0587 -0.3127
16362TIP3    H170501   6.704   3.554  14.798  1.2529 -1.0925  2.0560
16362TIP3    H270502   6.694   3.489  14.662 -1.2488  2.5658  0.3214
16363TIP3   OH270503   5.547   3.745   3.515  0.0610 -0.3995 -0.2485
16363TIP3    H170504   5.462   3.755   3.472 -0.4538 -0.6952  0.6594
16363TIP3    H270505   5.603   3.704   3.449 -0.6256 -0.6126 -0.7145
16364TIP3   OH270506   2.172   5.396   0.379  0.9235  0.1420  0.3274
16364TIP3    H170507   2.108   5.444   0.432 -0.6936 -1.4649 -0.0446
16364TIP3    H270508   2.256   5.418   0.417  0.0342  1.2354  1.7693
16365TIP3   OH270509   3.766   1.053  12.903  0.1316  0.1940 -0.2070
16365TIP3    H170510   3.726   1.041  12.990  1.6639 -1.1526  0.3678
16365TIP3    H270511   3.768   1.147  12.890 -1.0363  0.3867  0.7700
16366TIP3   OH270512   1.980   6.484  15.599  0.7400  0.2889  0.1259
16366TIP3    H170513   2.007   6.421  15.665  1.1477 -1.2333 -1.4151
16366TIP3    H270514   1.891   6.458  15.576  0.9863  0.1068 -0.6697
16367TIP3   OH270515   3.527   5.363  16.123  0.4063  0.4856  0.4466
16367TIP3    H170516   3.584   5.353  16.199  0.2912 -1.2336  0.3415
16367TIP3    H270517   3.509   5.457  16.118  0.7487  0.6755  2.2983
16368TIP3   OH270518   0.999   5.657  11.345  0.0236  0.3560 -0.9695
16368TIP3    H170519   1.015   5.575  11.393 -1.8573  0.5583  0.0887
16368TIP3    H270520   1.083   5.703  11.349  0.0388  0.3063  2.1311
16369TIP3   OH270521   3.483   4.174   3.588  0.4172 -0.3586  0.0017
16369TIP3    H170522   3.508   4.266   3.587 -0.7558 -0.0199 -0.8147
16369TIP3    H270523   3.563   4.127   3.567  1.3772  0.3605  1.8306
16370TIP3   OH270524   5.735   0.610   2.328 -0.3678  0.2340  0.0288
16370TIP3    H170525   5.671   0.541   2.309 -1.0491  0.3093  1.8133
16370TIP3    H270526   5.728   0.671   2.254 -1.6280 -0.2920 -0.3085
16371TIP3   OH270527   2.539   6.681  12.817  0.3138  0.0397  0.4114
16371TIP3    H170528   2.538   6.764  12.770 -2.4968  0.8731  1.7165
16371TIP3    H270529   2.557   6.615  12.750 -2.0674  1.2802 -1.5905
16372TIP3   OH270530   5.620   3.070   6.212 -0.2621  0.6939  0.6758
16372TIP3    H170531   5.555   2.999   6.210  0.6177 -0.1263  0.5656
16372TIP3    H270532   5.668   3.057   6.293  1.9479 -0.7607 -0.7542
16373TIP3   OH270533   0.094   6.064   2.928  0.0749 -0.5830 -0.2564
16373TIP3    H170534   0.182   6.076   2.892 -0.9004  1.2994 -2.2534
16373TIP3    H270535   0.071   5.974   2.906  1.1910 -0.8491 -0.4030
16374TIP3   OH270536   1.809   4.053  11.821 -0.6504  0.0331  0.0839
16374TIP3    H170537   1.793   4.147  11.821  0.3776  0.2254  0.5306
16374TIP3    H270538   1.761   4.020  11.745 -0.4236  1.0277 -0.5101
16375TIP3   OH270539   3.578   3.657   1.517 -0.2714 -0.1370 -0.1555
16375TIP3    H170540   3.504   3.677   1.575 -0.2022  0.2750 -0.2066
16375TIP3    H270541   3.543   3.593   1.455 -0.2265 -0.9121  0.6022
16376TIP3   OH270542   3.753   1.148  16.760 -0.0544 -0.2389  0.5379
16376TIP3    H170543   3.806   1.177  16.686  1.3064 -0.5953  1.3380
16376TIP3    H270544   3.767   1.214  16.828  0.2636 -0.9017  1.1362
16377TIP3   OH270545   0.093   5.735   3.933  0.3350  0.0248  0.0868
16377TIP3    H170546   0.049   5.650   3.936  0.2854  0.0770  2.2017
16377TIP3    H270547   0.033   5.794   3.977 -0.0642  1.4315 -2.1895
16378TIP3   OH270548   1.709   0.495   0.356  0.0044 -0.1861  0.6391
16378TIP3    H170549   1.784   0.541   0.317  1.1128 -1.9375  0.5630
16378TIP3    H270550   1.646   0.486   0.285 -0.7354  2.0807  0.9200
16379TIP3   OH270551   1.500   2.317   3.029  0.0806  0.4478  0.6278
16379TIP3    H170552   1.571   2.362   3.076  0.1414  0.2934  0.6871
16379TIP3    H270553   1.421   2.341   3.077 -0.1610  2.1472 -0.5598
16380TIP3   OH270554   1.289   2.966   1.476  0.1621 -0.8698 -0.2261
16380TIP3    H170555   1.201   2.934   1.456  0.5590 -1.7003 -0.7247
16380TIP3    H270556   1.340   2.886   1.491  0.0301 -0.3848  3.7262
16381TIP3   OH270557   6.498   4.418  11.393  0.1006  0.9481 -0.8151
16381TIP3    H170558   6.481   4.511  11.373  0.8517  0.9917 -1.2652
16381TIP3    H270559   6.503   4.376  11.307 -1.3267  0.2700 -0.6087
16382TIP3   OH270560   3.704   2.885   0.089  0.2823  0.4187  0.4839
16382TIP3    H170561   3.759   2.810   0.066 -0.8389  0.5922 -3.4516
16382TIP3    H270562   3.623   2.846   0.123 -0.3404 -0.3050 -1.6348
16383TIP3   OH270563   0.239   5.486  13.516 -0.0382  0.0800 -0.2210
16383TIP3    H170564   0.283   5.404  13.493 -0.6370 -0.0710 -0.8535
16383TIP3    H270565   0.289   5.519  13.591  0.1473 -0.9171  0.1183
16384TIP3   OH270566   0.177   6.523  11.606 -0.0966 -0.5417  0.1592
16384TIP3    H170567   0.151   6.615  11.617  0.1536 -0.6599  1.9553
16384TIP3    H270568   0.112   6.487  11.545  0.6467  1.1582 -1.7438
16385TIP3   OH270569   5.548   2.860  13.909  0.5015 -0.4642  0.1015
16385TIP3    H170570   5.456   2.848  13.887  0.0658  0.8454  1.0465
16385TIP3    H270571   5.547   2.901  13.996  1.9000  1.2375 -0.6121
16386TIP3   OH270572   5.662   1.039   5.745  0.1592  0.3420  0.8365
16386TIP3    H170573   5.631   1.022   5.834  0.7780  1.5380  1.3083
16386TIP3    H270574   5.756   1.019   5.747  0.2750  0.8290  0.5931
16387TIP3   OH270575   6.277   1.974  11.343  0.5728  0.0284  0.2602
16387TIP3    H170576   6.335   2.034  11.390  2.5152 -0.5803 -1.1842
16387TIP3    H270577   6.284   1.891  11.392 -0.8330  0.5146  1.3267
16388TIP3   OH270578   3.279   1.152  16.434  0.1927  0.0038  0.5170
16388TIP3    H170579   3.203   1.207  16.416  1.1775  1.0094 -0.7845
16388TIP3    H270580   3.255   1.101  16.512 -0.3486  3.1110  2.5363
16389TIP3   OH270581   4.773   0.553   6.355  0.1591 -0.4821 -0.4864
16389TIP3    H170582   4.778   0.589   6.267 -0.1301 -0.2209 -0.4016
16389TIP3    H270583   4.683   0.522   6.363 -0.2145  0.6755  0.1490
16390TIP3   OH270584   1.446   3.764  13.905 -0.3073  0.2040 -0.3490
16390TIP3    H170585   1.469   3.796  13.992 -2.1164 -3.4743  1.7325
16390TIP3    H270586   1.512   3.697  13.886 -1.3926 -0.8616 -0.5312
16391TIP3   OH270587   2.571   2.129   5.108 -0.1656 -0.3289  0.6157
16391TIP3    H170588   2.546   2.092   5.193 -1.3873  0.0038  0.4122
16391TIP3    H270589   2.635   2.066   5.073  1.1948  0.0665  2.2265
16392TIP3   OH270590   0.605   0.547   4.566  0.0188  0.2205 -0.2950
16392TIP3    H170591   0.545   0.587   4.628  0.0783  1.7692 -1.1848
16392TIP3    H270592   0.616   0.612   4.497 -1.1226 -1.9051 -2.6864
16393TIP3   OH270593   2.627   1.205   2.219 -0.2337 -0.0221 -0.2846
16393TIP3    H170594   2.694   1.272   2.234 -1.7384  1.3426  0.7305
16393TIP3    H270595   2.630   1.188   2.125 -0.2815  2.0430 -0.7111
16394TIP3   OH270596   3.814   3.737   6.549 -0.0590  0.1381  0.4364
16394TIP3    H170597   3.731   3.701   6.519 -0.0258  0.1750  0.3017
16394TIP3    H270598   3.870   3.737   6.472  0.3096 -0.5810  0.6872
16395TIP3   OH270599   5.485   6.562   1.185  0.4802 -0.4877 -0.7098
16395TIP3    H170600   5.560   6.592   1.237 -0.3013  0.1316  0.1015
16395TIP3    H270601   5.481   6.623   1.112 -1.0205  1.4628  0.8628
16396TIP3   OH270602   3.835   0.188  13.751 -0.4957  0.0892  0.4892
16396TIP3    H170603   3.819   0.266  13.804 -0.7661 -1.3731  2.6851
16396TIP3    H270604   3.919   0.154  13.783 -0.8211 -1.0165  0.2121
16397TIP3   OH270605   2.447   4.668   6.056  0.2233 -0.1585 -0.4989
16397TIP3    H170606   2.518   4.613   6.026  0.1917 -0.5294  0.0998
16397TIP3    H270607   2.400   4.615   6.120 -0.0819  0.3893 -0.2552
16398TIP3   OH270608   4.339   6.177   2.416  0.0896  0.2746  0.1951
16398TIP3    H170609   4.260   6.230   2.402 -0.8377 -1.4061 -1.5487
16398TIP3    H270610   4.315   6.115   2.485  1.3338  2.2909  2.5813
16399TIP3   OH270611   2.342   3.238  14.046  0.8329 -1.1942  1.0691
16399TIP3    H170612   2.270   3.203  14.097 -1.2096 -1.8030 -1.9543
16399TIP3    H270613   2.400   3.163  14.031 -0.2217 -1.8226 -0.0689
16400TIP3   OH270614   1.936   2.342  10.788  0.2849 -0.7421 -0.1746
16400TIP3    H170615   1.886   2.288  10.849  0.4312 -1.4839 -0.6969
16400TIP3    H270616   1.980   2.406  10.844 -0.9765 -0.2661  0.3309
16401TIP3   OH270617   2.385   0.483   4.604 -0.0942  0.2207  0.8887
16401TIP3    H170618   2.337   0.430   4.667  0.1886 -0.8132  0.2660
16401TIP3    H270619   2.360   0.573   4.624 -2.5715 -0.2816  0.3657
16402TIP3   OH270620   5.688   6.253  15.248  1.0438  0.1077 -0.0702
16402TIP3    H170621   5.663   6.345  15.244 -0.3032 -0.2820 -1.7462
16402TIP3    H270622   5.605   6.205  15.252  1.7146 -1.0461  2.1538
16403TIP3   OH270623   0.049   6.673  14.855  0.2092 -0.8703  1.0989
16403TIP3    H170624   0.032   6.757  14.813 -0.3169  0.1177  3.1431
16403TIP3    H270625   0.086   6.618  14.786 -0.0991  0.8067 -0.4651
16404TIP3   OH270626   1.344   3.556   3.031  0.3645  0.5111  0.2619
16404TIP3    H170627   1.291   3.635   3.043 -0.4633  0.0473 -0.3241
16404TIP3    H270628   1.313   3.496   3.098  2.2507  1.2960  1.9416
16405TIP3   OH270629   2.050   6.427   0.178  0.1195  0.2138 -0.1493
16405TIP3    H170630   2.130   6.397   0.134  0.1600  0.6428 -0.3748
16405TIP3    H270631   2.077   6.442   0.268 -0.0095 -0.8605  0.0801
16406TIP3   OH270632   2.194   3.794   3.675  0.0786  0.3801 -0.3886
16406TIP3    H170633   2.132   3.832   3.612  1.1811  4.0971  0.4760
16406TIP3    H270634   2.149   3.800   3.759  0.3293 -0.1761 -0.2141
16407TIP3   OH270635   3.991   4.188  14.673  0.5235 -0.2522  0.2469
16407TIP3    H170636   3.983   4.151  14.761  0.7332  1.2996  0.9559
16407TIP3    H270637   4.073   4.152  14.639  2.5144  2.0619  2.2378
16408TIP3   OH270638   0.430   5.918   5.661  0.2782 -0.3094 -0.2050
16408TIP3    H170639   0.432   6.003   5.706  1.0716 -1.1301  1.3899
16408TIP3    H270640   0.355   5.873   5.698  2.3739 -1.9917  2.3651
16409TIP3   OH270641   0.002   3.207   4.862 -0.4840  0.3990 -0.1446
16409TIP3    H170642   0.038   3.221   4.950  1.5916 -0.5022 -0.7714
16409TIP3    H270643   0.001   3.112   4.851 -0.2698  0.5051 -1.2474
16410TIP3   OH270644   0.668   1.608   2.452 -0.4483 -0.6279  0.5263
16410TIP3    H170645   0.734   1.649   2.509 -0.0418 -0.0641 -0.3284
16410TIP3    H270646   0.652   1.522   2.492  1.9108 -1.4093 -0.0254
16411TIP3   OH270647   6.263   1.161   2.277  0.4473 -0.5885 -0.2192
16411TIP3    H170648   6.244   1.253   2.257  0.5342 -0.6529 -0.5982
16411TIP3    H270649   6.222   1.112   2.206  0.0491 -0.8679  0.2076
16412TIP3   OH270650   3.788   3.846  13.625 -0.0859 -0.0954 -0.5517
16412TIP3    H170651   3.821   3.799  13.702  0.7926 -0.0280 -0.8660
16412TIP3    H270652   3.825   3.799  13.551 -1.1748 -0.3427 -0.9553
16413TIP3   OH270653   2.500   2.558   0.951 -0.9125  0.5045 -0.4916
16413TIP3    H170654   2.456   2.630   0.996 -0.8425  1.2913 -1.6244
16413TIP3    H270655   2.511   2.590   0.861 -0.6211 -0.8170 -0.9419
16414TIP3   OH270656   5.566   5.775   5.600 -0.6910  0.1022 -0.8138
16414TIP3    H170657   5.584   5.802   5.690 -0.7121  0.1287 -0.8175
16414TIP3    H270658   5.651   5.751   5.563 -0.7781 -0.7081 -0.5227
16415TIP3   OH270659   0.612   4.709   2.179 -0.1974 -0.0260 -0.0993
16415TIP3    H170660   0.539   4.733   2.235 -1.3906 -2.0078 -0.7162
16415TIP3    H270661   0.675   4.667   2.238  0.7724  2.1100  0.5203
16416TIP3   OH270662   3.600   0.581  15.166 -0.2588 -0.1754  0.0858
16416TIP3    H170663   3.596   0.500  15.218 -1.7709  1.1895  2.2672
16416TIP3    H270664   3.509   0.596  15.139 -0.1344  1.1719  0.3581
16417TIP3   OH270665   0.839   2.949  14.687 -0.0304  0.3047 -0.0921
16417TIP3    H170666   0.864   2.918  14.600 -0.6853  0.0477 -0.1915
16417TIP3    H270667   0.758   2.998  14.673  1.5453  3.1067 -0.1294
16418TIP3   OH270668   4.299   5.983   1.118 -0.8525  0.0742 -0.3767
16418TIP3    H170669   4.382   5.936   1.116 -0.1085  1.2072  1.4032
16418TIP3    H270670   4.237   5.926   1.072  0.5539 -1.4780 -0.4170
16419TIP3   OH270671   1.199   6.348   2.000  0.2468  0.0468  0.5199
16419TIP3    H170672   1.264   6.280   2.019  1.2372  0.5237 -0.9742
16419TIP3    H270673   1.185   6.342   1.906  0.2790  1.8380  0.3638
16420TIP3   OH270674   3.603   2.085  13.941  0.5149 -0.5051  0.4533
16420TIP3    H170675   3.648   2.045  14.015  1.8512  0.5027  0.2379
16420TIP3    H270676   3.568   2.167  13.976  1.1808 -0.0096 -0.0233
16421TIP3   OH270677   0.193   0.820   6.162 -0.2051  0.3394 -0.1201
16421TIP3    H170678   0.124   0.871   6.204  0.5054  3.5701 -2.4778
16421TIP3    H270679   0.273   0.842   6.211 -0.2524 -0.4611  0.3300
16422TIP3   OH270680   4.965   0.287   0.218 -0.3085 -0.1986  0.2037
16422TIP3    H170681   4.927   0.315   0.302 -0.5881 -0.4579  0.1652
16422TIP3    H270682   4.904   0.321   0.152 -0.5276 -0.6880  0.1458
16423TIP3   OH270683   6.742   4.489  12.598  0.7268 -0.1808 -0.3001
16423TIP3    H170684   6.688   4.417  12.630 -1.4967  0.6863 -1.8467
16423TIP3    H270685   6.718   4.564  12.654  1.7145 -0.2031  0.1717
16424TIP3   OH270686   6.303   1.964  16.897  0.6785 -0.5569  0.4585
16424TIP3    H170687   6.395   1.937  16.890  1.2652  1.1979  0.8159
16424TIP3    H270688   6.297   2.004  16.984 -0.6751 -1.4884  0.8089
16425TIP3   OH270689   3.105   2.708  11.667 -0.1292 -0.0775  0.0919
16425TIP3    H170690   3.020   2.734  11.702  0.0831 -0.3294  0.7974
16425TIP3    H270691   3.113   2.759  11.586 -0.7299  0.3184  0.2716
16426TIP3   OH270692   6.460   6.398  14.204  0.3383 -0.0081  0.3070
16426TIP3    H170693   6.507   6.341  14.264 -1.6058 -0.3195  1.6020
16426TIP3    H270694   6.466   6.354  14.119 -0.1282 -1.5282  1.0434
16427TIP3   OH270695   3.595   0.035   0.163  0.3964  0.1878 -0.0119
16427TIP3    H170696   3.640  -0.007   0.236 -0.3615  0.0220  0.3758
16427TIP3    H270697   3.593  -0.032   0.094  0.1391 -0.0411  0.2168
16428TIP3   OH270698   1.541   0.630  11.292  0.3502 -0.1424 -0.3074
16428TIP3    H170699   1.504   0.637  11.204 -1.2263  0.1593  0.3454
16428TIP3    H270700   1.611   0.694  11.293 -0.5348  0.8691 -0.9128
16429TIP3   OH270701   5.590   5.731   3.108  0.4797 -0.7510  0.2063
16429TIP3    H170702   5.639   5.801   3.151  0.2231 -0.6145  0.2800
16429TIP3    H270703   5.510   5.773   3.076  0.5314 -0.9150 -0.1457
16430TIP3   OH270704   6.075   2.874   5.891 -0.1731  0.8511 -0.7250
16430TIP3    H170705   5.990   2.838   5.917  0.9435 -1.6155 -0.1670
16430TIP3    H270706   6.069   2.967   5.912 -2.2542  0.5031  0.5590
16431TIP3   OH270707   0.132   0.605   0.762 -0.2535  0.1198 -1.1014
16431TIP3    H170708   0.113   0.698   0.748 -0.1047  0.4674  0.6966
16431TIP3    H270709   0.197   0.583   0.696 -0.0132  1.4100 -1.3191
16432TIP3   OH270710   2.084   6.141   1.494  0.1185  0.1579 -0.7535
16432TIP3    H170711   2.017   6.204   1.468 -1.7170 -1.8862 -1.2974
16432TIP3    H270712   2.066   6.122   1.586 -0.3085 -0.6799 -1.0031
16433TIP3   OH270713   5.097   4.407  11.074 -0.7564  0.1176  0.4336
16433TIP3    H170714   5.076   4.323  11.114 -0.0897  0.0405  0.6361
16433TIP3    H270715   5.063   4.472  11.135 -2.9595  0.0282 -0.6168
16434TIP3   OH270716   4.460   1.151  14.321  0.3996  0.0824 -0.4134
16434TIP3    H170717   4.509   1.214  14.268  0.0545  1.5715  0.9642
16434TIP3    H270718   4.487   1.169  14.411  0.7500 -2.1926  0.0146
16435TIP3   OH270719   3.710   2.736   5.133  0.2538  0.0668 -0.1002
16435TIP3    H170720   3.694   2.778   5.048 -1.5804  0.7808  0.5341
16435TIP3    H270721   3.805   2.736   5.143  0.4131  2.5897 -0.8909
16436TIP3   OH270722   4.192   0.035  16.290  0.1322 -0.3619  0.0482
16436TIP3    H170723   4.149   0.114  16.323 -2.2120 -2.0227  1.2796
16436TIP3    H270724   4.156   0.022  16.203 -0.6362 -0.8297  0.4210
16437TIP3   OH270725   4.641   1.625  11.365  0.4916  0.1386  0.4668
16437TIP3    H170726   4.594   1.561  11.312 -1.2430  1.5651  0.1969
16437TIP3    H270727   4.574   1.665  11.421  1.3052  2.3541 -0.0147
16438TIP3   OH270728   6.017   6.433   5.738  0.0842 -0.0974 -0.4376
16438TIP3    H170729   5.926   6.425   5.764  0.1192  1.8822  0.4458
16438TIP3    H270730   6.029   6.525   5.715  1.3320 -0.7486 -2.7592
16439TIP3   OH270731   4.445   3.709   4.094  0.0360  0.2091  0.0833
16439TIP3    H170732   4.445   3.741   4.004 -3.5328  1.4718  0.3688
16439TIP3    H270733   4.389   3.632   4.092  1.0882 -0.6169  1.0324
16440TIP3   OH270734   0.479   3.691  13.243  0.2830 -0.6742  0.0452
16440TIP3    H170735   0.468   3.781  13.271 -0.9532 -0.4846 -0.9429
16440TIP3    H270736   0.392   3.652  13.254  0.1409 -1.0090 -1.9766
16441TIP3   OH270737   2.451   3.863   5.603  0.1709 -0.2263 -0.1471
16441TIP3    H170738   2.473   3.776   5.635  1.1231  0.5279  1.3253
16441TIP3    H270739   2.502   3.871   5.522  0.8372 -0.6861  0.2091
16442TIP3   OH270740   0.861   2.249   2.986  0.8997  0.0440  0.0545
16442TIP3    H170741   0.781   2.213   3.024  0.0891  1.2705 -0.4438
16442TIP3    H270742   0.842   2.257   2.892  0.9718  1.9144  0.1726
16443TIP3   OH270743   5.475   2.786   1.190  0.5931 -0.0637 -0.2697
16443TIP3    H170744   5.429   2.827   1.263 -0.3301 -1.7162  0.1110
16443TIP3    H270745   5.551   2.743   1.230  0.0983 -0.9522 -0.2604
16444TIP3   OH270746   3.882   4.573   0.067  0.0147  0.1890  0.0063
16444TIP3    H170747   3.926   4.526  -0.004  0.1952  1.6327 -0.8831
16444TIP3    H270748   3.953   4.598   0.126 -0.2446 -1.9554  1.3521
16445TIP3   OH270749   1.081   0.626   0.959 -0.1988 -0.3509 -0.7361
16445TIP3    H170750   1.169   0.588   0.958  0.3796  0.9396 -1.3465
16445TIP3    H270751   1.023   0.551   0.966  0.9936 -1.1534  3.6918
16446TIP3   OH270752   5.092   6.018  16.458 -0.5197 -0.2731 -0.4443
16446TIP3    H170753   5.131   5.983  16.378  1.8100 -0.1225  0.5492
16446TIP3    H270754   5.036   6.090  16.429  0.4865 -0.0556 -1.9232
16447TIP3   OH270755   5.844   3.744   1.064 -0.0195  0.0707  0.0618
16447TIP3    H170756   5.925   3.745   1.014  0.6267  2.2761  1.0365
16447TIP3    H270757   5.864   3.689   1.140  0.2379 -0.1861 -0.1897
16448TIP3   OH270758   2.570   1.691  12.754 -0.0598  0.3994  0.2868
16448TIP3    H170759   2.628   1.760  12.787 -0.6694  2.9005 -3.2259
16448TIP3    H270760   2.627   1.614  12.744  1.2090  1.0165  2.2499
16449TIP3   OH270761   5.861   2.190   1.520 -0.1924  0.5260  0.4846
16449TIP3    H170762   5.928   2.255   1.499  0.7813  0.1057  2.1234
16449TIP3    H270763   5.867   2.125   1.450 -0.7671  1.8401 -0.8399
16450TIP3   OH270764   4.421   1.320  11.416 -0.2445  0.1546 -0.4919
16450TIP3    H170765   4.516   1.331  11.414 -0.3896  1.4974 -1.3490
16450TIP3    H270766   4.406   1.234  11.378  0.6152  0.0687 -0.6600
16451TIP3   OH270767   5.962   6.382   2.722 -0.4349 -0.2396 -0.2551
16451TIP3    H170768   5.915   6.363   2.641  0.3876 -1.5957 -0.4466
16451TIP3    H270769   6.018   6.457   2.700 -0.2230 -0.5910 -0.9371
16452TIP3   OH270770   1.676   2.698  11.553  0.2580  0.1296  0.2337
16452TIP3    H170771   1.591   2.667  11.520  0.5087 -0.1046 -0.2121
16452TIP3    H270772   1.686   2.655  11.638  1.5846 -2.8900 -1.2772
16453TIP3   OH270773   1.965   4.443  14.264 -0.3611  0.7044 -0.0348
16453TIP3    H170774   1.961   4.383  14.190 -2.9924  0.2178  0.3906
16453TIP3    H270775   1.967   4.530  14.225 -0.1328  0.4227 -0.6592
16454TIP3   OH270776   0.234   1.401   3.112  0.1869  0.3092  0.6424
16454TIP3    H170777   0.289   1.323   3.113 -1.1549 -0.6676  0.6815
16454TIP3    H270778   0.157   1.376   3.162 -0.9464  1.1398 -0.6389
16455TIP3   OH270779   2.688   4.705   0.156 -0.0539 -0.0959  0.1414
16455TIP3    H170780   2.689   4.798   0.132 -0.1145 -0.0338  0.3716
16455TIP3    H270781   2.764   4.668   0.113  1.1811  0.4906  1.7371
16456TIP3   OH270782   4.684   0.983  14.768 -0.2068 -0.1759 -0.9956
16456TIP3    H170783   4.731   1.066  14.765 -1.8336  0.8713  0.5176
16456TIP3    H270784   4.654   0.975  14.859 -0.6634 -2.0993 -1.2594
16457TIP3   OH270785   3.206   0.955   1.825 -0.5277  0.1726  0.4873
16457TIP3    H170786   3.203   1.000   1.741  1.5606 -2.0183 -0.8939
16457TIP3    H270787   3.278   0.997   1.872 -0.1193 -0.1503  0.1623
16458TIP3   OH270788   2.366   5.898  12.752  0.6689  0.0255  0.5818
16458TIP3    H170789   2.456   5.933  12.752  0.7501 -0.1676  1.5522
16458TIP3    H270790   2.374   5.812  12.710  0.8997  0.0862  0.4971
16459TIP3   OH270791   6.179   4.299  15.298  0.4483  0.1511 -0.4086
16459TIP3    H170792   6.084   4.291  15.311  0.4938  1.0646  0.6712
16459TIP3    H270793   6.204   4.373  15.354  1.5343  1.0496 -2.0123
16460TIP3   OH270794   3.100   2.071  12.397 -0.3751 -0.0060 -0.3604
16460TIP3    H170795   3.030   2.123  12.358 -1.1187 -1.5619 -1.2281
16460TIP3    H270796   3.114   2.109  12.483  0.6272  2.9405 -1.6792
16461TIP3   OH270797   0.788   4.832   1.551  0.2125  0.6137 -0.0524
16461TIP3    H170798   0.720   4.804   1.490  0.0777  0.9754 -0.0687
16461TIP3    H270799   0.806   4.923   1.527  0.4151  0.6460  0.2140
16462TIP3   OH270800   0.006   6.489   6.255  0.0809  0.0389 -0.2522
16462TIP3    H170801   0.082   6.519   6.304 -0.4549 -0.6212  1.0288
16462TIP3    H270802  -0.038   6.427   6.313 -1.2930  0.1973 -1.0611
16463TIP3   OH270803   1.826   1.019  12.639 -0.4398  0.1196 -1.0739
16463TIP3    H170804   1.763   0.951  12.615  1.7411 -1.5054 -2.6056
16463TIP3    H270805   1.846   1.003  12.732  1.0962 -2.3893 -1.7416
16464TIP3   OH270806   3.246   3.650  11.014  0.3434  0.2030  0.5486
16464TIP3    H170807   3.303   3.648  11.090  0.2579  0.0623  0.6096
16464TIP3    H270808   3.180   3.716  11.036  0.4804  0.3629  0.4793
16465TIP3   OH270809   1.277   3.151  16.945  0.0993 -0.9103  0.0706
16465TIP3    H170810   1.218   3.155  17.020  1.5296  0.6282  1.2108
16465TIP3    H270811   1.347   3.213  16.967  2.0197 -2.4848 -1.2960
16466TIP3   OH270812   4.078   6.049  12.822 -0.0350 -0.0559  0.0650
16466TIP3    H170813   4.157   6.102  12.829 -0.8820  1.1172  1.3551
16466TIP3    H270814   4.107   5.960  12.839  0.9543  0.4247  1.0110
16467TIP3   OH270815   3.042   5.636  11.846 -0.3167  0.1142 -0.6359
16467TIP3    H170816   3.065   5.547  11.821  1.2216  0.9398 -2.4057
16467TIP3    H270817   2.955   5.650  11.808  0.3195  0.0189 -2.2124
16468TIP3   OH270818   0.693   0.668   6.058  0.2041 -0.3190  0.0792
16468TIP3    H170819   0.769   0.707   6.103 -0.1296 -1.6208  1.8787
16468TIP3    H270820   0.698   0.704   5.969  1.5056  1.5686  0.8238
16469TIP3   OH270821   4.583   5.999   0.175 -0.5513 -0.5223 -0.3440
16469TIP3    H170822   4.612   5.922   0.224  0.3140  0.1120  0.1783
16469TIP3    H270823   4.497   6.020   0.212  0.0611 -0.0845  0.9270
16470TIP3   OH270824   5.231   0.564  10.686  0.1968  0.2294 -0.3693
16470TIP3    H170825   5.231   0.530  10.597 -1.2036 -0.4185 -0.1602
16470TIP3    H270826   5.204   0.655  10.677 -1.1206 -0.1568 -0.5351
16471TIP3   OH270827   1.558   5.819  15.567 -0.0356  0.0613  0.2001
16471TIP3    H170828   1.644   5.818  15.524  0.7617  0.6109  1.6842
16471TIP3    H270829   1.563   5.892  15.628 -1.3643 -0.2583  0.7289
16472TIP3   OH270830   3.966   4.319  15.127 -1.1750  0.3099  0.2116
16472TIP3    H170831   3.894   4.378  15.148 -1.0256  0.0558  1.5692
16472TIP3    H270832   4.036   4.345  15.188 -0.5262 -0.1779 -0.3135
16473TIP3   OH270833   3.327   3.249  15.682 -0.6962  0.1223 -0.0863
16473TIP3    H170834   3.412   3.286  15.705 -0.0736 -0.1015 -1.8753
16473TIP3    H270835   3.336   3.155  15.698 -0.6553  0.1145 -0.1579
16474TIP3   OH270836   0.583   0.663  12.395 -0.0109  0.1576 -0.1518
16474TIP3    H170837   0.543   0.618  12.321 -1.4293  0.8811  0.1342
16474TIP3    H270838   0.520   0.651  12.467 -0.6081  2.7710 -0.1325
16475TIP3   OH270839   4.588   6.333  15.239  0.1738  0.1131 -0.3164
16475TIP3    H170840   4.585   6.426  15.263  0.4648 -0.2302  1.1355
16475TIP3    H270841   4.544   6.329  15.155 -1.8942  1.2483  0.6409
16476TIP3   OH270842   2.942   4.480   6.017  0.3850 -0.3334  0.0763
16476TIP3    H170843   2.856   4.509   5.988  0.6119  0.1172 -0.1681
16476TIP3    H270844   2.953   4.522   6.103 -0.4575 -1.9977  1.0346
16477TIP3   OH270845   4.134   3.949   5.153 -0.0319 -0.1028  0.6172
16477TIP3    H170846   4.225   3.977   5.165  0.1275 -0.5723  0.5238
16477TIP3    H270847   4.121   3.950   5.058  0.2309 -1.1286  0.5615
16478TIP3   OH270848   0.297   2.238  12.434  0.6722 -0.5511 -0.1786
16478TIP3    H170849   0.219   2.186  12.454 -0.1034  0.4748 -0.4603
16478TIP3    H270850   0.285   2.263  12.342  1.0827  0.0371 -0.0731
16479TIP3   OH270851   1.683   3.660  10.907  0.1269  0.5028 -0.2879
16479TIP3    H170852   1.695   3.576  10.862 -0.4471 -1.0829  2.2840
16479TIP3    H270853   1.620   3.707  10.853  0.1820 -0.8816 -1.6176
16480TIP3   OH270854   5.948   6.486   5.086 -0.3340 -0.0272  0.2032
16480TIP3    H170855   6.008   6.548   5.044 -0.6129  0.7686  0.9460
16480TIP3    H270856   5.862   6.506   5.047 -0.5861  0.6807  1.0812
16481TIP3   OH270857   6.097   0.337   4.547  0.5772 -0.3663  0.5312
16481TIP3    H170858   6.022   0.279   4.556  1.2779 -2.1229 -3.1684
16481TIP3    H270859   6.152   0.317   4.623 -1.0460 -1.5866  1.4452
16482TIP3   OH270860   1.827   4.859  14.575  0.0320  0.8955  0.1100
16482TIP3    H170861   1.814   4.953  14.589 -0.6318  1.5637 -3.7203
16482TIP3    H270862   1.922   4.848  14.571  0.1837  0.9754  2.4251
16483TIP3   OH270863   5.946   4.387  12.841 -0.0278 -0.2382 -0.1970
16483TIP3    H170864   5.869   4.370  12.786 -0.4011  0.8973 -0.0439
16483TIP3    H270865   6.019   4.354  12.789 -0.6514 -1.9685 -0.0613
16484TIP3   OH270866   3.557   2.813   0.462  0.4416  0.1755 -0.4777
16484TIP3    H170867   3.649   2.809   0.488  0.0669 -0.9674  0.7404
16484TIP3    H270868   3.535   2.724   0.435 -0.8506 -0.0762  1.2417
16485TIP3   OH270869   5.293   4.145  17.077  0.0516  0.0042  0.6808
16485TIP3    H170870   5.300   4.063  17.126  0.3530  1.0967  2.5894
16485TIP3    H270871   5.203   4.147  17.045 -0.7089 -0.0486  2.6388
16486TIP3   OH270872   3.849   0.857   5.895 -0.0332  0.1778  0.2861
16486TIP3    H170873   3.754   0.849   5.897  0.1151 -3.1294 -0.6218
16486TIP3    H270874   3.871   0.855   5.802  0.9441  0.9862  0.4822
16487TIP3   OH270875   4.038   2.398   5.420  0.4816 -0.1653  0.2046
16487TIP3    H170876   4.105   2.395   5.351  0.8737 -0.5040  0.5906
16487TIP3    H270877   4.049   2.484   5.461  0.9194 -0.3565  0.4948
16488TIP3   OH270878   4.420   6.335  11.722  0.1375 -0.0366 -0.1356
16488TIP3    H170879   4.426   6.286  11.804 -0.4684 -1.1333 -0.7291
16488TIP3    H270880   4.330   6.368  11.721  0.9569  2.4836  1.0002
16489TIP3   OH270881   1.634   1.542  14.709  0.0317 -0.1842  0.9604
16489TIP3    H170882   1.643   1.608  14.778 -0.4134  1.1172 -0.1867
16489TIP3    H270883   1.540   1.523  14.706 -0.0158  0.1204  0.4026
16490TIP3   OH270884   2.578   4.905  17.244 -0.3748 -0.4006  0.3433
16490TIP3    H170885   2.489   4.869  17.244 -0.2403 -0.7371  0.8519
16490TIP3    H270886   2.574   4.980  17.303 -0.9142  1.1147 -1.5102
16491TIP3   OH270887   1.952   1.356   2.629 -0.5419  0.3097 -0.0673
16491TIP3    H170888   1.939   1.284   2.567  0.2299  1.4132 -1.5850
16491TIP3    H270889   2.025   1.406   2.591 -1.4493  2.2154  0.6256
16492TIP3   OH270890   2.970   3.653   0.079 -0.3337  0.2999 -0.4305
16492TIP3    H170891   2.967   3.724   0.144 -1.0785 -0.0670 -0.0667
16492TIP3    H270892   3.039   3.681   0.018 -1.7905  2.2219 -1.3068
16493TIP3   OH270893   3.047   0.260  12.667  0.6033 -0.1608 -0.3444
16493TIP3    H170894   3.028   0.196  12.599 -0.4618 -1.1188  0.8176
16493TIP3    H270895   3.137   0.288  12.649  0.7782 -1.3173 -1.3865
16494TIP3   OH270896   5.164   4.875   3.408  0.4389 -0.5107 -0.0524
16494TIP3    H170897   5.122   4.920   3.481  1.1422  0.3090 -0.1353
16494TIP3    H270898   5.232   4.936   3.377  0.3141 -0.9326 -1.2389
16495TIP3   OH270899   0.057   1.611  11.009  0.4632 -0.1605 -0.1537
16495TIP3    H170900   0.054   1.537  11.069 -2.0295 -0.9290 -1.0908
16495TIP3    H270901   0.016   1.683  11.056  0.5590 -0.1087 -0.1489
16496TIP3   OH270902   1.069   6.554  13.045  0.4504  0.3591  0.3158
16496TIP3    H170903   0.978   6.531  13.031  0.0761  2.0205 -0.2649
16496TIP3    H270904   1.114   6.471  13.060 -1.0529 -0.5209  0.0536
16497TIP3   OH270905   6.423   1.258  14.192 -0.2200 -0.5537 -0.3680
16497TIP3    H170906   6.451   1.187  14.134 -1.5215 -0.8123 -0.7082
16497TIP3    H270907   6.356   1.305  14.142  0.7868  1.0964 -0.2519
16498TIP3   OH270908   0.782   5.920  14.067 -0.9941  0.1065 -0.1864
16498TIP3    H170909   0.768   6.009  14.098  1.0646  0.6331 -0.6037
16498TIP3    H270910   0.777   5.926  13.972  0.7276  0.1544 -0.3145
16499TIP3   OH270911   4.815   6.168  12.698  0.1320  0.4081  0.3443
16499TIP3    H170912   4.750   6.142  12.763  1.5085 -1.4471  1.0514
16499TIP3    H270913   4.845   6.254  12.727  0.2274 -0.0920  1.7712
16500TIP3   OH270914   2.710   4.183  15.585 -0.3511  0.0314  0.0129
16500TIP3    H170915   2.795   4.149  15.559  0.2789 -0.5207  2.5041
16500TIP3    H270916   2.666   4.204  15.503  1.4240 -1.4923 -1.4188
16501TIP3   OH270917   6.002   5.868  15.358  0.1807  0.9748 -0.4968
16501TIP3    H170918   5.998   5.912  15.444  0.1328  0.1539 -0.0695
16501TIP3    H270919   5.925   5.900  15.311  0.0512  1.2180 -0.1248
16502TIP3   OH270920   1.307   2.210   0.088  0.4785  0.7615  0.2600
16502TIP3    H170921   1.343   2.281   0.036 -1.9046  1.1194 -1.0679
16502TIP3    H270922   1.380   2.149   0.100  1.4381  1.1576 -2.6973
16503TIP3   OH270923   2.458   2.505  15.493  0.1236  0.4425  0.0224
16503TIP3    H170924   2.484   2.505  15.401 -0.2439 -0.0715 -0.0824
16503TIP3    H270925   2.367   2.476  15.493  0.3259 -0.2351  0.5993
16504TIP3   OH270926   1.085   5.881  16.388 -0.0228 -0.0791  0.3905
16504TIP3    H170927   1.027   5.940  16.436 -0.5566 -2.1593  2.4716
16504TIP3    H270928   1.034   5.855  16.312 -0.4161  0.8278  0.3230
16505TIP3   OH270929   0.662   5.222   3.531 -0.7346 -0.3264 -0.6636
16505TIP3    H170930   0.685   5.304   3.574 -1.8872  0.2411 -1.1001
16505TIP3    H270931   0.689   5.234   3.440  1.3138 -1.3654 -0.2521
16506TIP3   OH270932   4.116   4.763   4.928 -0.2030  0.3524  0.4656
16506TIP3    H170933   4.022   4.757   4.947 -0.0552 -0.7815  0.9223
16506TIP3    H270934   4.159   4.748   5.013  0.4160 -1.4937 -0.1336
16507TIP3   OH270935   6.336   1.372  16.295 -0.2413  0.0274  0.1692
16507TIP3    H170936   6.389   1.334  16.225 -0.4580  2.3237 -1.3685
16507TIP3    H270937   6.395   1.433  16.339 -0.1142 -1.3652  2.0706
16508TIP3   OH270938   2.175   0.048  15.327  0.2311 -0.5991 -0.4573
16508TIP3    H170939   2.145   0.122  15.274 -0.7546 -0.3590  0.3922
16508TIP3    H270940   2.269   0.045  15.314  0.0696 -0.2541 -1.8373
16509TIP3   OH270941   3.402   3.424  12.532  0.2005 -0.3992  0.6882
16509TIP3    H170942   3.406   3.476  12.612  0.4372  1.0291 -0.2198
16509TIP3    H270943   3.312   3.393  12.528 -0.4806  1.5058  0.3146
16510TIP3   OH270944   3.597   2.750   2.692 -0.4901  0.1228 -0.4157
16510TIP3    H170945   3.552   2.833   2.709  0.0055  0.1022  1.1661
16510TIP3    H270946   3.619   2.753   2.599  1.4255  2.7547  0.0107
16511TIP3   OH270947   2.825   0.549  13.766  0.0091  0.4319  0.1823
16511TIP3    H170948   2.794   0.595  13.688 -0.7987 -0.0711  0.2042
16511TIP3    H270949   2.914   0.582  13.778 -0.7831  2.5492  0.6271
16512TIP3   OH270950   2.084   4.332   5.152  0.5471  0.7102 -0.4024
16512TIP3    H170951   2.057   4.246   5.185 -1.0182  1.9507  1.7544
16512TIP3    H270952   2.011   4.361   5.098  0.3049  1.3854  0.2704
16513TIP3   OH270953   4.674   3.146   4.493  0.2621 -0.5743 -0.0225
16513TIP3    H170954   4.632   3.118   4.412 -1.1938  2.3621 -0.4319
16513TIP3    H270955   4.768   3.144   4.474  0.1123 -2.4790 -0.7957
16514TIP3   OH270956   5.246   0.246  11.066  0.2663  0.0532 -0.1230
16514TIP3    H170957   5.239   0.227  10.972 -1.3186  1.0033 -0.2283
16514TIP3    H270958   5.157   0.237  11.099  0.8547 -0.6264  1.3974
16515TIP3   OH270959   0.374   6.140   1.581  0.5588 -0.4446 -0.2342
16515TIP3    H170960   0.312   6.198   1.537  0.7687 -0.0206  0.0211
16515TIP3    H270961   0.359   6.155   1.675 -0.7196 -2.2179 -0.1133
16516TIP3   OH270962   1.494   1.490   5.003 -0.0744  0.5000 -0.1445
16516TIP3    H170963   1.429   1.420   5.009 -0.3231  0.5543 -1.6445
16516TIP3    H270964   1.575   1.446   4.979  0.3560  0.4843  1.2740
16517TIP3   OH270965   5.454   5.024  14.812 -0.4897 -0.5172 -0.4473
16517TIP3    H170966   5.364   5.023  14.780 -0.8478  1.6949  0.3387
16517TIP3    H270967   5.451   4.973  14.893 -1.4357  0.8121  0.4083
16518TIP3   OH270968   1.370   1.263  12.175 -0.3853 -0.4017 -0.5382
16518TIP3    H170969   1.309   1.190  12.183 -2.4959  1.2870 -0.2885
16518TIP3    H270970   1.398   1.281  12.265  2.0601 -2.3215 -0.8023
16519TIP3   OH270971   4.474   5.824  14.159 -0.2888 -0.4773  0.3263
16519TIP3    H170972   4.524   5.892  14.204  2.3517 -0.6336 -2.1009
16519TIP3    H270973   4.389   5.823  14.204  0.1031  3.2617  1.5066
16520TIP3   OH270974   0.377   5.144   2.451  0.5491 -0.0603  0.2173
16520TIP3    H170975   0.340   5.112   2.534 -1.5437 -0.0850 -0.6555
16520TIP3    H270976   0.471   5.127   2.459  0.1937 -1.6685  1.8765
16521TIP3   OH270977   4.367   6.755  15.032 -0.1526 -0.4918  0.1664
16521TIP3    H170978   4.414   6.722  14.955  0.2835  0.4401  0.0084
16521TIP3    H270979   4.289   6.700  15.039 -0.6396 -0.0765 -1.4603
16522TIP3   OH270980   5.001   3.896  13.168 -0.1736 -0.2048 -0.6512
16522TIP3    H170981   5.064   3.828  13.193  0.1467  0.6246  0.9666
16522TIP3    H270982   5.021   3.969  13.227 -1.6208  0.6637 -1.1938
16523TIP3   OH270983   4.768   0.002   3.740  0.1309  0.1426  0.0906
16523TIP3    H170984   4.808   0.042   3.663  1.0304 -0.4254  0.2501
16523TIP3    H270985   4.777  -0.092   3.725  1.6678  0.0199  1.5574
16524TIP3   OH270986   0.365   6.718  15.264 -0.7300  0.1487  0.4487
16524TIP3    H170987   0.361   6.622  15.265 -1.3721  0.1641  0.3080
16524TIP3    H270988   0.456   6.738  15.245 -0.3929 -0.4216  1.4202
16525TIP3   OH270989   6.693   5.282  15.782 -0.8488 -0.4800  0.5976
16525TIP3    H170990   6.704   5.198  15.737 -0.6382 -0.4824  0.6506
16525TIP3    H270991   6.766   5.286  15.844  0.3824  0.6451 -0.8190
16526TIP3   OH270992   1.742   2.023   3.163 -0.4547  0.0569  0.0481
16526TIP3    H170993   1.650   1.997   3.157 -0.3058 -1.0249  1.9550
16526TIP3    H270994   1.740   2.118   3.148 -1.3993 -0.3831 -3.5796
16527TIP3   OH270995   2.700   1.142   3.365 -0.4623 -0.0814  0.3476
16527TIP3    H170996   2.690   1.221   3.418  0.8967 -0.8199  1.8209
16527TIP3    H270997   2.770   1.162   3.304  0.9723 -0.5755  1.7468
16528TIP3   OH270998   6.463   4.864  12.824 -0.0401  0.2692  0.2578
16528TIP3    H170999   6.368   4.858  12.818 -0.5335  3.2489  2.4117
16528TIP3    H271000   6.482   4.857  12.918  1.6906  0.9729  0.0073
16529TIP3   OH271001   3.667   2.732  14.958  0.0016 -0.4605 -0.6449
16529TIP3    H171002   3.654   2.732  15.052 -0.0535 -0.8332 -0.6523
16529TIP3    H271003   3.661   2.825  14.933  0.4602 -0.3137 -0.2266
16530TIP3   OH271004   3.322   3.814  13.472 -0.3058  0.0173 -0.0977
16530TIP3    H171005   3.290   3.759  13.401 -2.6572  1.2163 -0.0594
16530TIP3    H271006   3.344   3.752  13.542  0.0398 -1.0411 -1.1070
16531TIP3   OH271007   0.013   2.765   4.272  0.2285  0.0692 -0.3680
16531TIP3    H171008   0.106   2.789   4.278  0.2507 -0.1495  0.2404
16531TIP3    H271009  -0.029   2.819   4.339 -0.1895  0.6419 -1.0738
16532TIP3   OH271010   2.542   3.726  12.045 -0.8750  0.2760  0.3134
16532TIP3    H171011   2.627   3.768  12.058 -0.8484  1.0352 -1.8670
16532TIP3    H271012   2.478   3.792  12.073 -0.7818 -0.2077  1.7300
16533TIP3   OH271013   3.843   2.484   0.122  0.5190 -0.2068 -0.0965
16533TIP3    H171014   3.908   2.552   0.103  0.2810  0.5962  1.7473
16533TIP3    H271015   3.767   2.509   0.070  0.8933  0.1709 -0.4760
16534TIP3   OH271016   3.896   5.621   4.333 -0.2689 -0.0932 -0.3067
16534TIP3    H171017   3.884   5.544   4.389  4.7007  0.2989  1.7734
16534TIP3    H271018   3.895   5.695   4.393  1.7722  0.7105 -1.1712
16535TIP3   OH271019   0.578   0.868  11.665  0.0395 -0.5922  0.5414
16535TIP3    H171020   0.609   0.934  11.603 -1.5330 -1.5364 -1.3537
16535TIP3    H271021   0.642   0.798  11.659  0.3497 -0.3176  0.6279
16536TIP3   OH271022   3.254   0.859  11.123 -0.3100  0.0879 -0.1987
16536TIP3    H171023   3.237   0.769  11.097 -2.4129  0.9277 -2.0116
16536TIP3    H271024   3.310   0.894  11.054  0.4361  0.2094  0.4567
16537TIP3   OH271025   4.498   5.520  12.941  0.0341  0.0396  0.0611
16537TIP3    H171026   4.488   5.490  12.850  1.5385  0.7341 -0.3578
16537TIP3    H271027   4.533   5.608  12.933  0.5332 -0.0324  1.3241
16538TIP3   OH271028   3.256   5.838  14.596  0.1413  0.7442  0.5263
16538TIP3    H171029   3.303   5.916  14.567 -1.5267  0.9492 -1.8785
16538TIP3    H271030   3.250   5.782  14.518 -0.1529 -1.0661  1.7662
16539TIP3   OH271031   3.918   2.839  14.795  0.6941 -0.2816 -0.7015
16539TIP3    H171032   3.877   2.761  14.757  1.2440 -0.4305 -0.9908
16539TIP3    H271033   3.870   2.912  14.755 -0.8942 -0.4663  0.7607
16540TIP3   OH271034   6.385   0.533   5.639 -0.0848 -0.0491  0.1933
16540TIP3    H171035   6.439   0.528   5.718  1.1415 -0.6013 -0.6466
16540TIP3    H271036   6.356   0.624   5.636 -1.3697 -0.3207  2.0229
16541TIP3   OH271037   6.020   1.240  13.877  0.3286 -0.2077 -0.2333
16541TIP3    H171038   5.991   1.154  13.908 -2.8648  0.2788 -1.4879
16541TIP3    H271039   5.953   1.301  13.907  1.8822  1.6969 -0.4280
16542TIP3   OH271040   2.961   4.055   1.122 -0.3324 -0.1901  0.3126
16542TIP3    H171041   2.873   4.042   1.086 -0.0831 -1.4224  0.0816
16542TIP3    H271042   3.007   4.106   1.055 -0.3930 -0.9800 -0.3536
16543TIP3   OH271043   6.313   0.787  14.399 -0.1283 -0.8370 -0.1243
16543TIP3    H171044   6.267   0.817  14.477 -2.0033 -1.0779 -1.0890
16543TIP3    H271045   6.370   0.860  14.375 -0.3612 -0.3254  0.8277
16544TIP3   OH271046   1.903   2.888   6.582  0.0412 -0.5956  0.1800
16544TIP3    H171047   1.994   2.900   6.608 -0.6895 -1.2675  3.5073
16544TIP3    H271048   1.902   2.806   6.534  1.0922 -0.9848  0.7846
16545TIP3   OH271049   4.965   0.298  11.956 -0.3723  0.0511 -1.3616
16545TIP3    H171050   4.986   0.370  12.016  2.0221 -0.9775 -0.8481
16545TIP3    H271051   4.883   0.263  11.990  0.7224 -0.2927  1.2210
16546TIP3   OH271052   4.521   0.313   3.381  0.0436  0.5812 -0.1078
16546TIP3    H171053   4.465   0.335   3.456 -1.9842  0.5885 -1.5509
16546TIP3    H271054   4.492   0.373   3.312  2.1476  0.8533 -0.8186
16547TIP3   OH271055   1.792   6.498   3.580  0.7676 -0.7527  0.1411
16547TIP3    H171056   1.870   6.547   3.606 -1.9905  3.1372  2.0381
16547TIP3    H271057   1.760   6.545   3.503 -0.1450 -1.7892 -0.1278
16548TIP3   OH271058   4.469   1.788   0.830 -0.0846  0.5067 -0.4599
16548TIP3    H171059   4.375   1.797   0.844 -0.1259  0.8326 -0.9139
16548TIP3    H271060   4.491   1.859   0.769  0.1002 -0.8084 -1.9697
16549TIP3   OH271061   1.113   5.766  12.200 -0.1951  0.0681  0.0647
16549TIP3    H171062   1.165   5.701  12.153 -0.3436  0.1812 -0.2519
16549TIP3    H271063   1.041   5.715  12.238 -0.3588  0.0627 -0.2539
16550TIP3   OH271064   3.625   0.263  14.029  0.2111  0.4156  0.5303
16550TIP3    H171065   3.641   0.218  14.112 -1.7644  1.4508  1.5265
16550TIP3    H271066   3.575   0.341  14.053  1.7219  2.0819 -1.3727
16551TIP3   OH271067   3.568   4.899   4.186  0.1485 -0.3312  0.4275
16551TIP3    H171068   3.492   4.956   4.176  1.3388  0.9351 -1.9723
16551TIP3    H271069   3.602   4.888   4.098  1.8537 -2.1823  1.2430
16552TIP3   OH271070   2.326   1.091   3.789 -0.5864 -0.6894  0.5145
16552TIP3    H171071   2.384   1.080   3.864  2.1355  0.9553 -1.1748
16552TIP3    H271072   2.329   1.006   3.744  2.4258 -0.0453 -0.7064
16553TIP3   OH271073   0.265   6.049   3.971  0.4871 -0.2025  0.0995
16553TIP3    H171074   0.304   6.123   4.017 -0.1613 -0.5126  1.1847
16553TIP3    H271075   0.320   5.974   3.995  2.6685  0.2542 -2.9740
16554TIP3   OH271076   5.969   2.113  14.206 -0.0427  0.4063  0.4818
16554TIP3    H171077   5.957   2.137  14.114  0.6789 -1.0451 -0.0260
16554TIP3    H271078   5.890   2.144  14.250 -0.4260  1.0627 -0.6358
16555TIP3   OH271079   0.795   1.802  11.168 -0.0801  0.0637  0.7187
16555TIP3    H171080   0.723   1.861  11.147  0.2845  0.3135  0.1187
16555TIP3    H271081   0.804   1.746  11.091  0.5847  0.2749  0.6275
16556TIP3   OH271082   4.147   6.636   1.379  0.3261 -0.8409  0.1775
16556TIP3    H171083   4.230   6.600   1.410  0.7880  1.1321  1.4425
16556TIP3    H271084   4.164   6.730   1.370 -1.4844 -0.5432 -0.5694
16557TIP3   OH271085   3.680   6.475   4.786 -0.1123  0.1809  0.6029
16557TIP3    H171086   3.674   6.570   4.774  2.5118  0.2692 -0.7526
16557TIP3    H271087   3.760   6.463   4.837  0.9218 -1.3805 -1.2783
16558TIP3   OH271088   3.561   1.019  13.182  0.8986  0.0101 -0.9292
16558TIP3    H171089   3.632   1.070  13.221 -1.2357  1.6021  1.1400
16558TIP3    H271090   3.543   0.951  13.247  1.6258 -1.5323 -2.2601
16559TIP3   OH271091   4.184   5.749  14.201 -0.1031  0.0079 -0.0405
16559TIP3    H171092   4.136   5.752  14.284 -2.5801  1.4582 -1.4059
16559TIP3    H271093   4.133   5.689  14.147  2.5182 -2.4182 -0.0243
16560TIP3   OH271094   0.649   5.096  14.944 -0.0959 -0.4743  0.5274
16560TIP3    H171095   0.565   5.094  14.989 -1.3248 -0.2656 -1.5840
16560TIP3    H271096   0.708   5.045  15.000 -1.6886 -0.8660  1.9395
16561TIP3   OH271097   1.776   5.056   4.146  0.2128  0.6433 -0.0130
16561TIP3    H171098   1.713   5.090   4.083  0.9156  0.5162 -0.8061
16561TIP3    H271099   1.839   5.008   4.093  0.8295  0.5404  0.7925
16562TIP3   OH271100   5.445   6.461   3.066  0.4243 -0.0013  0.1813
16562TIP3    H171101   5.471   6.370   3.052 -1.3534 -0.3192 -1.6646
16562TIP3    H271102   5.522   6.503   3.104  1.4193 -2.1768  0.7155
16563TIP3   OH271103   5.395   1.833  15.078  0.0599 -0.1179  0.3337
16563TIP3    H171104   5.430   1.846  14.990  0.7698  1.9107  0.8613
16563TIP3    H271105   5.336   1.758  15.069  0.3254 -0.1471 -1.7926
16564TIP3   OH271106   5.683   0.252   1.037 -0.3050  0.2444 -0.4854
16564TIP3    H171107   5.680   0.315   0.965 -0.9625 -1.5976 -2.1882
16564TIP3    H271108   5.709   0.170   0.995  1.3234 -0.4859  1.7811
16565TIP3   OH271109   2.473   3.983  11.216  0.3596  0.4282  0.5336
16565TIP3    H171110   2.492   4.077  11.211  0.7553  0.3231 -0.1926
16565TIP3    H271111   2.381   3.978  11.243 -0.5355  1.1059 -2.0637
16566TIP3   OH271112   0.245   0.597  14.144  0.3442  0.8036 -0.1339
16566TIP3    H171113   0.292   0.545  14.078 -0.2155 -0.1384  0.2010
16566TIP3    H271114   0.153   0.590  14.119  0.0250 -0.2740  1.2132
16567TIP3   OH271115   6.539   0.987  14.268 -0.2796 -0.2251 -0.1024
16567TIP3    H171116   6.629   1.011  14.290  0.5792 -2.3339 -1.0023
16567TIP3    H271117   6.490   1.068  14.275  1.5432  0.8361  1.1645
16568TIP3   OH271118   3.467   0.449   2.832  0.3902  0.2296  0.0750
16568TIP3    H171119   3.516   0.467   2.752  0.3059  0.0081 -0.0250
16568TIP3    H271120   3.510   0.503   2.899 -0.1471  1.1799 -0.3201
16569TIP3   OH271121   5.545   5.752  14.575  0.1428  0.1058 -0.4083
16569TIP3    H171122   5.493   5.732  14.497  0.6032  0.7743 -0.9041
16569TIP3    H271123   5.603   5.677  14.585 -0.9442 -0.6940  0.2047
16570TIP3   OH271124   3.063   6.490   3.881 -0.5237  0.6378 -0.4190
16570TIP3    H171125   2.978   6.534   3.882 -1.2932 -0.7792 -0.4093
16570TIP3    H271126   3.045   6.405   3.840  0.8889  0.3018 -0.3977
16571TIP3   OH271127   2.806   0.857  14.061  0.1909  0.1015 -0.0370
16571TIP3    H171128   2.890   0.853  14.107  0.0965 -0.1842  0.1122
16571TIP3    H271129   2.775   0.767  14.061 -0.5940  0.3570  0.7957
16572TIP3   OH271130   3.856   5.415  11.791  0.1854 -0.4628  0.1534
16572TIP3    H171131   3.779   5.372  11.828  1.3969 -1.4687  1.6261
16572TIP3    H271132   3.829   5.506  11.777 -1.3177 -0.8392  0.4471
16573TIP3   OH271133   5.047   2.478   5.288 -0.1073 -0.1992 -0.5083
16573TIP3    H171134   5.132   2.509   5.320 -0.8475  0.2436  1.1553
16573TIP3    H271135   5.051   2.383   5.297  0.2414 -0.1861 -0.5134
16574TIP3   OH271136   2.214   2.202  16.906  1.0851  0.9841  0.2047
16574TIP3    H171137   2.160   2.263  16.957  0.9008  0.8231  0.2009
16574TIP3    H271138   2.152   2.157  16.849  1.1712  0.5189  0.4757
16575TIP3   OH271139   4.138   2.153   6.022 -0.2678  0.6170 -0.4266
16575TIP3    H171140   4.043   2.152   6.035 -0.3004 -0.0734 -0.6708
16575TIP3    H271141   4.174   2.120   6.104 -0.3297 -0.7198 -0.9037
16576TIP3   OH271142   4.803   5.883   2.039  0.2347  0.0412  0.2835
16576TIP3    H171143   4.772   5.807   2.088 -0.6005 -1.0899 -1.8571
16576TIP3    H271144   4.898   5.869   2.031  0.1658 -0.4871  0.3684
16577TIP3   OH271145   0.487   6.525   0.303 -0.3552 -1.1368 -0.2734
16577TIP3    H171146   0.532   6.451   0.261 -0.4531 -0.3199 -1.9020
16577TIP3    H271147   0.467   6.494   0.391  1.5286 -2.2694 -0.1947
16578TIP3   OH271148   3.658   1.895   5.788  0.2053 -0.3493  0.6238
16578TIP3    H171149   3.593   1.962   5.807 -1.6037 -1.8491  0.0230
16578TIP3    H271150   3.669   1.847   5.870  0.7888  0.0731  0.7997
16579TIP3   OH271151   4.002   3.369  16.275 -0.5446  0.0102  0.1745
16579TIP3    H171152   4.019   3.411  16.359  0.9786 -2.0705  0.9822
16579TIP3    H271153   3.913   3.396  16.252 -0.6049  1.4797  1.8925
16580TIP3   OH271154   5.181   1.919   5.250 -0.8535 -0.2192 -0.3099
16580TIP3    H171155   5.149   1.843   5.299 -1.6130 -0.3895 -1.0270
16580TIP3    H271156   5.168   1.894   5.158  1.9394 -0.5385 -0.6867
16581TIP3   OH271157   1.580   5.886   4.805 -0.4269  0.8021 -0.2977
16581TIP3    H171158   1.638   5.951   4.843 -2.6640  2.6782  0.1462
16581TIP3    H271159   1.575   5.817   4.871 -0.1160  1.4856  0.4604
16582TIP3   OH271160   2.697   5.015   1.983  0.2977 -0.5232  0.1936
16582TIP3    H171161   2.605   5.024   2.010  0.4606  1.0854  0.3072
16582TIP3    H271162   2.744   4.996   2.064  0.2564  0.1838  0.3866
16583TIP3   OH271163   1.854   0.694  14.078 -0.2231  0.6197 -0.3287
16583TIP3    H171164   1.928   0.633  14.082  0.1067  1.0717  0.9237
16583TIP3    H271165   1.835   0.703  13.985 -1.1473 -2.4005 -0.5128
16584TIP3   OH271166   1.158   4.087   1.203  0.1695  0.7026  0.3452
16584TIP3    H171167   1.214   4.164   1.202 -0.0975  0.8975  0.5322
16584TIP3    H271168   1.196   4.030   1.270  0.6329  0.4680 -0.1001
16585TIP3   OH271169   5.467   2.406  14.762  0.1740  0.4023  0.1466
16585TIP3    H171170   5.546   2.357  14.743  0.3754  0.2471  1.2783
16585TIP3    H271171   5.467   2.478  14.698  0.8306 -0.0194 -0.3417
16586TIP3   OH271172   2.904   6.516  11.989 -0.1164 -0.5010  0.1695
16586TIP3    H171173   2.922   6.598  11.944 -1.7782  0.2058  0.7117
16586TIP3    H271174   2.939   6.528  12.077 -0.7533 -0.1766  0.3875
16587TIP3   OH271175   6.187   3.597   1.699  0.3483 -0.2329 -0.2828
16587TIP3    H171176   6.247   3.539   1.746  1.7707 -0.0839 -1.7959
16587TIP3    H271177   6.245   3.652   1.645 -0.9891  1.9756  0.4004
16588TIP3   OH271178   3.620   4.384  15.871  0.1739 -0.0839  0.3217
16588TIP3    H171179   3.552   4.323  15.844 -0.5049  0.6470  0.3498
16588TIP3    H271180   3.621   4.452  15.803  1.3030 -0.4073 -0.0010
16589TIP3   OH271181   0.622   5.548   4.417 -0.3729 -0.0288  0.7066
16589TIP3    H171182   0.680   5.604   4.467  1.0048 -1.7916  1.1941
16589TIP3    H271183   0.551   5.526   4.477 -0.3795  0.3716  0.8448
16590TIP3   OH271184   1.154   1.524   0.438 -0.4157 -0.7901  0.0268
16590TIP3    H171185   1.119   1.451   0.489 -0.5707  0.0346  1.1410
16590TIP3    H271186   1.160   1.490   0.349 -1.9770 -1.6651  0.2147
16591TIP3   OH271187   4.843   3.798   2.960  0.0757 -0.3387 -0.2045
16591TIP3    H171188   4.911   3.865   2.953  1.8763 -2.1749 -1.7489
16591TIP3    H271189   4.761   3.844   2.943  1.0639  1.7415  0.4566
16592TIP3   OH271190   1.785   1.660   4.311 -0.1147  0.3424 -0.0391
16592TIP3    H171191   1.744   1.580   4.345 -1.4840  1.0543  0.0324
16592TIP3    H271192   1.852   1.628   4.250  1.0018 -0.9050  1.7462
16593TIP3   OH271193   0.779   4.891  15.053 -0.3721 -0.4192 -0.2454
16593TIP3    H171194   0.874   4.897  15.047 -0.4366  0.8777 -0.2448
16593TIP3    H271195   0.763   4.807  15.098  0.8828  0.6529  2.4284
16594TIP3   OH271196   2.825   0.825   1.793 -0.1541 -0.3144 -0.4953
16594TIP3    H171197   2.736   0.828   1.828  0.5326  0.9325  1.2783
16594TIP3    H271198   2.814   0.821   1.698 -2.0987  1.1859 -0.3821
16595TIP3   OH271199   3.178   4.292   4.561  0.6595 -0.1593  0.4678
16595TIP3    H171200   3.123   4.252   4.629 -0.3022  1.3430  0.6155
16595TIP3    H271201   3.260   4.312   4.606 -0.1955  1.4173  1.4291
16596TIP3   OH271202   0.095   0.415  10.761  0.7517 -0.1452 -0.4036
16596TIP3    H171203   0.143   0.455  10.688 -1.2717  0.6942 -1.3466
16596TIP3    H271204   0.003   0.421  10.735 -0.0607  0.3785  2.3406
16597TIP3   OH271205   0.072   4.685  16.535  0.6577 -0.4223 -0.4500
16597TIP3    H171206   0.167   4.685  16.524  0.5041 -2.2138 -2.1222
16597TIP3    H271207   0.037   4.707  16.449 -0.4662 -0.9821 -0.1630
16598TIP3   OH271208   0.362   2.664   3.470  0.7796 -0.4356 -0.3719
16598TIP3    H171209   0.345   2.756   3.493 -1.3710 -1.1057  1.0975
16598TIP3    H271210   0.275   2.626   3.460  1.5717 -2.6463  0.4859
16599TIP3   OH271211   3.255   3.022   0.430  0.2408  0.0415  0.3555
16599TIP3    H171212   3.245   3.105   0.383  2.4365  0.4782  0.5227
16599TIP3    H271213   3.175   2.973   0.411 -1.6732  2.6257  1.2009
16600TIP3   OH271214   0.175   3.662   4.374 -0.2626  0.2921  0.5004
16600TIP3    H171215   0.235   3.599   4.334  1.0877  0.5302  2.0482
16600TIP3    H271216   0.094   3.612   4.387  0.5743 -0.9679  1.1224
16601TIP3   OH271217   5.854   5.727   6.664  0.8669  0.1057 -0.2201
16601TIP3    H171218   5.871   5.819   6.683  0.1314  0.4787 -1.2518
16601TIP3    H271219   5.765   5.711   6.696  0.7245 -0.0402 -0.6701
16602TIP3   OH271220   5.404   1.273   5.214  0.1449  0.4837  0.1105
16602TIP3    H171221   5.372   1.185   5.194  0.3345  0.7439 -1.4638
16602TIP3    H271222   5.350   1.331   5.160 -0.1423  1.3822  1.2998
16603TIP3   OH271223   0.946   0.313   0.122 -0.4073 -0.1429  0.7694
16603TIP3    H171224   0.904   0.315   0.036 -1.0638 -1.1581  1.0520
16603TIP3    H271225   0.915   0.232   0.162 -0.1660  0.3499  1.9930
16604TIP3   OH271226   5.428   5.268   5.365  0.5387  0.1245 -0.3175
16604TIP3    H171227   5.508   5.216   5.364  0.7773  0.4711  0.2058
16604TIP3    H271228   5.402   5.270   5.457 -1.5443 -2.1882 -0.7615
16605TIP3   OH271229   3.036   0.096   3.088 -0.2933  0.1801 -0.2004
16605TIP3    H171230   2.956   0.133   3.125 -0.2628 -0.1545  0.2094
16605TIP3    H271231   3.011   0.007   3.061 -0.1832  0.2432 -0.5140
16606TIP3   OH271232   0.999   5.525  12.330  0.4051  0.0257  0.3053
16606TIP3    H171233   1.064   5.456  12.345  0.7003  0.0761 -0.6417
16606TIP3    H271234   1.022   5.594  12.392  0.7834 -0.2755  0.5073
16607TIP3   OH271235   5.817   0.434   5.764 -0.3339 -0.4463  0.2083
16607TIP3    H171236   5.818   0.530   5.760 -1.4164 -0.4257  0.2720
16607TIP3    H271237   5.797   0.414   5.855 -1.5586 -0.7161 -0.1075
16608TIP3   OH271238   5.490   2.623   3.085 -0.2088 -0.2734  0.0943
16608TIP3    H171239   5.537   2.706   3.080 -0.7610  0.0861  0.6340
16608TIP3    H271240   5.541   2.563   3.032  0.9455  0.0564  0.7839
16609TIP3   OH271241   6.661   6.218   4.391 -0.0835  0.6601 -0.2544
16609TIP3    H171242   6.570   6.188   4.402 -0.3127  1.9272  2.0915
16609TIP3    H271243   6.703   6.198   4.475  1.6611  0.6777 -1.0778
16610TIP3   OH271244   2.323   2.732  14.034 -0.1792 -0.6701 -0.2875
16610TIP3    H171245   2.243   2.682  14.050 -1.4925  1.6925  1.2179
16610TIP3    H271246   2.364   2.738  14.120  1.4153 -1.4375 -0.9608
16611TIP3   OH271247   5.218   4.182  11.998 -0.3743 -0.1324 -0.3563
16611TIP3    H171248   5.247   4.114  12.059 -1.3926  0.2722  0.6113
16611TIP3    H271249   5.203   4.136  11.916  0.8976 -0.7142 -0.2884
16612TIP3   OH271250   5.931   2.387   3.571  1.0857  0.2044 -0.4507
16612TIP3    H171251   5.888   2.325   3.512  0.7557  1.0783 -1.1575
16612TIP3    H271252   5.877   2.466   3.566  0.7329  0.1414  1.4646
16613TIP3   OH271253   1.362   2.699   2.714  0.1532 -0.1831  0.1773
16613TIP3    H171254   1.437   2.663   2.762  0.5487 -1.0558 -1.0376
16613TIP3    H271255   1.323   2.763   2.774  0.4600 -1.4099  1.7490
16614TIP3   OH271256   1.468   5.403  13.368 -0.3730 -0.0705 -0.1530
16614TIP3    H171257   1.388   5.382  13.322  0.1936 -0.1860 -1.1068
16614TIP3    H271258   1.537   5.396  13.302  0.7359 -2.1334  1.1188
16615TIP3   OH271259   0.414   1.398  15.164 -0.6109  0.3692 -0.1607
16615TIP3    H171260   0.472   1.343  15.215 -1.8408  0.2599  1.1844
16615TIP3    H271261   0.369   1.338  15.104  1.0736  0.5435 -1.6858
16616TIP3   OH271262   0.876   0.065   2.390 -0.3418  0.1234  0.7473
16616TIP3    H171263   0.940   0.127   2.356 -0.0809  0.1087  1.2083
16616TIP3    H271264   0.915   0.031   2.471 -1.1202  0.4425  1.2723
16617TIP3   OH271265   2.426   4.154  11.913 -0.1754  0.3465 -0.3462
16617TIP3    H171266   2.393   4.149  12.003  1.9563  0.3768  0.4763
16617TIP3    H271267   2.448   4.064  11.890  1.1745  0.5842 -0.0648
16618TIP3   OH271268   0.119   4.078   5.577  0.1281 -0.0732  0.1164
16618TIP3    H171269   0.088   4.151   5.630  0.4497  0.4326 -0.3731
16618TIP3    H271270   0.196   4.113   5.531 -0.1932 -0.4601 -0.7438
16619TIP3   OH271271   2.467   1.457   2.763  0.3265 -0.1580  0.0792
16619TIP3    H171272   2.514   1.374   2.764  0.5697 -0.0735 -1.5294
16619TIP3    H271273   2.489   1.496   2.678 -0.6522  1.0462  0.3449
16620TIP3   OH271274   2.518   6.041  11.643 -0.5499 -0.0266 -0.6455
16620TIP3    H171275   2.456   6.031  11.716  0.4017  1.3770  0.4100
16620TIP3    H271276   2.491   6.122  11.600  1.0185  1.1033  0.3748
16621TIP3   OH271277   1.596   5.590   1.595  0.0726 -0.0049  0.3139
16621TIP3    H171278   1.568   5.675   1.628 -0.0046 -0.1127  0.5273
16621TIP3    H271279   1.535   5.527   1.634  0.2187 -0.1730  0.2742
16622TIP3   OH271280   1.120   1.978   2.712  0.1453 -0.8100 -0.0640
16622TIP3    H171281   1.166   2.054   2.748 -1.3204 -0.5062  1.2253
16622TIP3    H271282   1.112   1.917   2.786  1.1135 -2.1658 -1.0219
16623TIP3   OH271283   4.346   6.558   4.318 -0.1314  0.3680  0.1323
16623TIP3    H171284   4.256   6.582   4.341 -0.6909 -1.8484  0.5081
16623TIP3    H271285   4.396   6.568   4.399 -0.2972  0.5258  0.2138
16624TIP3   OH271286   3.152   2.433   3.878  0.6455  0.6454  0.3317
16624TIP3    H171287   3.239   2.403   3.852  1.0085 -0.0210  2.1988
16624TIP3    H271288   3.092   2.373   3.832  1.1905  0.4801 -0.1854
16625TIP3   OH271289   3.225   1.452   3.593  0.1431  0.3101 -0.4086
16625TIP3    H171290   3.248   1.543   3.606 -0.3278  0.1754  1.6389
16625TIP3    H271291   3.246   1.409   3.676 -0.7358 -1.2020 -0.9232
16626TIP3   OH271292   3.522   1.417  16.034  0.6652  0.3404 -0.2148
16626TIP3    H171293   3.504   1.450  16.122 -1.4351  1.5516 -1.0197
16626TIP3    H271294   3.448   1.358  16.017  0.9898  0.2182 -1.2069
16627TIP3   OH271295   4.863   3.115   4.808 -0.2241 -0.1560 -0.3244
16627TIP3    H171296   4.857   3.209   4.794  1.3776 -0.1216 -0.9528
16627TIP3    H271297   4.911   3.106   4.890  1.7137 -0.3950 -1.4334
16628TIP3   OH271298   5.456   6.731  16.013 -0.1461 -0.3548  0.0753
16628TIP3    H171299   5.506   6.662  16.056  0.2397  0.7821  1.5235
16628TIP3    H271300   5.501   6.744  15.929  0.5538 -0.9567  0.3441
16629TIP3   OH271301   0.894   4.018   2.714  0.4618 -0.0159  0.0635
16629TIP3    H171302   0.987   4.033   2.697  0.0848  3.8606  0.4998
16629TIP3    H271303   0.849   4.076   2.653 -1.8080 -2.2438 -0.5824
16630TIP3   OH271304   4.605   6.161   5.707 -0.2956  0.2636  0.0682
16630TIP3    H171305   4.678   6.221   5.690  1.3912 -1.1576  1.8344
16630TIP3    H271306   4.527   6.211   5.684  1.2231  1.5285 -2.8311
16631TIP3   OH271307   1.156   3.151  10.955  0.4574 -0.4516 -0.1722
16631TIP3    H171308   1.224   3.084  10.950  1.8259  0.9494 -1.1125
16631TIP3    H271309   1.136   3.172  10.864 -1.0876 -0.6423  0.0886
16632TIP3   OH271310   5.527   0.744   4.162  0.7305  0.9013  0.2063
16632TIP3    H171311   5.611   0.745   4.207  1.5907  3.1046 -1.2920
16632TIP3    H271312   5.475   0.812   4.205 -0.1953 -0.1978  0.8840
16633TIP3   OH271313   5.861   3.967   3.507  0.5474  0.1439  0.5323
16633TIP3    H171314   5.895   4.048   3.470  2.4761 -1.7690 -2.2482
16633TIP3    H271315   5.768   3.966   3.483  0.5392  1.3879  0.4485
16634TIP3   OH271316   5.826   2.807   0.841 -0.0196 -0.3807  0.3081
16634TIP3    H171317   5.821   2.717   0.874 -0.2521 -0.4161  0.1794
16634TIP3    H271318   5.895   2.804   0.775  0.0989 -0.4228  0.4314
16635TIP3   OH271319   0.881   1.721   1.544  0.5336  0.5590 -0.7814
16635TIP3    H171320   0.829   1.754   1.471  0.7866  0.5257 -0.9809
16635TIP3    H271321   0.890   1.627   1.526  0.4031  0.5077 -0.5845
16636TIP3   OH271322   0.221   1.464   2.031  1.1723  0.3423  0.0295
16636TIP3    H171323   0.145   1.491   1.979  1.3684  0.7403 -0.0566
16636TIP3    H271324   0.188   1.396   2.089 -0.0897  2.7224  2.3311
16637TIP3   OH271325   2.782   2.569  10.887 -0.3195 -0.0037 -0.3197
16637TIP3    H171326   2.735   2.520  10.819 -1.5520 -0.5443  0.8672
16637TIP3    H271327   2.854   2.511  10.912  0.4304  0.3980 -1.4489
16638TIP3   OH271328   0.038   5.576  14.593 -0.6441  0.1849 -0.5666
16638TIP3    H171329   0.015   5.631  14.518  0.3505  1.2729 -0.0924
16638TIP3    H271330  -0.034   5.589  14.655 -0.2793  1.1962 -0.3378
16639TIP3   OH271331   4.347   5.501  14.624  0.4194  0.1754  0.2079
16639TIP3    H171332   4.378   5.591  14.625 -1.2052  0.7698 -0.0047
16639TIP3    H271333   4.329   5.480  14.715  1.9776 -0.3954  0.4120
16640TIP3   OH271334   2.260   5.253  16.055  0.2417 -0.7090 -0.0076
16640TIP3    H171335   2.263   5.250  15.959 -1.0013  0.7827 -0.1349
16640TIP3    H271336   2.198   5.184  16.079 -1.8726  0.8893 -0.5432
16641TIP3   OH271337   2.062   3.800   4.874 -0.0356  0.1471 -0.1416
16641TIP3    H171338   2.134   3.781   4.813 -0.1855  2.4085 -1.1062
16641TIP3    H271339   2.080   3.888   4.906 -0.9787 -0.2805  1.7067
16642TIP3   OH271340   2.517   1.344   1.398  0.0022  0.1874  0.3772
16642TIP3    H171341   2.453   1.337   1.328  0.1461 -2.2472  0.4016
16642TIP3    H271342   2.466   1.368   1.475 -0.7934 -0.9046  0.2172
16643TIP3   OH271343   3.344   1.599   4.770 -0.2570  0.1744 -0.2821
16643TIP3    H171344   3.415   1.659   4.795 -1.3752  0.7415  1.6726
16643TIP3    H271345   3.328   1.619   4.678  0.5617  1.6565 -0.1309
16644TIP3   OH271346   6.218   3.370   2.415 -0.0277 -0.3934 -0.5870
16644TIP3    H171347   6.279   3.398   2.483 -1.0897 -1.0115  0.6592
16644TIP3    H271348   6.217   3.442   2.352  1.0399  0.1529 -0.0032
16645TIP3   OH271349   1.070   3.272   5.574  0.1608 -0.1086  0.0815
16645TIP3    H171350   1.026   3.197   5.534 -1.9993  1.3621 -0.5390
16645TIP3    H271351   1.163   3.254   5.565 -0.2851 -1.7795 -1.8281
16646TIP3   OH271352   3.600   2.352  11.968 -0.1175 -1.1989  0.2802
16646TIP3    H171353   3.684   2.398  11.970 -0.9144  0.4617 -1.4336
16646TIP3    H271354   3.556   2.380  12.048  0.2552 -0.6713  0.3078
16647TIP3   OH271355   4.017   3.011   2.378 -0.0878  0.0079  0.2957
16647TIP3    H171356   3.972   2.941   2.425 -0.2676  0.3052  0.5698
16647TIP3    H271357   4.106   2.978   2.364 -0.0172 -0.0630  0.8930
16648TIP3   OH271358   5.919   3.176  14.543  0.2447 -0.0066 -0.0564
16648TIP3    H171359   5.970   3.133  14.475 -0.2049 -0.5889 -0.0334
16648TIP3    H271360   5.981   3.192  14.615  0.2888 -1.1479  0.1713
16649TIP3   OH271361   6.213   1.938   0.600  0.1210  1.0403  0.0064
16649TIP3    H171362   6.183   1.865   0.655  1.3286  0.4098 -0.1366
16649TIP3    H271363   6.213   2.013   0.658 -1.2936  0.9734  0.1189
16650TIP3   OH271364   2.602   6.692   4.105 -0.6840 -0.5176  0.1003
16650TIP3    H171365   2.600   6.639   4.025  0.4538  1.5645 -1.4131
16650TIP3    H271366   2.538   6.762   4.089  0.3790  0.5731  0.5112
16651TIP3   OH271367   5.756   1.829   5.663 -0.6429 -0.4118 -0.0158
16651TIP3    H171368   5.688   1.883   5.625  0.4217  1.4647  0.5890
16651TIP3    H271369   5.816   1.811   5.591 -1.1228 -1.0207 -0.2716
16652TIP3   OH271370   0.255   1.297  11.376 -0.0874 -0.4235  0.4244
16652TIP3    H171371   0.310   1.311  11.453 -0.5479 -2.6154  1.2543
16652TIP3    H271372   0.303   1.233  11.324 -1.1201 -1.2450  0.4292
16653TIP3   OH271373   0.785   2.292  13.683 -0.8442 -0.3589 -0.0190
16653TIP3    H171374   0.787   2.211  13.633 -1.5809 -0.4145  0.0314
16653TIP3    H271375   0.734   2.271  13.761  1.2696 -0.6192  1.3891
16654TIP3   OH271376   4.245   5.699  16.048  0.2851 -0.1833 -0.3662
16654TIP3    H171377   4.273   5.657  15.966  0.1821 -1.5920  0.2854
16654TIP3    H271378   4.163   5.743  16.024  1.4335  1.4114 -1.5547
16655TIP3   OH271379   6.108   1.384  12.347  0.6537 -0.2594 -0.1454
16655TIP3    H171380   6.079   1.328  12.276 -2.1770  0.2963  0.4697
16655TIP3    H271381   6.079   1.339  12.427  1.0309  0.6091  0.4988
16656TIP3   OH271382   1.914   0.266   0.272 -0.3691  0.2311 -0.4295
16656TIP3    H171383   1.865   0.346   0.292  1.2483  0.7438  1.6843
16656TIP3    H271384   1.988   0.296   0.219  0.6303  0.2983  0.9513
16657TIP3   OH271385   6.442   5.940   3.505 -0.3026 -0.0369 -0.1796
16657TIP3    H171386   6.404   6.027   3.516 -0.6871  0.1119 -2.3234
16657TIP3    H271387   6.442   5.902   3.594  2.4459  3.1075  1.3809
16658TIP3   OH271388   4.950   2.412   1.807  0.5766  0.2234  0.5119
16658TIP3    H171389   4.983   2.363   1.732 -1.5068 -1.4423  0.5865
16658TIP3    H271390   4.996   2.375   1.882  0.4163 -0.2783  0.3633
16659TIP3   OH271391   5.205   5.082  13.723  0.0431  0.0278  0.5421
16659TIP3    H171392   5.117   5.075  13.761 -0.9714  1.9148 -1.2558
16659TIP3    H271393   5.191   5.071  13.629  2.0503 -1.5157  0.3610
16660TIP3   OH271394   6.672   0.402   4.042  0.1636  0.2714  0.5722
16660TIP3    H171395   6.633   0.457   4.111 -2.2751  0.3456 -0.7510
16660TIP3    H271396   6.746   0.452   4.010 -2.1885  3.1547 -0.8637
16661TIP3   OH271397   0.219   0.582  11.411 -0.7209 -0.2421 -0.1085
16661TIP3    H171398   0.224   0.497  11.455 -0.0445 -0.5637 -0.7832
16661TIP3    H271399   0.215   0.646  11.482 -1.5544 -0.8454  0.4064
16662TIP3   OH271400   4.811   3.816   0.547 -0.3377 -0.5672 -0.1290
16662TIP3    H171401   4.860   3.874   0.606 -1.8791  0.1394  0.5011
16662TIP3    H271402   4.763   3.875   0.490 -0.9602 -1.2327 -0.2985
16663TIP3   OH271403   1.142   1.213   5.903  0.0500  0.5628  0.1963
16663TIP3    H171404   1.187   1.264   5.970 -0.5179  0.3387  0.7527
16663TIP3    H271405   1.086   1.152   5.952 -0.6064  0.6119 -0.4814
16664TIP3   OH271406   4.471   0.298  12.492 -0.1819 -0.6220 -0.4120
16664TIP3    H171407   4.557   0.329  12.519 -0.3997  0.9602 -1.4035
16664TIP3    H271408   4.480   0.279  12.398 -0.4251 -2.3599 -0.1232
16665TIP3   OH271409   3.355   5.049  16.858 -0.0740 -0.0134  0.6227
16665TIP3    H171410   3.326   4.970  16.812  2.0558  0.0418 -0.9951
16665TIP3    H271411   3.328   5.121  16.801 -0.3941  0.3117  1.1768
16666TIP3   OH271412   3.146   6.628   6.055  0.2615  0.3316  0.5942
16666TIP3    H171413   3.136   6.689   5.982 -0.3405 -0.9568 -0.4429
16666TIP3    H271414   3.140   6.683   6.133 -0.5768  1.5514 -0.2899
16667TIP3   OH271415   5.370   3.477   1.428 -0.2148  0.0324 -0.2400
16667TIP3    H171416   5.463   3.494   1.441 -0.6622  1.9509  0.8436
16667TIP3    H271417   5.342   3.433   1.508 -0.3252 -0.2113 -0.4107
16668TIP3   OH271418   5.992   6.477  15.287 -0.8497  0.0018 -0.7150
16668TIP3    H171419   6.014   6.409  15.351  0.1696  0.9809  0.0057
16668TIP3    H271420   5.947   6.430  15.217  1.9063 -1.8669 -1.3706
16669TIP3   OH271421   0.356   4.061  15.463  0.1059 -0.3168 -0.0845
16669TIP3    H171422   0.348   4.056  15.558  0.0311 -3.2489 -0.1775
16669TIP3    H271423   0.420   3.994  15.440 -1.7036 -1.4417 -2.2653
16670TIP3   OH271424   4.437   0.328   2.780  0.4647 -0.1691 -0.0450
16670TIP3    H171425   4.435   0.423   2.795  0.2196  0.0048 -1.0984
16670TIP3    H271426   4.488   0.293   2.853  1.7219  0.9229 -0.3732
16671TIP3   OH271427   5.427   6.455   3.500 -0.6275  0.2737 -0.1865
16671TIP3    H171428   5.499   6.460   3.438 -0.3001  2.6225  0.2856
16671TIP3    H271429   5.468   6.442   3.586 -0.8372  0.4310 -0.0588
16672TIP3   OH271430   3.071   3.578  14.452  0.3810 -0.3891 -0.2675
16672TIP3    H171431   3.150   3.535  14.421  0.9866 -0.3989  1.1986
16672TIP3    H271432   3.000   3.521  14.422  1.1102 -1.9073  0.7533
16673TIP3   OH271433   2.757   1.922  12.591 -0.2579  0.4741  0.6917
16673TIP3    H171434   2.698   1.871  12.535 -0.2336 -1.9354  2.6791
16673TIP3    H271435   2.703   1.996  12.621 -1.1557  0.2216 -0.2487
16674TIP3   OH271436   1.183   3.456  11.285  0.5794 -0.1562 -0.0003
16674TIP3    H171437   1.144   3.474  11.200 -0.2601  0.1341  0.4379
16674TIP3    H271438   1.120   3.490  11.349  0.9276 -0.8681  0.7512
16675TIP3   OH271439   4.698   1.027   5.302  0.0267  0.4643  0.8528
16675TIP3    H171440   4.707   0.949   5.356  0.3885  0.3169  0.5824
16675TIP3    H271441   4.734   1.002   5.217  0.4225  1.0175  0.8520
16676TIP3   OH271442   2.471   3.720  14.988  0.1259 -0.6131 -0.1050
16676TIP3    H171443   2.483   3.625  14.982  0.4273 -0.5529 -0.5085
16676TIP3    H271444   2.377   3.733  14.980  0.0217 -0.9193  0.5668
16677TIP3   OH271445   4.761   2.124   4.934 -0.0388 -0.4906 -0.1861
16677TIP3    H171446   4.672   2.153   4.914  0.3309  1.3205  0.6049
16677TIP3    H271447   4.814   2.158   4.863  0.2574 -0.0530  0.2352
16678TIP3   OH271448   4.229   3.361  15.604 -0.7928 -0.8000  0.1357
16678TIP3    H171449   4.260   3.278  15.567 -1.2977  0.0725 -2.4706
16678TIP3    H271450   4.289   3.379  15.677  0.7350 -2.3557 -0.6664
16679TIP3   OH271451   5.055   1.352  15.507  0.1864 -0.2894  0.4286
16679TIP3    H171452   5.007   1.287  15.560  0.2395 -1.3672 -0.7967
16679TIP3    H271453   4.986   1.400  15.461  0.1851 -0.0572  0.6703
16680TIP3   OH271454   6.638   2.136   5.040  0.1062  0.4017  0.2858
16680TIP3    H171455   6.644   2.057   5.094  1.4644  0.0788 -0.2962
16680TIP3    H271456   6.575   2.191   5.087  0.2652 -0.3918  1.5101
16681TIP3   OH271457   1.527   1.357  11.655 -0.2639 -0.6360  0.1361
16681TIP3    H171458   1.566   1.270  11.665  0.0104 -0.7379 -1.5186
16681TIP3    H271459   1.484   1.374  11.739  1.8233 -1.2652  1.4116
16682TIP3   OH271460   1.404   5.972   3.111 -0.1510  0.1349 -0.2253
16682TIP3    H171461   1.491   5.993   3.078  0.4446  1.1555  1.8543
16682TIP3    H271462   1.364   5.920   3.041  1.8316  0.2727 -1.5379
16683TIP3   OH271463   2.044   2.663  12.969 -0.0573 -0.4724 -0.3520
16683TIP3    H171464   2.106   2.643  13.039  1.0757 -1.4287 -1.5667
16683TIP3    H271465   2.096   2.711  12.904 -0.9169 -0.1543 -0.8191
16684TIP3   OH271466   6.751   6.060  15.318 -0.1111 -0.3526  0.0739
16684TIP3    H171467   6.756   5.978  15.268 -0.4156  0.1059 -0.7265
16684TIP3    H271468   6.658   6.086  15.313 -0.0057  0.0771  0.2722
16685TIP3   OH271469   0.867   4.896   2.111 -0.1793 -0.1996  0.4743
16685TIP3    H171470   0.929   4.948   2.162  0.2664  0.0665 -0.3217
16685TIP3    H271471   0.830   4.958   2.048 -1.3870 -0.3138  1.0353
16686TIP3   OH271472   2.800   2.680  11.882 -0.2653 -0.8305 -0.7162
16686TIP3    H171473   2.728   2.628  11.844  0.2504 -1.7507 -0.4662
16686TIP3    H271474   2.828   2.738  11.811 -0.1490 -1.6420 -1.3513
16687TIP3   OH271475   1.101   2.867   6.578 -0.0860 -0.1440 -0.0939
16687TIP3    H171476   1.090   2.826   6.492  2.6278 -0.8812 -0.2053
16687TIP3    H271477   1.085   2.796   6.640  0.2096 -0.2223 -0.1040
16688TIP3   OH271478   4.960   0.752  15.685  0.4187 -0.2803 -0.3427
16688TIP3    H171479   4.913   0.719  15.762 -0.8918 -0.2984 -1.1296
16688TIP3    H271480   5.013   0.678  15.656  0.5849 -0.4108  0.2683
16689TIP3   OH271481   5.668   3.970   0.346 -0.5333  0.5655 -0.9234
16689TIP3    H171482   5.739   3.906   0.349 -0.9224  0.1060 -1.4091
16689TIP3    H271483   5.694   4.037   0.409  1.2519  1.3716 -2.4157
16690TIP3   OH271484   1.546   2.948  16.701  0.5340 -0.4619  0.4262
16690TIP3    H171485   1.640   2.964  16.697  0.4724 -0.2347 -0.3942
16690TIP3    H271486   1.506   3.034  16.685  0.1960 -0.6884  0.0011
16691TIP3   OH271487   6.500   6.063  10.925  0.1397 -0.2668 -0.1410
16691TIP3    H171488   6.556   6.008  10.980  1.2789 -0.0075 -0.9955
16691TIP3    H271489   6.501   6.020  10.839  0.0996  0.4429 -0.5094
16692TIP3   OH271490   3.861   6.733  13.081  0.6485  0.1130 -0.1686
16692TIP3    H171491   3.839   6.783  13.002  0.9972 -0.8196 -0.8702
16692TIP3    H271492   3.895   6.799  13.142  1.5152  0.6846 -1.2262
16693TIP3   OH271493   6.209   0.207   4.786 -0.2794  0.3156  0.4680
16693TIP3    H171494   6.219   0.127   4.735  0.3405  0.2603  0.6704
16693TIP3    H271495   6.135   0.189   4.844  0.2167 -0.3361  0.9222
16694TIP3   OH271496   5.215   2.670  10.367  0.3191  0.2367  0.6202
16694TIP3    H171497   5.253   2.643  10.283  1.3370  1.4776  0.6603
16694TIP3    H271498   5.227   2.595  10.424 -1.4966 -1.1195 -0.6394
16695TIP3   OH271499   4.282   3.273   6.459  0.6455 -0.4087 -0.4737
16695TIP3    H171500   4.255   3.339   6.523 -1.5248 -0.3609 -1.3587
16695TIP3    H271501   4.357   3.312   6.415  0.9335  0.4006  0.6947
16696TIP3   OH271502   4.965   2.683  12.249  0.8588 -0.3292 -0.0187
16696TIP3    H171503   5.004   2.685  12.336  1.1112  0.8835 -0.1504
16696TIP3    H271504   5.026   2.632  12.195  1.2927 -0.0678  0.2283
16697TIP3   OH271505   0.943   3.983  12.494 -0.3024  0.4378  0.3169
16697TIP3    H171506   0.850   3.973  12.516 -0.3411 -0.7428 -0.3298
16697TIP3    H271507   0.943   3.998  12.400  0.2545 -1.5368 -0.0398
16698TIP3   OH271508   0.125   3.296   2.084 -0.3672 -0.2754  0.1793
16698TIP3    H171509   0.158   3.211   2.055  0.6379  0.0396  0.3784
16698TIP3    H271510   0.039   3.303   2.042 -0.8273 -1.7310  0.7925
16699TIP3   OH271511   5.997   6.677  15.569  0.0782 -0.1380 -0.0729
16699TIP3    H171512   5.988   6.592  15.526 -0.4109  0.9278 -2.1801
16699TIP3    H271513   6.088   6.702  15.554  0.7690 -1.0564  2.1673
16700TIP3   OH271514   0.335   0.708   4.060  0.1741  0.3036 -0.5116
16700TIP3    H171515   0.416   0.737   4.018  1.7575 -2.1588  0.6115
16700TIP3    H271516   0.361   0.683   4.149 -1.8385 -0.4571 -0.0779
16701TIP3   OH271517   2.378   0.618  12.192  0.4005  0.5203  0.2579
16701TIP3    H171518   2.408   0.686  12.131  2.0026  0.0250  0.4530
16701TIP3    H271519   2.324   0.666  12.256 -1.1786  1.0761 -1.3839
16702TIP3   OH271520   5.267   5.940  14.072  0.3585 -0.4648 -0.4280
16702TIP3    H171521   5.340   5.895  14.114 -0.6908 -1.2292  0.6749
16702TIP3    H271522   5.258   5.897  13.987  0.9042 -0.6689 -0.3873
16703TIP3   OH271523   5.688   0.199  16.197  0.7846 -0.2449  0.2933
16703TIP3    H171524   5.667   0.283  16.155 -0.3501 -0.2998  0.6929
16703TIP3    H271525   5.703   0.139  16.124 -2.1004 -0.5790 -0.1770
16704TIP3   OH271526   5.605   1.098  15.395 -0.6632  0.1445 -0.1017
16704TIP3    H171527   5.540   1.028  15.397  1.1743 -1.6597 -0.1713
16704TIP3    H271528   5.654   1.088  15.476  0.0711  0.9297 -0.4296
16705TIP3   OH271529   0.346   1.991   2.611 -0.1486  0.6372 -0.0886
16705TIP3    H171530   0.328   1.917   2.670 -1.7223  1.0528 -0.0030
16705TIP3    H271531   0.326   2.068   2.663  3.0550  1.2779  0.3739
16706TIP3   OH271532   0.304   1.305  16.667 -0.1975  0.1234  0.1064
16706TIP3    H171533   0.348   1.369  16.611 -0.8820  1.1932  0.7268
16706TIP3    H271534   0.367   1.289  16.738 -0.7492  1.6928  1.0249
16707TIP3   OH271535   2.691   3.925   1.250  0.6524  0.2124  0.7538
16707TIP3    H171536   2.704   3.878   1.168  1.9262  1.2357  0.3167
16707TIP3    H271537   2.777   3.923   1.292  0.5633  1.5284  1.0409
16708TIP3   OH271538   1.209   3.225  13.375  0.0684  0.4028 -0.1369
16708TIP3    H171539   1.199   3.319  13.391 -1.0985  0.6697 -2.1273
16708TIP3    H271540   1.288   3.219  13.321  0.9550  0.0676  1.1664
16709TIP3   OH271541   1.406   5.377   5.456  0.1170 -0.0944  0.1843
16709TIP3    H171542   1.337   5.340   5.401  0.6878  1.8727 -2.0294
16709TIP3    H271543   1.437   5.303   5.508 -1.1145 -1.8905 -1.4833
16710TIP3   OH271544   3.400   0.818  13.819 -0.6087 -0.0267 -0.2174
16710TIP3    H171545   3.413   0.896  13.765 -1.9050 -0.5008 -1.2820
16710TIP3    H271546   3.480   0.766  13.808 -1.2424 -0.6076 -2.5987
16711TIP3   OH271547   4.767   6.661  11.833 -0.1364 -0.3128 -0.0002
16711TIP3    H171548   4.735   6.630  11.918 -0.5281  0.1214  0.0172
16711TIP3    H271549   4.806   6.584  11.792 -0.4811 -0.6622  0.3208
16712TIP3   OH271550   5.310   3.826   1.078 -0.1966  0.3250  0.1869
16712TIP3    H171551   5.405   3.831   1.090 -0.0925 -1.1007  0.1918
16712TIP3    H271552   5.280   3.774   1.153 -0.9263  0.3695 -0.0703
16713TIP3   OH271553   1.547   0.678  16.620  0.6025 -0.8438 -0.2726
16713TIP3    H171554   1.634   0.639  16.619  2.0547  2.0700  0.8269
16713TIP3    H271555   1.515   0.663  16.709  2.5348  2.8437  1.2677
16714TIP3   OH271556   2.194   3.889  13.989 -0.0695  0.3013  0.0788
16714TIP3    H171557   2.153   3.845  13.914  1.1481 -0.6892 -0.0481
16714TIP3    H271558   2.158   3.846  14.066  0.7070 -0.5643 -0.0310
16715TIP3   OH271559   4.008   6.017  14.287  0.0932  0.3044  0.2519
16715TIP3    H171560   4.030   5.938  14.336 -1.6544 -0.2940  0.1648
16715TIP3    H271561   3.940   6.060  14.339 -0.0082  0.9825 -0.4132
16716TIP3   OH271562   0.252   4.616  14.090 -0.2752  0.4373 -0.1438
16716TIP3    H171563   0.233   4.699  14.047 -0.1607  1.4514  1.6551
16716TIP3    H271564   0.215   4.550  14.032 -1.7461  1.8369 -0.8764
16717TIP3   OH271565   6.377   2.332   3.371 -0.2645  0.9726  0.1474
16717TIP3    H171566   6.335   2.328   3.285  0.3425 -0.9348 -0.0990
16717TIP3    H271567   6.446   2.398   3.361  1.1824 -0.6722 -1.5237
16718TIP3   OH271568   1.140   1.435   1.213  0.3674  0.1261 -0.0243
16718TIP3    H171569   1.223   1.389   1.219  0.5770  0.6054  1.0460
16718TIP3    H271570   1.110   1.441   1.304 -1.1386 -0.5877 -0.4453
16719TIP3   OH271571   1.536   0.444  15.616 -0.0161  0.0108 -0.3211
16719TIP3    H171572   1.594   0.453  15.691 -0.8753  1.0492  0.2534
16719TIP3    H271573   1.582   0.487  15.544  0.8530 -1.0710 -0.4348
16720TIP3   OH271574   5.737   1.628   4.472 -0.1103  0.4983  0.2126
16720TIP3    H171575   5.719   1.706   4.525  2.6367 -0.0214  2.1339
16720TIP3    H271576   5.826   1.642   4.439 -0.4027 -0.8634 -1.2407
16721TIP3   OH271577   1.978   3.264  13.596 -0.0705  0.2466 -0.1638
16721TIP3    H171578   2.058   3.243  13.546  0.4126 -0.3055  0.8180
16721TIP3    H271579   1.908   3.261  13.531  0.7347  0.9684 -1.0918
16722TIP3   OH271580   4.109   5.260  14.017  0.1249 -0.0651 -0.4891
16722TIP3    H171581   4.190   5.309  14.027 -0.9189  1.5263  0.7249
16722TIP3    H271582   4.091   5.261  13.923  0.8285  0.7433 -0.6233
16723TIP3   OH271583   1.401   0.825  12.274  0.0595  0.1118 -0.2579
16723TIP3    H171584   1.396   0.891  12.204  0.6298 -0.2848 -0.6863
16723TIP3    H271585   1.314   0.824  12.313 -0.1622  0.5977 -0.7290
16724TIP3   OH271586   2.243   2.593   2.082  0.1339  0.0462 -0.5879
16724TIP3    H171587   2.278   2.504   2.080  1.9032  0.6989 -1.1597
16724TIP3    H271588   2.312   2.645   2.124 -1.1364  1.0545  0.3343
16725TIP3   OH271589   5.350   3.718  13.933 -0.4165 -0.0210  0.0339
16725TIP3    H171590   5.367   3.789  13.995 -0.8941  1.4063 -1.3902
16725TIP3    H271591   5.427   3.662  13.939  0.2968  0.9914  0.7396
16726TIP3   OH271592   3.976   2.942   3.290  0.1847  0.0029 -0.2060
16726TIP3    H171593   3.998   2.866   3.344  1.2135 -0.7168 -1.5643
16726TIP3    H271594   4.022   3.015   3.332  2.4349 -0.8612 -1.0266
16727TIP3   OH271595   0.017   2.192  11.743  0.0511 -0.1102  0.2215
16727TIP3    H171596   0.022   2.180  11.648 -2.3186  2.6165 -0.3906
16727TIP3    H271597   0.107   2.212  11.769  0.9188 -1.7767 -1.2264
16728TIP3   OH271598   3.617   3.429  12.865  0.0285 -0.0651  0.3134
16728TIP3    H171599   3.626   3.334  12.870  1.1980 -0.1246 -1.6930
16728TIP3    H271600   3.527   3.446  12.893 -0.5383 -1.8685 -0.2589
16729TIP3   OH271601   4.880   6.544   3.700  0.1798 -0.2038  0.3241
16729TIP3    H171602   4.967   6.565   3.735  0.1467 -0.2316  0.4226
16729TIP3    H271603   4.850   6.470   3.754  1.4631 -2.3979 -1.7642
16730TIP3   OH271604   1.932   0.943   5.609 -0.0933  0.4597  0.4043
16730TIP3    H171605   1.912   0.866   5.556  1.6385  1.3518 -1.6822
16730TIP3    H271606   1.937   0.909   5.699 -0.3418 -1.6548 -0.3196
16731TIP3   OH271607   3.813   3.406  14.949 -0.1828 -0.2194  0.3864
16731TIP3    H171608   3.877   3.452  15.003 -0.3989  0.8869 -0.2579
16731TIP3    H271609   3.831   3.313  14.964  2.0989  0.0385 -0.3838
16732TIP3   OH271610   4.710   3.235  12.809 -0.5839  0.1056 -0.5131
16732TIP3    H171611   4.668   3.175  12.748 -0.5420 -0.8606  0.3701
16732TIP3    H271612   4.762   3.178  12.867 -0.1161  1.0412  0.0154
16733TIP3   OH271613   6.499   4.407   0.891 -0.5461  0.4768 -0.3421
16733TIP3    H171614   6.482   4.313   0.889 -0.5477  0.4899 -1.1488
16733TIP3    H271615   6.592   4.416   0.869 -0.8689  0.7385 -1.6440
16734TIP3   OH271616   0.451   4.682  11.474  0.2477  0.2393  0.1530
16734TIP3    H171617   0.515   4.617  11.501 -0.9476 -0.6580  0.8943
16734TIP3    H271618   0.380   4.674  11.537 -0.7126  1.0508 -0.7898
16735TIP3   OH271619   6.030   4.292   6.011  0.0598  0.1434  0.4948
16735TIP3    H171620   6.122   4.302   5.984  0.5141 -0.0108  1.8912
16735TIP3    H271621   6.029   4.321   6.102 -1.4993  1.1118  0.2034
16736TIP3   OH271622   2.171   1.938   3.126 -0.7628 -0.4736 -0.4732
16736TIP3    H171623   2.085   1.899   3.112 -0.8359 -0.3848 -0.2846
16736TIP3    H271624   2.195   1.911   3.215  0.0162 -1.6541 -1.0057
16737TIP3   OH271625   5.741   2.820  15.915  0.7749 -0.5401  0.2442
16737TIP3    H171626   5.709   2.836  15.826  0.9906  0.1065  0.2784
16737TIP3    H271627   5.703   2.891  15.967 -0.2671 -1.5288  0.9017
16738TIP3   OH271628   4.784   1.160  16.011  0.1210  0.2090 -0.0684
16738TIP3    H171629   4.753   1.239  15.967 -1.4701 -0.2531  0.1733
16738TIP3    H271630   4.705   1.110  16.029  1.1266 -1.8441 -0.9722
16739TIP3   OH271631   4.816   3.019   0.809  0.4671  0.2768 -0.0421
16739TIP3    H171632   4.906   3.041   0.832  0.2032  0.8381  0.4776
16739TIP3    H271633   4.797   2.940   0.859  0.3032  0.8024  0.7424
16740TIP3   OH271634   1.343   3.208   1.602  0.0087  0.2071  0.2113
16740TIP3    H171635   1.335   3.154   1.523  1.6054 -1.6649  1.2429
16740TIP3    H271636   1.255   3.211   1.638 -0.4290 -0.2795 -0.7772
16741TIP3   OH271637   2.457   6.222  15.840  0.3647  0.2110 -0.1443
16741TIP3    H171638   2.450   6.273  15.760  0.3160  0.8429  0.2594
16741TIP3    H271639   2.495   6.139  15.812  0.5784  0.5192 -0.7806
16742TIP3   OH271640   5.504   3.941   2.649  0.9356  0.1314  0.3117
16742TIP3    H171641   5.555   3.993   2.711 -0.7196  1.1543  0.8752
16742TIP3    H271642   5.418   3.933   2.690  0.3492 -0.7339 -1.0342
16743TIP3   OH271643   0.308   0.519  13.412 -0.0015 -0.1747  0.6136
16743TIP3    H171644   0.289   0.613  13.423  1.2330  0.2342 -0.4831
16743TIP3    H271645   0.238   0.488  13.354 -0.3709  0.0823  0.9153
16744TIP3   OH271646   6.245   1.358   1.830  0.3860 -0.8578 -0.2194
16744TIP3    H171647   6.201   1.274   1.817  1.6901 -1.5213 -0.4607
16744TIP3    H271648   6.175   1.423   1.819 -0.6403 -1.8942 -0.0360
16745TIP3   OH271649   5.234   6.345   1.475 -0.6069  0.5295 -0.0018
16745TIP3    H171650   5.162   6.342   1.539 -0.8641 -2.3247 -0.3061
16745TIP3    H271651   5.209   6.281   1.409  1.1964  1.1170 -1.3136
16746TIP3   OH271652   1.482   3.429  16.651  0.3749  0.3092 -0.2178
16746TIP3    H171653   1.560   3.394  16.694 -0.1123 -0.6325 -0.0890
16746TIP3    H271654   1.435   3.475  16.721 -0.4130 -1.2130  0.2981
16747TIP3   OH271655   1.642   5.276   1.137 -0.0129 -0.0099 -0.2924
16747TIP3    H171656   1.673   5.347   1.081  0.3018  0.4889  0.4965
16747TIP3    H271657   1.647   5.312   1.225 -3.7725  0.4609 -0.1212
16748TIP3   OH271658   5.738   3.079   1.319 -0.5201  0.2759 -0.0010
16748TIP3    H171659   5.798   3.151   1.339 -1.0582  0.5886  0.5057
16748TIP3    H271660   5.761   3.053   1.229 -0.0151  0.7704 -0.0205
16749TIP3   OH271661   1.482   3.641   2.762 -0.6358  0.5503 -0.2488
16749TIP3    H171662   1.415   3.585   2.801  0.1193 -0.8250 -0.8422
16749TIP3    H271663   1.518   3.589   2.690  2.2253  0.5203  1.0544
16750TIP3   OH271664   3.372   0.924  15.705 -0.2029 -0.1714 -0.2866
16750TIP3    H171665   3.462   0.904  15.731 -0.2628 -0.2691 -0.1565
16750TIP3    H271666   3.371   0.905  15.611 -0.0560 -0.0600 -0.3115
16751TIP3   OH271667   3.453   0.662  11.321 -0.3734  0.0313  0.2335
16751TIP3    H171668   3.543   0.655  11.288 -0.0118 -2.1979  1.4955
16751TIP3    H271669   3.403   0.601  11.267 -0.9572  0.6207  0.1026
16752TIP3   OH271670   3.842   6.130   4.662  0.4398 -0.0411 -0.2032
16752TIP3    H171671   3.896   6.083   4.727 -0.0617  0.4675  0.5905
16752TIP3    H271672   3.906   6.163   4.598  1.2217  1.3855  1.2325
16753TIP3   OH271673   1.785   5.686  14.234 -0.3028 -0.1729  0.0264
16753TIP3    H171674   1.780   5.643  14.319 -2.1257 -1.1997 -0.5612
16753TIP3    H271675   1.778   5.779  14.254 -0.7931 -0.4060  0.9923
16754TIP3   OH271676   1.488   2.686   5.325 -0.0878  0.2104 -0.4526
16754TIP3    H171677   1.531   2.673   5.409  1.6241 -2.9064 -1.6599
16754TIP3    H271678   1.559   2.689   5.261 -1.3670  2.0885 -1.9091
16755TIP3   OH271679   6.111   4.344   3.985  0.6201  0.4827 -0.4796
16755TIP3    H171680   6.185   4.403   3.974  0.5580  0.2107 -2.9645
16755TIP3    H271681   6.151   4.259   4.004  0.8245  0.8137  0.5869
16756TIP3   OH271682   2.208   2.974  16.341 -0.3359  0.2318 -0.1269
16756TIP3    H171683   2.205   2.887  16.301  0.2806  0.4299 -0.6193
16756TIP3    H271684   2.182   3.034  16.272  3.0219  0.8194 -1.0432
16757TIP3   OH271685   6.503   4.587   5.798 -0.1570 -0.4351  0.4435
16757TIP3    H171686   6.415   4.558   5.774  0.5041 -0.3123 -2.5672
16757TIP3    H271687   6.546   4.507   5.829 -0.4408 -1.2540 -1.1039
16758TIP3   OH271688   6.736   1.028  11.129 -0.0699  0.0005  0.9342
16758TIP3    H171689   6.806   0.971  11.099  0.8532  1.3498  0.4535
16758TIP3    H271690   6.779   1.091  11.187 -0.6293  1.6465 -0.3868
16759TIP3   OH271691   4.522   5.836   1.048  0.4161  0.3861 -0.0253
16759TIP3    H171692   4.477   5.806   0.969  0.3412 -1.2305  0.5865
16759TIP3    H271693   4.608   5.866   1.018  0.3974 -0.2423 -0.7280
16760TIP3   OH271694   4.386   6.757  16.943  0.0850 -0.1261  0.1098
16760TIP3    H171695   4.313   6.817  16.957  1.5422  1.5341  1.0727
16760TIP3    H271696   4.454   6.788  17.003  1.8460 -1.1415 -1.2541
16761TIP3   OH271697   1.614   4.351   2.520 -0.9224  0.3184  1.1264
16761TIP3    H171698   1.574   4.265   2.531  0.3815 -0.1009  2.9342
16761TIP3    H271699   1.700   4.344   2.561  0.8557  1.3674 -2.0520
16762TIP3   OH271700   3.043   0.323   2.504 -0.3236 -0.4119 -0.0749
16762TIP3    H171701   3.101   0.306   2.430 -0.6295  1.8171 -0.9251
16762TIP3    H271702   3.028   0.237   2.543  0.8418 -1.4991 -1.8437
16763TIP3   OH271703   5.043   0.220  10.348  0.0432  0.0099 -0.2400
16763TIP3    H171704   4.992   0.144  10.377  0.0493  0.0679 -0.0771
16763TIP3    H271705   5.006   0.294  10.396 -0.6100  0.2688 -1.1348
16764TIP3   OH271706   5.108   3.736   1.540 -0.2555  0.5088  0.1527
16764TIP3    H171707   5.032   3.755   1.485  0.5463  0.4547 -1.0070
16764TIP3    H271708   5.073   3.680   1.609 -1.5909  1.8213  0.5963
16765TIP3   OH271709   0.011   2.127  13.269  0.2918  0.4587  0.3639
16765TIP3    H171710  -0.055   2.129  13.200 -0.8382 -0.4862  1.3633
16765TIP3    H271711  -0.019   2.191  13.333  0.6216  0.3839  0.5945
16766TIP3   OH271712   5.183   5.715  12.403 -0.2052  0.7035  0.0452
16766TIP3    H171713   5.111   5.652  12.399 -1.1007  1.6627  0.4784
16766TIP3    H271714   5.151   5.791  12.356  1.7588  0.0587 -2.5353
16767TIP3   OH271715   6.156   3.598   0.536  0.4837  0.1344 -0.2236
16767TIP3    H171716   6.214   3.665   0.572 -1.0513  1.3153  0.1635
16767TIP3    H271717   6.174   3.598   0.442  1.4646  0.1003 -0.0469
16768TIP3   OH271718   1.930   1.700   5.171  0.5328 -0.4449  0.1076
16768TIP3    H171719   1.862   1.767   5.171  1.9282  1.0625  1.1867
16768TIP3    H271720   1.982   1.718   5.093  1.8279  0.7931  1.1977
16769TIP3   OH271721   2.825   1.380   3.125 -0.0077 -0.9181  0.5542
16769TIP3    H171722   2.738   1.343   3.108 -0.3077  0.2803 -0.7019
16769TIP3    H271723   2.838   1.443   3.054  1.5876 -0.5493  1.1438
16770TIP3   OH271724   6.605   6.661   4.490 -0.4576  0.0790 -0.9503
16770TIP3    H171725   6.678   6.609   4.523 -1.1800 -0.2928  0.1337
16770TIP3    H271726   6.528   6.623   4.532 -1.3434  0.1580 -2.4268
16771TIP3   OH271727   2.491   2.821  14.232  0.0318 -0.0711  0.1106
16771TIP3    H171728   2.431   2.758  14.272  0.1778  1.6014  3.3714
16771TIP3    H271729   2.578   2.790  14.255  0.2960 -0.6046 -1.5211
16772TIP3   OH271730   2.187   0.010  13.154 -0.1117  0.4733 -0.1423
16772TIP3    H171731   2.194  -0.037  13.072 -0.0201 -1.9777  1.1759
16772TIP3    H271732   2.264  -0.017  13.204 -0.5997  1.2408  1.0746
16773TIP3   OH271733   4.145   1.849   2.110 -0.0703 -0.2013  0.0152
16773TIP3    H171734   4.232   1.824   2.140  0.3276 -0.1072 -1.0271
16773TIP3    H271735   4.144   1.945   2.113 -1.4954 -0.1770  3.7243
16774TIP3   OH271736   3.104   5.964  14.800 -0.5100 -0.3394 -0.0951
16774TIP3    H171737   3.178   5.915  14.765  0.2918  1.7143 -1.4433
16774TIP3    H271738   3.108   6.049  14.757 -3.9577 -0.2679 -0.5994
16775TIP3   OH271739   5.574   6.028  13.829  0.4894  0.3369 -0.2160
16775TIP3    H171740   5.509   5.990  13.770 -0.2771  2.5756 -0.9580
16775TIP3    H271741   5.544   6.005  13.917 -0.5239  0.1558 -0.6022
16776TIP3   OH271742   5.593   3.043   1.639 -0.0369  0.2657 -0.1250
16776TIP3    H171743   5.681   3.081   1.634 -0.0331  0.3197  0.3527
16776TIP3    H271744   5.571   3.022   1.548  0.6596 -0.1766 -0.1974
16777TIP3   OH271745   5.974   2.425  14.028 -0.0383 -0.5577 -0.1531
16777TIP3    H171746   5.967   2.483  14.104  2.3578 -0.2927 -0.0619
16777TIP3    H271747   5.914   2.462  13.964  0.8372  1.6177  0.1848
16778TIP3   OH271748   4.254   4.274   6.303 -0.0786 -0.3194 -0.5710
16778TIP3    H171749   4.204   4.213   6.249 -0.4502 -3.3441  2.7815
16778TIP3    H271750   4.199   4.288   6.380  2.8079 -1.2508  1.8353
16779TIP3   OH271751   0.370   0.298  12.064  0.1094  0.0417  0.0154
16779TIP3    H171752   0.431   0.346  12.119  1.2037 -2.5442  1.2010
16779TIP3    H271753   0.289   0.293  12.115 -0.2173  1.0353 -0.3664
16780TIP3   OH271754   5.092   1.955   1.248  0.0493 -0.2521  0.3914
16780TIP3    H171755   5.028   1.892   1.217  0.1424 -0.0544 -0.2098
16780TIP3    H271756   5.176   1.912   1.237  0.0224 -0.5490  1.2711
16781TIP3   OH271757   0.105   4.976  12.864 -0.2704 -0.1508  0.4001
16781TIP3    H171758   0.034   5.030  12.898 -0.2876 -2.0265  3.7421
16781TIP3    H271759   0.182   5.004  12.913  0.9053  0.3016 -1.5633
16782TIP3   OH271760   5.669   5.592  15.629  0.0215  0.2278 -0.2197
16782TIP3    H171761   5.584   5.615  15.665 -0.3196  0.6357 -1.2421
16782TIP3    H271762   5.732   5.624  15.694 -0.6035 -0.7320  0.8929
16783TIP3   OH271763   6.652   3.749  16.760 -0.3862  0.3844  0.0306
16783TIP3    H171764   6.604   3.708  16.688 -1.3410  1.9205 -0.2429
16783TIP3    H271765   6.738   3.770  16.723 -0.9411  1.3427 -0.7348
16784TIP3   OH271766   2.250   5.286  14.328 -0.3357 -0.0946  0.0912
16784TIP3    H171767   2.255   5.226  14.253  0.0145 -0.2771  0.2603
16784TIP3    H271768   2.170   5.337  14.312 -0.1747 -0.0122 -0.4966
16785TIP3   OH271769   0.064   5.439  16.912  0.5717 -0.1478 -1.0659
16785TIP3    H171770   0.026   5.522  16.941  1.9198  0.3286 -0.5874
16785TIP3    H271771   0.115   5.409  16.987  1.1415 -0.7543 -1.6895
16786TIP3   OH271772   5.744   5.636  14.698  0.0282 -0.1091 -0.5711
16786TIP3    H171773   5.776   5.591  14.620 -0.2548 -1.5338  0.1142
16786TIP3    H271774   5.758   5.574  14.770 -1.3519  0.4753  0.2422
16787TIP3   OH271775   5.804   2.520  11.878  0.1915  0.0227 -0.0200
16787TIP3    H171776   5.895   2.497  11.861 -0.7255 -1.7711 -3.5153
16787TIP3    H271777   5.779   2.575  11.804 -1.9372 -0.7863  0.0269
16788TIP3   OH271778   6.000   3.193  15.534  0.7059  0.8458 -0.1600
16788TIP3    H171779   6.022   3.284  15.554  1.2983  0.7987 -0.5516
16788TIP3    H271780   6.058   3.170  15.461  0.9285 -0.0088  0.2772
16789TIP3   OH271781   5.421   2.606  11.659 -0.6245  0.3015 -0.2374
16789TIP3    H171782   5.506   2.630  11.623 -0.0362  0.1738  1.0095
16789TIP3    H271783   5.437   2.592  11.752 -2.0107  0.2465  0.0232
16790TIP3   OH271784   2.533   0.646   3.592  0.7127  0.0779  0.3100
16790TIP3    H171785   2.535   0.725   3.538 -0.5626  0.1656  0.3517
16790TIP3    H271786   2.483   0.671   3.669  3.3992  0.2616  2.1126
16791TIP3   OH271787   4.904   4.702  12.062  0.1433 -0.3544 -0.2583
16791TIP3    H171788   4.961   4.675  11.989  1.4568 -1.6733  1.1719
16791TIP3    H271789   4.854   4.623  12.084 -1.2661  0.4085 -0.5738
16792TIP3   OH271790   6.482   5.801   5.595  0.1419  0.2021  0.3717
16792TIP3    H171791   6.559   5.785   5.541  1.2362  2.6508  1.0785
16792TIP3    H271792   6.498   5.885   5.636 -3.1255  1.0620  0.1999
16793TIP3   OH271793   2.158   0.962  14.528 -0.0600  0.2756  0.2706
16793TIP3    H171794   2.177   0.947  14.435 -0.5840  0.3582  0.1488
16793TIP3    H271795   2.239   0.937  14.573  0.9613  2.2273 -0.3793
16794TIP3   OH271796   4.469   4.687   0.935 -0.1175  0.3229 -0.2941
16794TIP3    H171797   4.526   4.762   0.954  1.1142  0.3579 -3.4204
16794TIP3    H271798   4.519   4.635   0.871 -2.1031 -1.6891 -0.3360
16795TIP3   OH271799   2.553   0.372   5.475 -0.2188  0.5043  0.4693
16795TIP3    H171800   2.597   0.455   5.491 -0.7944  0.6264  1.4772
16795TIP3    H271801   2.562   0.323   5.556 -0.0076 -0.3712 -0.0678
16796TIP3   OH271802   4.351   2.822   0.420  0.1967  0.3877 -0.7528
16796TIP3    H171803   4.440   2.843   0.449  0.3764  0.9837 -1.6873
16796TIP3    H271804   4.321   2.756   0.482  1.0558  0.6418 -0.0400
16797TIP3   OH271805   5.803   4.671  16.210  0.2331 -0.4702  0.0330
16797TIP3    H171806   5.850   4.600  16.253 -0.3291 -0.4103  0.7623
16797TIP3    H271807   5.872   4.728  16.175  0.6903 -0.9070  0.2120
16798TIP3   OH271808   1.195   5.946  10.561 -0.5277 -0.1408 -0.0534
16798TIP3    H171809   1.274   5.901  10.530 -0.1159  0.7068 -0.2552
16798TIP3    H271810   1.193   5.927  10.655  1.2265  1.7018  0.4334
16799TIP3   OH271811   0.912   1.606  13.541 -0.4299  0.4626 -0.2122
16799TIP3    H171812   0.939   1.693  13.511  0.2554 -0.2627 -1.8394
16799TIP3    H271813   0.991   1.567  13.576 -0.3350 -0.1182 -1.0600
16800TIP3   OH271814   2.974   6.004  15.288 -0.0220  0.1391  0.3812
16800TIP3    H171815   2.945   5.943  15.356 -0.8304  1.6031  1.3955
16800TIP3    H271816   2.922   5.981  15.212 -1.1300  0.2734  1.0759
16801TIP3   OH271817   0.560   2.510   5.491 -0.3182 -0.1046  0.5044
16801TIP3    H171818   0.620   2.542   5.557  0.2500 -0.3439  0.1156
16801TIP3    H271819   0.478   2.557   5.507 -0.0006  0.2891  0.9834
16802TIP3   OH271820   0.942   0.700  13.094 -0.2244  0.0884 -0.2024
16802TIP3    H171821   0.985   0.712  13.010 -0.7120 -0.7169 -0.5771
16802TIP3    H271822   0.856   0.662  13.073 -0.3881 -0.0487  0.6421
16803TIP3   OH271823   3.672   1.887   0.403 -0.4340 -0.1643  0.7216
16803TIP3    H171824   3.603   1.903   0.467 -0.5635 -2.2272  1.1754
16803TIP3    H271825   3.748   1.863   0.456  0.2731  0.8556  0.1829
16804TIP3   OH271826   1.685   4.584  10.749 -0.5471 -0.3205 -0.1082
16804TIP3    H171827   1.687   4.491  10.771  0.1812  0.0620  1.5882
16804TIP3    H271828   1.639   4.625  10.822  0.6363  0.8420  0.0212
16805TIP3   OH271829   2.396   1.815  14.818  0.1365 -0.3518  0.2081
16805TIP3    H171830   2.484   1.828  14.784  0.1037 -0.2262  0.1698
16805TIP3    H271831   2.340   1.813  14.741  0.1539 -0.8397  0.2044
16806TIP3   OH271832   2.543   5.078   1.118  0.5140 -0.0738  0.5570
16806TIP3    H171833   2.508   5.004   1.168  1.1446  0.3086  1.5798
16806TIP3    H271834   2.638   5.073   1.130  0.5978  0.6326  0.2428
16807TIP3   OH271835   0.320   3.691  11.898  0.1588 -0.3346  0.2849
16807TIP3    H171836   0.365   3.610  11.924 -0.8628 -0.5644  1.4339
16807TIP3    H271837   0.289   3.674  11.810  1.1101 -0.6835  0.0006
16808TIP3   OH271838   3.340   3.191   2.885 -0.0836  0.0176  0.1042
16808TIP3    H171839   3.386   3.150   2.957 -0.9709 -1.1077  0.0516
16808TIP3    H271840   3.248   3.188   2.910 -0.4573 -0.8479 -1.2715
16809TIP3   OH271841   6.579   5.932  14.031  0.5084 -0.7398  0.9733
16809TIP3    H171842   6.631   5.870  13.980  0.1937 -0.6375  0.5311
16809TIP3    H271843   6.640   6.002  14.052  0.1294  0.2461 -1.0331
16810TIP3   OH271844   4.506   0.967   2.738  0.1448  0.2070  0.8741
16810TIP3    H171845   4.437   0.914   2.778 -0.1045  0.2650  0.5277
16810TIP3    H271846   4.522   0.925   2.653  0.5288  0.2013  0.9480
16811TIP3   OH271847   3.294   5.107   3.345  0.5513  0.1051  0.2568
16811TIP3    H171848   3.357   5.166   3.387 -1.0336  0.4688  2.2706
16811TIP3    H271849   3.209   5.149   3.359 -0.2539 -0.7225 -1.7587
16812TIP3   OH271850   1.916   4.712   1.622  0.0195 -0.4900  0.6188
16812TIP3    H171851   1.998   4.748   1.588 -1.3373  0.5657 -1.7849
16812TIP3    H271852   1.940   4.624   1.653  1.9760 -0.3922 -0.4381
16813TIP3   OH271853   5.356   0.357  13.834 -0.3502  0.2237 -0.1091
16813TIP3    H171854   5.399   0.331  13.916 -0.2183  0.9731  0.0715
16813TIP3    H271855   5.413   0.426  13.798 -1.4474  1.3322  0.1999
16814TIP3   OH271856   3.453   3.460  14.635  0.3435 -0.3257 -0.1666
16814TIP3    H171857   3.529   3.510  14.666  0.6732 -0.5819 -0.5506
16814TIP3    H271858   3.444   3.389  14.698  1.0256 -0.8582 -0.6572
16815TIP3   OH271859   4.947   1.547  12.465  0.1744 -0.0415  0.0333
16815TIP3    H171860   4.863   1.504  12.480 -1.6976  2.6906 -1.5013
16815TIP3    H271861   4.986   1.499  12.392  1.0890 -2.6693  2.1265
16816TIP3   OH271862   3.169   2.058   6.402 -0.2826  0.1521  0.1982
16816TIP3    H171863   3.253   2.041   6.446 -0.6245 -1.0373  0.4095
16816TIP3    H271864   3.193   2.070   6.310  0.0865 -0.5839  0.1905
16817TIP3   OH271865   4.992   2.527   6.426 -0.3861  0.2741 -0.0950
16817TIP3    H171866   5.055   2.575   6.479 -0.3818  0.8674 -0.6236
16817TIP3    H271867   4.914   2.518   6.482  0.2805 -0.7825  0.6929
16818TIP3   OH271868   2.341   5.167  14.092 -0.0650  0.7359  0.5215
16818TIP3    H171869   2.271   5.204  14.038  0.6061  0.3811 -0.6340
16818TIP3    H271870   2.416   5.160  14.032  0.4660 -0.4410  1.2835
16819TIP3   OH271871   3.332   2.206   1.664  0.0233  0.1174 -0.2525
16819TIP3    H171872   3.317   2.219   1.570  1.4891 -0.1545 -0.5472
16819TIP3    H271873   3.375   2.121   1.670  2.2962  1.2329  0.3853
16820TIP3   OH271874   5.063   3.590  16.296  0.1183  0.1869  0.1712
16820TIP3    H171875   5.053   3.657  16.363 -1.0653  0.2779 -0.0711
16820TIP3    H271876   5.001   3.615  16.228  0.4030 -0.5968 -0.3882
16821TIP3   OH271877   1.482   0.922  16.528 -0.3239 -0.4025 -0.5160
16821TIP3    H171878   1.406   0.892  16.478  1.3394 -2.9237 -1.7971
16821TIP3    H271879   1.517   0.842  16.567  0.2463  1.0655  2.1939
16822TIP3   OH271880   4.531   0.089  15.343  0.1857 -0.1037  1.0652
16822TIP3    H171881   4.539   0.030  15.269  3.0755  1.6688 -0.1851
16822TIP3    H271882   4.476   0.041  15.405 -1.2279 -2.2277 -1.5963
16823TIP3   OH271883   3.760   2.088   1.815  0.0419 -0.0643  0.1875
16823TIP3    H171884   3.733   2.173   1.779 -1.2749 -0.7764 -0.6292
16823TIP3    H271885   3.838   2.064   1.765  0.4865  0.6992  0.5014
16824TIP3   OH271886   1.593   6.341   2.553 -0.0064 -0.5680  0.3489
16824TIP3    H171887   1.561   6.431   2.545  1.7176  0.1119  0.7181
16824TIP3    H271888   1.516   6.287   2.536 -0.7489  0.9370 -1.4714
16825TIP3   OH271889   4.962   0.539  16.415 -0.6621 -0.1043  0.2573
16825TIP3    H171890   4.914   0.601  16.361  1.4751  0.6507 -0.9156
16825TIP3    H271891   4.895   0.482  16.453 -2.3803  0.1376 -2.1797
16826TIP3   OH271892   3.258   4.786  16.332  0.2276 -0.1447  0.0234
16826TIP3    H171893   3.168   4.752  16.329  0.2036 -0.0724 -0.1049
16826TIP3    H271894   3.263   4.834  16.414  0.3927 -0.8247  0.4163
16827TIP3   OH271895   2.198   4.182   5.361 -0.3832 -0.6549 -0.1784
16827TIP3    H171896   2.231   4.215   5.445  1.1697 -1.4704 -0.4203
16827TIP3    H271897   2.180   4.260   5.309  1.3828 -0.1255 -0.0706
16828TIP3   OH271898   2.302   4.875  14.098  0.5870  0.2766  0.1147
16828TIP3    H171899   2.351   4.956  14.086  0.3055  0.6079  1.1289
16828TIP3    H271900   2.230   4.880  14.034 -0.3083  1.5336  1.1740
16829TIP3   OH271901   2.374   2.128   4.207  0.1777  0.4676  0.4894
16829TIP3    H171902   2.292   2.177   4.204  1.1530  2.1200 -1.3724
16829TIP3    H271903   2.426   2.171   4.275  0.2747  0.7635  0.2311
16830TIP3   OH271904   4.253   1.449  13.065  0.1162 -0.1425 -0.3783
16830TIP3    H171905   4.289   1.380  13.009  1.0097 -1.2133  1.3933
16830TIP3    H271906   4.212   1.511  13.005  0.0066 -1.8009 -2.0978
16831TIP3   OH271907   4.846   6.616   3.231  0.8444  0.2541 -0.0225
16831TIP3    H171908   4.810   6.584   3.314  0.9187  1.2043  0.3902
16831TIP3    H271909   4.933   6.648   3.253  0.5094  1.3767 -0.2678
16832TIP3   OH271910   1.483   0.327  16.012 -0.6030 -0.0854  0.2783
16832TIP3    H171911   1.424   0.255  15.988 -1.3309  0.9103 -1.1199
16832TIP3    H271912   1.569   0.300  15.980 -0.7515 -0.5988  0.3142
16833TIP3   OH271913   6.344   1.685   5.152 -0.0908  0.0615  0.5632
16833TIP3    H171914   6.379   1.728   5.074 -1.8260  0.6770  0.0955
16833TIP3    H271915   6.409   1.617   5.172  1.4299  1.2399 -0.1620
16834TIP3   OH271916   6.029   2.192  12.244 -0.1956  0.2223  0.4759
16834TIP3    H171917   5.943   2.208  12.284 -0.3302  0.5756  0.0497
16834TIP3    H271918   6.067   2.122  12.298 -1.4087 -1.0902 -0.2785
16835TIP3   OH271919   1.474   4.812   2.106  0.6355  0.2838 -0.1630
16835TIP3    H171920   1.533   4.745   2.073  0.3490  0.2549 -0.6201
16835TIP3    H271921   1.389   4.790   2.068  0.7829  1.6256 -1.3507
16836TIP3   OH271922   0.697   1.348   0.720  0.5080  0.4731  0.4644
16836TIP3    H171923   0.719   1.440   0.735 -2.2151  1.0625  1.3291
16836TIP3    H271924   0.759   1.300   0.775  1.9452  1.7522  0.0431
16837TIP3   OH271925   1.347   4.212  12.802 -0.6013 -0.0718 -0.1382
16837TIP3    H171926   1.297   4.221  12.721 -0.6311  0.8722 -0.0256
16837TIP3    H271927   1.364   4.118  12.809  1.0162 -0.0108 -2.1984
16838TIP3   OH271928   3.354   6.393   3.374  0.1021 -0.2796  0.1475
16838TIP3    H171929   3.314   6.398   3.461  1.9428  1.6823  0.9754
16838TIP3    H271930   3.303   6.455   3.321 -1.1970 -1.6774 -0.3239
16839TIP3   OH271931   4.923   0.305  12.879 -0.3239  0.3024  0.7612
16839TIP3    H171932   4.947   0.280  12.790 -0.0436 -2.7606  1.5907
16839TIP3    H271933   4.994   0.272  12.933 -0.4598  2.1692  2.1426
16840TIP3   OH271934   1.574   4.790  13.643 -0.1896  0.2523 -0.2312
16840TIP3    H171935   1.495   4.801  13.696  0.9626  0.5659  1.5164
16840TIP3    H271936   1.575   4.865  13.584 -1.0429  0.3756 -0.1066
16841TIP3   OH271937   3.230   1.754   4.568 -1.0388  0.6296 -0.1395
16841TIP3    H171938   3.285   1.828   4.541 -1.3486  1.6586  1.8378
16841TIP3    H271939   3.152   1.795   4.606 -2.3301 -0.7802 -1.1764
16842TIP3   OH271940   0.150   2.603   6.275  0.2447 -0.1073 -0.0260
16842TIP3    H171941   0.129   2.614   6.368 -0.8039 -0.0051 -0.2616
16842TIP3    H271942   0.228   2.656   6.262  0.2886  0.0363  0.7616
16843TIP3   OH271943   1.851   4.677   4.096  0.2776 -0.1014 -0.0483
16843TIP3    H171944   1.934   4.656   4.140  0.4022  1.0240  0.2854
16843TIP3    H271945   1.864   4.765   4.061 -0.6536 -0.0644 -0.3217
16844TIP3   OH271946   3.099   6.606  16.038  0.4719  0.1935 -0.5134
16844TIP3    H171947   3.128   6.598  15.947 -3.6525 -0.0087 -2.0434
16844TIP3    H271948   3.026   6.668  16.034 -2.3123 -2.6031  1.9334
16845TIP3   OH271949   1.062   5.126  13.465 -0.2560 -0.0349 -0.2230
16845TIP3    H171950   0.976   5.169  13.475 -0.8457 -1.0464 -0.7706
16845TIP3    H271951   1.092   5.153  13.379 -1.0866 -1.4371 -1.0011
16846TIP3   OH271952   6.009   3.527  15.294 -0.0078 -0.0962  0.1409
16846TIP3    H171953   6.010   3.501  15.386 -0.6504 -0.3099  0.0901
16846TIP3    H271954   5.954   3.462  15.251  1.3148 -0.7485 -0.6287
16847TIP3   OH271955   0.653   2.147   5.854 -0.2234  0.1191  0.2071
16847TIP3    H171956   0.687   2.058   5.847  0.6397  0.3576  1.1387
16847TIP3    H271957   0.569   2.137   5.898  0.0289 -0.2146  0.6268
16848TIP3   OH271958   6.357   0.756   0.961  0.4729 -0.1491  0.5545
16848TIP3    H171959   6.400   0.826   1.009 -1.0196  0.0818  1.6383
16848TIP3    H271960   6.397   0.757   0.874  2.9125 -0.2590  1.5972
16849TIP3   OH271961   1.645   5.276   2.122 -0.0319  0.4779 -0.2964
16849TIP3    H171962   1.722   5.300   2.173 -0.0114  1.3847 -0.7397
16849TIP3    H271963   1.615   5.358   2.083 -0.0988 -0.1759 -1.6814
16850TIP3   OH271964   3.192   4.586   0.294 -0.0122  0.2323  0.0835
16850TIP3    H171965   3.171   4.601   0.386 -0.8237 -0.3931  0.0076
16850TIP3    H271966   3.115   4.542   0.259  0.2660  0.5190 -0.9126
16851TIP3   OH271967   4.992   4.912  16.069 -0.3548 -0.1971 -0.2003
16851TIP3    H171968   4.975   4.901  16.163 -0.8947  0.3452 -0.2249
16851TIP3    H271969   4.962   5.001  16.050  1.1190  0.2437 -0.5919
16852TIP3   OH271970   5.489   1.458  14.017 -0.5586 -0.3273 -0.4005
16852TIP3    H171971   5.489   1.363  14.014  3.6148 -0.6781  2.0965
16852TIP3    H271972   5.467   1.480  14.108 -0.2885  0.9861 -0.6247
16853TIP3   OH271973   1.584   3.899   4.395 -0.5022  0.0812  0.2950
16853TIP3    H171974   1.528   3.824   4.418  0.3126 -0.5657  0.2105
16853TIP3    H271975   1.579   3.957   4.471 -1.4915  0.1618  0.1816
16854TIP3   OH271976   6.185   0.020   5.841 -0.2046  0.0927  0.0899
16854TIP3    H171977   6.280   0.016   5.836 -0.1522 -1.8692  1.6913
16854TIP3    H271978   6.156  -0.011   5.755  0.6268 -1.6902  0.4085
16855TIP3   OH271979   1.730   6.696  13.235  0.0175  0.3825 -0.0655
16855TIP3    H171980   1.662   6.732  13.291 -1.4060 -0.5247 -1.1325
16855TIP3    H271981   1.690   6.689  13.149  0.6031 -2.4147 -0.2292
16856TIP3   OH271982   1.029   3.478   5.168  0.5257 -0.1261 -0.1149
16856TIP3    H171983   1.023   3.505   5.259  0.6009 -1.3310  0.2629
16856TIP3    H271984   0.966   3.407   5.160 -0.6408  0.9930 -1.4220
16857TIP3   OH271985   5.875   2.002  13.084  0.4595 -0.3168  0.0707
16857TIP3    H171986   5.926   1.972  13.010 -0.3334  0.1188 -0.6704
16857TIP3    H271987   5.888   2.097  13.086 -1.2681 -0.0072 -0.9137
16858TIP3   OH271988   1.405   4.290  17.161  0.2215 -0.4115  0.4462
16858TIP3    H171989   1.472   4.358  17.157 -1.1172  0.9637  0.3992
16858TIP3    H271990   1.446   4.219  17.211  1.0634  1.1822  2.1699
16859TIP3   OH271991   4.072   4.657   4.212  0.1447 -0.0128 -0.7404
16859TIP3    H171992   3.998   4.650   4.272 -0.5783 -0.8343 -1.7132
16859TIP3    H271993   4.144   4.689   4.267 -0.5109 -0.7047  0.5582
16860TIP3   OH271994   6.713   5.698   6.289 -0.1457  0.3814 -0.5218
16860TIP3    H171995   6.649   5.631   6.267 -1.6849  1.8426 -0.7185
16860TIP3    H271996   6.759   5.664   6.366  0.2729 -1.5740 -1.5599
16861TIP3   OH271997   0.215   0.651  12.117 -0.0662 -0.1715  0.2694
16861TIP3    H171998   0.179   0.673  12.203  1.3864 -0.6157  1.0069
16861TIP3    H271999   0.224   0.556  12.118  1.7340 -0.0332  0.3740
16862TIP3   OH272000   5.177   6.544  14.071 -0.2948  0.1497  0.1748
16862TIP3    H172001   5.218   6.520  13.988  0.4464  0.2226  0.5127
16862TIP3    H272002   5.126   6.623  14.050 -1.5419 -0.8064 -0.5936
16863TIP3   OH272003   1.006   5.940   1.565 -0.1366  0.4701 -0.3491
16863TIP3    H172004   1.097   5.911   1.571 -0.5243 -0.7061  0.1655
16863TIP3    H272005   0.957   5.861   1.542 -1.1396  0.9006  0.2492
16864TIP3   OH272006   2.938   2.269  12.299 -0.5272 -0.2399 -0.1142
16864TIP3    H172007   2.912   2.325  12.226 -1.7587 -1.6898 -0.8475
16864TIP3    H272008   2.874   2.197  12.298  0.7535 -1.4534  1.0148
16865TIP3   OH272009   1.027   3.083   3.263 -0.2903 -0.1112 -0.5099
16865TIP3    H172010   1.016   3.115   3.352  0.2350  2.7248 -1.3797
16865TIP3    H272011   1.119   3.057   3.258  0.0638  1.0983 -0.5853
16866TIP3   OH272012   0.996   0.731  11.648  0.1135 -0.5948 -0.1347
16866TIP3    H172013   0.959   0.776  11.724 -2.1425 -0.7206 -1.1000
16866TIP3    H272014   1.089   0.720  11.670  0.2820  2.4734  1.0777
16867TIP3   OH272015   0.718   6.329   2.345 -0.1649 -0.0359  0.3992
16867TIP3    H172016   0.797   6.274   2.348 -1.0758 -1.3640  0.8651
16867TIP3    H272017   0.751   6.416   2.324  1.7317  0.0024  3.0737
16868TIP3   OH272018   0.671   0.018  11.718  0.2559 -0.2174  0.3690
16868TIP3    H172019   0.709   0.092  11.765 -0.1347  0.5205 -0.4426
16868TIP3    H272020   0.606   0.058  11.659 -0.7035 -1.2984  0.6580
16869TIP3   OH272021   3.473   4.033   6.438 -0.2716  0.0125 -0.0954
16869TIP3    H172022   3.534   4.024   6.511 -0.5939 -2.0557 -0.0369
16869TIP3    H272023   3.486   4.123   6.408  1.4623  0.2150  1.0902
16870TIP3   OH272024   1.808   3.038  16.707  0.1463  0.1935 -0.1110
16870TIP3    H172025   1.802   3.120  16.658 -2.2344  0.1033 -0.0916
16870TIP3    H272026   1.854   3.062  16.788  0.5835  1.2223 -0.6478
16871TIP3   OH272027   6.370   3.314   1.455  0.3185 -0.0009  0.2125
16871TIP3    H172028   6.333   3.392   1.413  1.1321  0.8176  0.9528
16871TIP3    H272029   6.336   3.241   1.405 -0.3395  0.8447 -0.6107
16872TIP3   OH272030   5.943   4.570   6.071 -0.4657 -0.0179 -0.1058
16872TIP3    H172031   5.999   4.546   5.998 -0.3687  0.7010 -0.2753
16872TIP3    H272032   5.869   4.509   6.066 -0.2651 -0.2271 -0.5621
16873TIP3   OH272033   5.305   2.770  14.361 -0.0329 -0.6271 -0.0224
16873TIP3    H172034   5.357   2.729  14.293  1.2095  0.1274  0.4352
16873TIP3    H272035   5.339   2.734  14.443  0.3788  0.5067  0.3271
16874TIP3   OH272036   0.290   4.610   6.469 -0.4121  0.1703 -0.1539
16874TIP3    H172037   0.271   4.703   6.467 -1.6107 -0.0017  1.3960
16874TIP3    H272038   0.250   4.579   6.550  0.0585 -1.6723 -0.5790
16875TIP3   OH272039   2.964   4.357   1.053 -0.3580  0.0319  0.0250
16875TIP3    H172040   2.911   4.364   1.132  1.3697  0.6350  1.2017
16875TIP3    H272041   2.901   4.361   0.981 -2.0995 -1.7638  1.3486
16876TIP3   OH272042   2.302   1.984  17.034 -0.5042  0.0008 -0.4067
16876TIP3    H172043   2.391   1.960  17.009 -0.8178 -1.0838 -0.5471
16876TIP3    H272044   2.285   2.066  16.987  0.4630  0.2933 -0.2599
16877TIP3   OH272045   6.122   0.243  14.702 -0.5606 -0.6204 -0.5996
16877TIP3    H172046   6.202   0.270  14.746  0.2590 -0.8147 -1.9243
16877TIP3    H272047   6.132   0.149  14.688 -0.8984 -0.5983 -1.0237
16878TIP3   OH272048   2.953   6.167  12.626 -0.1428 -0.5050  0.0292
16878TIP3    H172049   3.021   6.185  12.562  1.6077 -1.1390  1.5995
16878TIP3    H272050   2.987   6.205  12.708 -1.3647 -1.4234  1.0059
16879TIP3   OH272051   4.510   2.576   0.533 -0.3737 -0.3808  0.1678
16879TIP3    H172052   4.598   2.538   0.524 -1.1072 -2.3166  0.7323
16879TIP3    H272053   4.525   2.660   0.576  1.4018  0.4798 -1.9016
16880TIP3   OH272054   6.099   0.675   0.301  0.7833 -0.1826  0.0951
16880TIP3    H172055   6.119   0.582   0.317 -0.9749 -0.5278  0.5979
16880TIP3    H272056   6.009   0.684   0.331 -0.1915  0.9645 -2.8797
16881TIP3   OH272057   6.410   5.707   5.073  0.2025  0.6098 -0.6635
16881TIP3    H172058   6.420   5.614   5.091  0.0243  0.4273 -1.4664
16881TIP3    H272059   6.376   5.711   4.983 -1.3158  1.4053 -0.0889
16882TIP3   OH272060   5.330   4.392   4.213  0.2092  0.6185 -0.2906
16882TIP3    H172061   5.254   4.446   4.190  0.0639  0.6872  0.3151
16882TIP3    H272062   5.348   4.341   4.135 -2.0604 -1.2982  0.3007
16883TIP3   OH272063   4.232   3.219   4.828  0.1529 -0.1689 -0.4468
16883TIP3    H172064   4.273   3.180   4.751 -1.1151 -1.1008 -0.6769
16883TIP3    H272065   4.255   3.160   4.900 -1.2838 -1.0896 -0.6956
16884TIP3   OH272066   1.193   5.824   1.893  0.3997  0.1097 -0.6900
16884TIP3    H172067   1.167   5.871   1.973  1.5057 -0.3387 -0.0311
16884TIP3    H272068   1.120   5.765   1.875 -0.3417  0.9987 -0.6474
16885TIP3   OH272069   2.460   2.988  16.726 -0.2741  0.6204 -0.5967
16885TIP3    H172070   2.447   3.039  16.805  1.3995  1.3122 -0.7364
16885TIP3    H272071   2.449   2.897  16.754 -2.5797  0.9752 -0.2071
16886TIP3   OH272072   4.711   3.619   1.955 -0.1013 -0.0429 -0.2801
16886TIP3    H172073   4.759   3.701   1.965  1.7980 -1.2041  0.6221
16886TIP3    H272074   4.714   3.579   2.041 -1.5590 -0.7895 -0.5518
16887TIP3   OH272075   0.474   6.117  15.387 -0.1801 -0.8140 -0.1023
16887TIP3    H172076   0.446   6.202  15.420  0.8771 -0.7589  0.7426
16887TIP3    H272077   0.397   6.080  15.345 -0.2077  1.3292 -2.1374
16888TIP3   OH272078   6.678   0.152  16.442 -0.1843 -0.5147  0.2192
16888TIP3    H172079   6.703   0.244  16.439  1.7677 -1.0344 -0.2849
16888TIP3    H272080   6.739   0.112  16.504 -0.7556 -1.5557  0.1342
16889TIP3   OH272081   3.252   5.061   5.484  0.3733 -0.5561  0.0006
16889TIP3    H172082   3.159   5.067   5.504  0.1751 -0.7674 -0.8351
16889TIP3    H272083   3.280   4.978   5.523  0.7526  0.5641  2.2799
16890TIP3   OH272084   6.399   1.661  14.186  0.1370 -0.4553 -0.1012
16890TIP3    H172085   6.326   1.604  14.161 -0.0955 -0.2601  0.1378
16890TIP3    H272086   6.364   1.750  14.180  0.1012 -0.3970  0.8293
16891TIP3   OH272087   3.622   2.837  11.642  0.0216 -0.1453  0.1143
16891TIP3    H172088   3.546   2.830  11.699 -0.3753  0.9860 -0.2572
16891TIP3    H272089   3.601   2.782  11.567  0.6290 -1.8066  1.1003
16892TIP3   OH272090   4.213   3.456  12.073  1.1159  0.2215  0.2845
16892TIP3    H172091   4.188   3.426  11.986  1.3101  1.0899 -0.0833
16892TIP3    H272092   4.198   3.381  12.130  1.9594 -0.6966 -0.6643
16893TIP3   OH272093   6.705   0.702   1.127 -0.1889 -0.2595 -0.4426
16893TIP3    H172094   6.657   0.627   1.093  0.2670 -1.3074  1.1186
16893TIP3    H272095   6.655   0.730   1.204 -2.4608  3.4502 -2.9161
16894TIP3   OH272096   2.033   2.135  15.610 -0.5930 -0.2009 -0.5118
16894TIP3    H172097   2.009   2.048  15.580 -1.3118 -0.7217  1.3927
16894TIP3    H272098   2.009   2.135  15.703  1.6314  1.1982  0.1389
16895TIP3   OH272099   4.113   1.184  17.209 -0.7672 -0.4902  0.4496
16895TIP3    H172100   4.186   1.202  17.150 -0.3631 -0.9801  0.7987
16895TIP3    H272101   4.099   1.266  17.256 -1.3694  0.0438 -0.6175
16896TIP3   OH272102   4.138   4.701  15.382 -0.0310  0.3434  0.0655
16896TIP3    H172103   4.126   4.781  15.332 -0.5833 -1.6714 -3.2976
16896TIP3    H272104   4.232   4.693  15.394  0.1122  0.8214 -0.7398
16897TIP3   OH272105   6.016   2.681  11.599  0.0136  0.1757 -0.5211
16897TIP3    H172106   6.019   2.646  11.688 -2.0531 -0.2948 -0.5867
16897TIP3    H272107   6.104   2.664  11.564  0.6717 -0.2171  1.1852
16898TIP3   OH272108   5.094   6.507   3.896  0.1899  0.0986 -0.4956
16898TIP3    H172109   5.167   6.499   3.958 -0.2307 -0.0741 -0.0092
16898TIP3    H272110   5.077   6.418   3.867 -0.5142 -0.0197  0.2206
16899TIP3   OH272111   5.217   3.729   5.376  0.1090 -0.1850 -0.0088
16899TIP3    H172112   5.187   3.639   5.364 -0.7933  0.4299 -3.7195
16899TIP3    H272113   5.139   3.778   5.399 -0.1278  0.1100 -1.3448
16900TIP3   OH272114   6.091   6.685   0.909  0.4501 -0.3557 -0.0016
16900TIP3    H172115   6.160   6.719   0.966  0.4295 -1.6452  0.8395
16900TIP3    H272116   6.010   6.720   0.944  0.6601  1.5316 -1.2599
16901TIP3   OH272117   0.470   4.152  14.767 -0.1225  0.0985 -0.1525
16901TIP3    H172118   0.394   4.125  14.716 -0.4321  0.1145  0.2974
16901TIP3    H272119   0.447   4.133  14.858  0.4483  0.0136 -0.0193
16902TIP3   OH272120   5.638   3.274  13.998 -0.4329 -0.1451 -1.3167
16902TIP3    H172121   5.583   3.214  14.048  0.4087 -0.8956 -1.2703
16902TIP3    H272122   5.602   3.273  13.910 -0.5452 -0.5668 -1.2661
16903TIP3   OH272123   0.533   4.903  13.945 -0.2892  0.2934 -0.4803
16903TIP3    H172124   0.579   4.882  14.027  1.4337  2.2757 -0.8546
16903TIP3    H272125   0.471   4.971  13.969 -2.9157 -2.0796 -0.0665
16904TIP3   OH272126   1.312   4.186   6.775  0.4513 -0.1713  0.3717
16904TIP3    H172127   1.368   4.226   6.708 -0.0596 -1.8034 -1.1160
16904TIP3    H272128   1.337   4.094   6.776 -2.0305 -0.9318 -0.2391
16905TIP3   OH272129   0.233   4.633  13.455 -0.7210  0.0803 -0.1659
16905TIP3    H172130   0.222   4.671  13.368  1.5253  1.5296  0.1011
16905TIP3    H272131   0.208   4.703  13.516 -0.8603 -0.4210  0.3685
16906TIP3   OH272132   2.024   1.580   4.165  0.6406  0.3104  0.3128
16906TIP3    H172133   2.065   1.636   4.100  0.8250 -0.5178 -0.2982
16906TIP3    H272134   2.095   1.556   4.225  1.4230 -2.1309 -1.4387
16907TIP3   OH272135   5.781   4.327  12.113  0.1205  0.0360  0.3636
16907TIP3    H172136   5.805   4.311  12.204 -1.2850  0.2629  0.8035
16907TIP3    H272137   5.761   4.240  12.078  0.5986 -0.0437  0.2740
16908TIP3   OH272138   4.285   4.706  13.376  0.1202  0.3954  0.7989
16908TIP3    H172139   4.232   4.632  13.345 -0.3327  0.7075  0.8041
16908TIP3    H272140   4.375   4.681  13.357 -0.1959  1.2977 -2.4520
16909TIP3   OH272141   0.438   0.433   0.028  0.7228  0.2279 -0.0511
16909TIP3    H172142   0.475   0.498   0.088  0.4990  0.3437 -0.0374
16909TIP3    H272143   0.408   0.484  -0.047  2.4645 -0.0765 -1.0068
16910TIP3   OH272144   3.528   3.896   5.468  0.3495 -0.3287 -0.1151
16910TIP3    H172145   3.481   3.977   5.488 -0.4593 -0.5056 -1.2586
16910TIP3    H272146   3.547   3.858   5.554 -2.0232 -0.5122  0.3719
16911TIP3   OH272147   6.103   5.128  11.544 -0.0555  0.6324  1.0490
16911TIP3    H172148   6.031   5.066  11.534  0.8512 -0.6660  2.1527
16911TIP3    H272149   6.071   5.193  11.606 -1.1180  1.4766 -0.3305
16912TIP3   OH272150   4.134   0.541  14.218  0.2341 -0.5366  0.4859
16912TIP3    H172151   4.045   0.549  14.251  0.1512 -0.0951  0.1737
16912TIP3    H272152   4.130   0.577  14.129  1.1701  1.6527  1.2496
16913TIP3   OH272153   6.572   4.940  16.318 -0.4100 -0.0651 -0.2777
16913TIP3    H172154   6.577   5.034  16.300 -0.7086  0.0337  0.1489
16913TIP3    H272155   6.615   4.930  16.403  1.1712 -0.5585 -1.0966
16914TIP3   OH272156   1.806   3.210   5.273  0.1452  0.0272 -0.4400
16914TIP3    H172157   1.744   3.218   5.201 -2.6360  1.3076  1.8757
16914TIP3    H272158   1.848   3.296   5.278  0.4698 -0.1196 -0.6488
16915TIP3   OH272159   3.415   3.085  11.984 -0.0946  0.5162 -1.0428
16915TIP3    H172160   3.475   3.033  11.931  1.0904 -2.0324  2.4121
16915TIP3    H272161   3.339   3.028  11.997 -0.0597  0.7647  0.4646
16916TIP3   OH272162   4.194   5.356   3.063  0.1818  0.1384  0.3398
16916TIP3    H172163   4.199   5.451   3.053  0.7030  0.1431  0.6256
16916TIP3    H272164   4.144   5.343   3.143  1.0438  0.1977  0.9032
16917TIP3   OH272165   0.716   5.839  16.984  0.3594  0.0471 -0.5151
16917TIP3    H172166   0.672   5.917  16.951  0.5517  0.8583  1.0806
16917TIP3    H272167   0.650   5.794  17.035  1.1040  0.8610  1.2340
16918TIP3   OH272168   4.500   0.492   0.605 -0.2933 -0.3748  0.8739
16918TIP3    H172169   4.489   0.529   0.693 -0.3807  0.2694  0.6010
16918TIP3    H272170   4.515   0.569   0.549 -1.1332 -0.6991  0.1849
16919TIP3   OH272171   5.979   3.923  14.760 -0.4857  0.3864 -0.3639
16919TIP3    H172172   5.966   3.879  14.676  1.3333  1.4959 -1.3047
16919TIP3    H272173   5.951   4.014  14.744  0.2625  0.7059  0.0868
16920TIP3   OH272174   5.346   1.658  14.410  0.1398 -0.1843 -0.0220
16920TIP3    H172175   5.341   1.582  14.352 -0.1619  1.4305 -2.2350
16920TIP3    H272176   5.425   1.644  14.462 -0.3483 -2.3674  0.2513
16921TIP3   OH272177   1.905   1.841   1.376  0.1517  0.3458 -0.3895
16921TIP3    H172178   1.887   1.747   1.368 -0.4568  0.4148  0.0862
16921TIP3    H272179   1.921   1.870   1.287 -1.1531  0.0712 -0.7325
16922TIP3   OH272180   3.064   5.552  15.125  0.2284 -0.2677  0.2457
16922TIP3    H172181   3.009   5.482  15.161 -0.3564  0.5683  1.0150
16922TIP3    H272182   3.004   5.604  15.071  0.9948 -1.2443 -1.6504
16923TIP3   OH272183   5.232   2.353  14.585  0.4654  0.2826 -0.3448
16923TIP3    H172184   5.249   2.290  14.515  0.5314 -1.4327  1.1431
16923TIP3    H272185   5.309   2.410  14.585  0.2007  0.6969 -2.0158
16924TIP3   OH272186   0.628   3.878   4.912  0.4823 -0.8817  0.2904
16924TIP3    H172187   0.708   3.824   4.917  1.0985  0.0551  0.8597
16924TIP3    H272188   0.594   3.861   4.824 -0.2078 -3.3770  0.9690
16925TIP3   OH272189   1.430   5.967   0.283 -0.5117 -0.9720 -0.0152
16925TIP3    H172190   1.438   6.058   0.310 -1.1181 -0.7461 -0.5565
16925TIP3    H272191   1.516   5.944   0.247 -0.7460 -0.1897 -1.1122
16926TIP3   OH272192   4.553   2.913  13.202 -0.8141 -0.2900  0.2537
16926TIP3    H172193   4.515   2.830  13.229 -0.2356 -0.8939 -0.7175
16926TIP3    H272194   4.563   2.905  13.107  1.6215 -0.1388  0.4236
16927TIP3   OH272195   5.702   2.427   3.021  0.2406  0.4046  0.7043
16927TIP3    H172196   5.745   2.349   2.988  1.7219  1.7590 -0.7716
16927TIP3    H272197   5.634   2.395   3.080 -0.3683 -2.0438 -1.1963
16928TIP3   OH272198   5.133   2.393   3.765 -0.2380  0.0067 -0.0557
16928TIP3    H172199   5.203   2.449   3.795  0.3356 -0.4178 -0.5808
16928TIP3    H272200   5.166   2.352   3.685 -1.2889  0.2301 -0.6350
16929TIP3   OH272201   2.481   3.008  14.000 -0.2464  0.2509 -0.2547
16929TIP3    H172202   2.576   3.020  14.011 -0.5713  0.9740  2.5043
16929TIP3    H272203   2.457   2.945  14.067 -1.4515 -1.8197 -2.4716
16930TIP3   OH272204   4.583   4.460  11.262 -0.3840 -0.4660 -0.2241
16930TIP3    H172205   4.626   4.536  11.301 -1.5695  1.0318 -1.6988
16930TIP3    H272206   4.571   4.399  11.335 -2.7872  2.2853  1.9434
16931TIP3   OH272207   0.670   3.444  13.010 -0.1164 -0.1981  0.1334
16931TIP3    H172208   0.741   3.474  13.066 -0.1423  0.2782 -0.0812
16931TIP3    H272209   0.659   3.351  13.031  2.1417 -0.9108 -1.4741
16932TIP3   OH272210   2.600   4.720  14.233  0.7407 -0.1933  1.0827
16932TIP3    H172211   2.644   4.745  14.151  0.9537  0.1511  1.2982
16932TIP3    H272212   2.664   4.739  14.301  0.8840 -1.2737  1.2685
16933TIP3   OH272213   0.795   2.188   4.423  0.2670 -0.1594  0.2028
16933TIP3    H172214   0.781   2.263   4.480 -0.2814  1.3395 -1.7879
16933TIP3    H272215   0.721   2.188   4.363 -1.7017 -4.4248  2.1704
16934TIP3   OH272216   4.276   0.792   3.272  0.5048  0.2805 -0.3529
16934TIP3    H172217   4.368   0.764   3.278  0.2019 -0.5467  0.6069
16934TIP3    H272218   4.227   0.710   3.269 -0.2519  0.7195 -0.0640
16935TIP3   OH272219   1.482   0.286   4.646  0.0793 -0.3010  0.4369
16935TIP3    H172220   1.388   0.274   4.633 -0.1825  0.9164  1.0691
16935TIP3    H272221   1.490   0.375   4.680  1.3402 -0.8557  1.6643
16936TIP3   OH272222   6.593   6.179  14.966 -0.2128  0.0188  0.7250
16936TIP3    H172223   6.679   6.211  14.994  0.1361 -0.5664  0.3458
16936TIP3    H272224   6.531   6.241  15.003  0.4219  0.8801  0.3690
16937TIP3   OH272225   1.767   5.220   5.442  0.2537  0.4862  0.6486
16937TIP3    H172226   1.701   5.224   5.511 -0.2227 -0.1659  0.2428
16937TIP3    H272227   1.773   5.310   5.409 -0.5675  0.5152  0.5649
16938TIP3   OH272228   4.399   5.484  16.145  0.4446 -0.4606  0.4115
16938TIP3    H172229   4.351   5.566  16.154  0.1038 -0.8385  2.6850
16938TIP3    H272230   4.339   5.417  16.176  0.4898 -1.7332 -1.9667
16939TIP3   OH272231   0.728   2.922   3.418 -0.1003 -0.3390  0.3565
16939TIP3    H172232   0.701   2.842   3.373  0.4131 -0.2118 -0.1984
16939TIP3    H272233   0.678   2.992   3.375 -1.1818 -0.4383  1.4024
16940TIP3   OH272234   0.304   1.744  13.056  0.5287  0.1401  0.3857
16940TIP3    H172235   0.391   1.723  13.020 -0.1734 -1.9211 -0.2193
16940TIP3    H272236   0.314   1.731  13.150  0.3500 -2.3407  0.1216
16941TIP3   OH272237   1.489   3.746   0.149  0.5979  0.4883  0.1644
16941TIP3    H172238   1.548   3.768   0.220  1.5558  0.4774 -0.6058
16941TIP3    H272239   1.510   3.808   0.079 -0.2149  0.4050 -0.1694
16942TIP3   OH272240   5.406   2.505   3.552 -0.4582 -0.3340 -0.3490
16942TIP3    H172241   5.471   2.531   3.616  0.4739 -0.1383 -1.3526
16942TIP3    H272242   5.380   2.586   3.509  0.2656 -0.6695 -1.4502
16943TIP3   OH272243   0.965   4.103  17.016  0.1074 -0.9696  0.4646
16943TIP3    H172244   1.012   4.108  16.932 -0.0772  1.9834  0.4438
16943TIP3    H272245   1.034   4.082  17.080  0.9691  0.4388  0.0428
16944TIP3   OH272246   3.054   3.516   4.143 -0.1969  0.1486  0.0354
16944TIP3    H172247   3.064   3.589   4.082 -1.1255  1.7058  1.6507
16944TIP3    H272248   2.964   3.486   4.129 -0.0314 -0.2479 -0.1689
16945TIP3   OH272249   1.036   6.222  11.318 -0.6902 -0.6996 -0.2667
16945TIP3    H172250   1.051   6.283  11.390 -1.8099 -1.0679  0.3036
16945TIP3    H272251   0.949   6.185  11.336 -1.1250 -0.5778 -1.9679
16946TIP3   OH272252   6.272   3.816   1.536 -0.0889 -0.6377  0.2229
16946TIP3    H172253   6.240   3.866   1.611  0.6755 -0.0745  0.1884
16946TIP3    H272254   6.193   3.778   1.497 -0.6977  0.4872  0.2952
16947TIP3   OH272255   6.393   5.769  15.837 -0.3339 -0.5537 -0.5384
16947TIP3    H172256   6.359   5.749  15.924 -1.0026 -0.2338 -0.7192
16947TIP3    H272257   6.474   5.719  15.831  0.2884  0.2542  0.6871
16948TIP3   OH272258   2.696   4.207  15.044 -0.6260  0.0505  0.2268
16948TIP3    H172259   2.675   4.115  15.058 -2.8774  0.3716 -0.7136
16948TIP3    H272260   2.682   4.222  14.951 -2.2921  1.7854  0.6927
16949TIP3   OH272261   2.278   2.865  15.765  0.2752 -0.0517 -0.3491
16949TIP3    H172262   2.208   2.925  15.740  0.8063  0.5758 -0.3445
16949TIP3    H272263   2.351   2.889  15.708  0.4948 -0.6971 -0.3482
16950TIP3   OH272264   3.803   1.054   4.014 -0.3744  0.3799  0.3255
16950TIP3    H172265   3.781   1.053   3.921  0.0805  1.2311  0.2028
16950TIP3    H272266   3.780   0.966   4.045  0.4409 -0.2604 -0.8114
16951TIP3   OH272267   2.579   6.227  11.166 -0.2019  0.0660 -0.5372
16951TIP3    H172268   2.489   6.206  11.190 -0.1578 -3.2370 -2.5848
16951TIP3    H272269   2.633   6.191  11.237 -0.3969 -2.0083 -1.3764
16952TIP3   OH272270   4.581   3.276  15.202 -0.0256  0.7003 -0.8407
16952TIP3    H172271   4.543   3.348  15.251  1.4228  0.9288 -0.0155
16952TIP3    H272272   4.603   3.211  15.268 -1.2127 -0.4943 -1.5597
16953TIP3   OH272273   1.848   1.898  16.487  0.2295 -0.7393  0.4076
16953TIP3    H172274   1.871   1.957  16.559 -0.1611 -0.0597 -0.0119
16953TIP3    H272275   1.930   1.885  16.440  0.7273 -2.0240  1.5466
16954TIP3   OH272276   3.768   0.828   0.026 -0.2525  0.2214  0.1696
16954TIP3    H172277   3.800   0.862  -0.058 -2.2644  0.4108 -0.5916
16954TIP3    H272278   3.763   0.734   0.013  1.6810 -0.0209  0.9419
16955TIP3   OH272279   2.661   2.371  14.893  0.2951 -0.7350 -0.6809
16955TIP3    H172280   2.725   2.407  14.831 -0.1512 -0.1008 -0.7833
16955TIP3    H272281   2.714   2.335  14.964  0.7663  1.9686  0.4747
16956TIP3   OH272282   1.122   4.067  13.714  0.0596  0.4072  0.1079
16956TIP3    H172283   1.084   4.039  13.798  0.3593 -1.7085 -0.4082
16956TIP3    H272284   1.217   4.063  13.728  0.1095  0.6121 -0.1671
16957TIP3   OH272285   3.889   1.921  13.471  0.0254  0.2683 -0.7530
16957TIP3    H172286   3.870   1.965  13.554  3.0577  1.8805 -0.7991
16957TIP3    H272287   3.862   1.830  13.487 -1.1251  0.8948  1.3423
16958TIP3   OH272288   1.192   4.371   6.945  0.0935 -0.1020  0.4787
16958TIP3    H172289   1.233   4.454   6.920 -0.0807 -0.9261 -3.2057
16958TIP3    H272290   1.238   4.305   6.893 -0.9154 -2.0952  1.9875
16959TIP3   OH272291   3.683   2.352  16.742 -0.3400  0.3497 -0.4934
16959TIP3    H172292   3.597   2.364  16.703  0.5660 -0.0118 -2.7219
16959TIP3    H272293   3.729   2.293  16.682  0.8873 -0.8897  1.5408
16960TIP3   OH272294   1.856   6.765   2.703 -0.4250  0.1359  0.5374
16960TIP3    H172295   1.813   6.693   2.749 -1.5819  0.6818  0.3550
16960TIP3    H272296   1.890   6.821   2.773 -0.4444 -0.0452  0.6924
16961TIP3   OH272297   5.850   3.097  14.938 -0.4471 -0.3863 -0.0381
16961TIP3    H172298   5.757   3.098  14.912 -0.1273 -0.4599 -1.2568
16961TIP3    H272299   5.895   3.137  14.864  0.3566  1.0801  1.2024
16962TIP3   OH272300   6.667   2.062   4.272  0.0439 -0.3285  0.3419
16962TIP3    H172301   6.653   2.080   4.179  2.8330  2.8221  0.3531
16962TIP3    H272302   6.748   2.012   4.275  0.0311 -0.3173  1.0681
16963TIP3   OH272303   4.945   1.692  12.132 -0.0476 -0.5712 -0.3746
16963TIP3    H172304   4.970   1.747  12.057  1.7247 -0.4316  0.2643
16963TIP3    H272305   4.918   1.755  12.199  0.2341 -0.5803 -0.2516
16964TIP3   OH272306   2.614   2.195   4.613 -0.7318  0.1024  0.4328
16964TIP3    H172307   2.583   2.120   4.562  1.3153  0.5314 -1.6112
16964TIP3    H272308   2.562   2.193   4.693 -1.2689 -3.0368  0.1221
16965TIP3   OH272309   4.749   1.156  15.227  0.0219  0.1832  1.1328
16965TIP3    H172310   4.716   1.246  15.222 -1.1983 -0.2032  1.6948
16965TIP3    H272311   4.844   1.165  15.229 -0.0930  1.5641  2.7873
16966TIP3   OH272312   5.479   0.095   3.939  0.0114 -0.0621  0.3766
16966TIP3    H172313   5.569   0.121   3.958  0.2578 -2.0848  2.2623
16966TIP3    H272314   5.483   0.001   3.925 -1.6012  0.0536 -1.2437
16967TIP3   OH272315   5.013   3.360   6.329  0.2529  0.4999  0.1573
16967TIP3    H172316   4.922   3.373   6.302  0.4858  0.5161 -0.6694
16967TIP3    H272317   5.050   3.449   6.332  0.5135  0.4207 -0.5427
16968TIP3   OH272318   0.587   1.896  13.346 -0.5479  0.1530 -0.5310
16968TIP3    H172319   0.653   1.922  13.282 -0.2618 -1.6392 -0.9963
16968TIP3    H272320   0.628   1.826  13.396 -2.4734 -1.8428 -1.6145
16969TIP3   OH272321   4.051   5.556   3.600 -0.3003 -0.4178 -0.2902
16969TIP3    H172322   4.138   5.524   3.625  0.1863  0.7259 -0.4633
16969TIP3    H272323   3.991   5.507   3.656  0.6257  0.5953  1.7064
16970TIP3   OH272324   2.518   1.558   4.655  0.3983  0.6122 -0.2149
16970TIP3    H172325   2.453   1.517   4.711  0.5358 -0.3154 -0.7102
16970TIP3    H272326   2.485   1.646   4.639 -0.1209  0.5555  0.5213
16971TIP3   OH272327   1.734   0.848  12.850  0.5971  0.3504  0.2168
16971TIP3    H172328   1.707   0.870  12.940 -0.9614 -1.5645  0.2795
16971TIP3    H272329   1.763   0.757  12.855  0.2258  0.1245 -1.2670
16972TIP3   OH272330   2.713   2.896  12.236  0.1485 -0.1260  0.4719
16972TIP3    H172331   2.673   2.869  12.154 -0.5512  0.5079  0.6010
16972TIP3    H272332   2.772   2.967  12.211  0.7956 -0.6907  0.3623
16973TIP3   OH272333   6.307   3.883   2.281 -0.5622  0.2332  0.3059
16973TIP3    H172334   6.245   3.927   2.340 -0.8491  2.3879 -1.4697
16973TIP3    H272335   6.251   3.835   2.220 -0.2853 -1.4224  1.2997
16974TIP3   OH272336   3.006   3.658  15.872 -0.2302  0.8042  0.0256
16974TIP3    H172337   2.929   3.681  15.923  1.1418  1.0304  2.0896
16974TIP3    H272338   3.000   3.563  15.861  0.9901  0.1979  3.4547
16975TIP3   OH272339   5.341   5.521  16.349  0.4144 -0.5137 -0.2196
16975TIP3    H172340   5.354   5.444  16.405 -2.9735 -0.5999  0.6787
16975TIP3    H272341   5.366   5.595  16.404 -3.2832 -0.5590  1.8974
16976TIP3   OH272342   3.969   1.959  14.925 -0.0579 -0.9658  0.1932
16976TIP3    H172343   3.979   1.868  14.894 -3.3597 -1.9303  1.5018
16976TIP3    H272344   3.952   1.950  15.019 -1.8168  0.8397  0.1154
16977TIP3   OH272345   3.191   6.302  12.097 -0.3191 -0.5176 -0.2973
16977TIP3    H172346   3.154   6.297  12.009 -1.0649  0.0468 -0.0258
16977TIP3    H272347   3.142   6.372  12.140 -1.0568 -1.8153  1.0717
16978TIP3   OH272348   0.505   2.426   2.829  0.2992 -0.6173 -0.1033
16978TIP3    H172349   0.505   2.358   2.762 -1.0449 -1.3427  0.5865
16978TIP3    H272350   0.562   2.392   2.898  0.9904 -0.2620 -0.4941
16979TIP3   OH272351   5.472   0.751  13.202  0.5768  0.1187 -0.4221
16979TIP3    H172352   5.494   0.750  13.109  2.5010 -0.1328 -0.0089
16979TIP3    H272353   5.556   0.763  13.246 -0.4024  1.0544  1.2674
16980TIP3   OH272354   4.951   4.234  11.762 -0.2505 -0.4747 -0.5053
16980TIP3    H172355   5.043   4.259  11.753 -0.0531 -1.1242 -0.3779
16980TIP3    H272356   4.929   4.256  11.853 -0.0492 -0.8307 -0.3653
16981TIP3   OH272357   0.659   4.781   5.166  0.2176 -0.1463 -0.4766
16981TIP3    H172358   0.620   4.855   5.213  1.5620 -0.1011  0.6490
16981TIP3    H272359   0.683   4.817   5.081  0.2863  0.5550 -0.1742
16982TIP3   OH272360   1.046   5.785   2.870 -0.1263 -0.2718  0.1642
16982TIP3    H172361   1.109   5.786   2.798  0.3961 -0.5125  0.6056
16982TIP3    H272362   1.032   5.692   2.887 -4.1126 -0.4763 -2.9079
16983TIP3   OH272363   5.711   6.272  13.240 -0.2529  0.3184 -0.2482
16983TIP3    H172364   5.767   6.314  13.175  0.4356  0.4678  0.4220
16983TIP3    H272365   5.743   6.306  13.324 -0.7257 -0.3398  0.2037
16984TIP3   OH272366   0.095   3.226  16.753 -0.1532 -0.4935 -0.4343
16984TIP3    H172367   0.103   3.214  16.658 -3.2641 -2.5336 -0.5686
16984TIP3    H272368   0.009   3.266  16.765  0.9006  1.4300  1.5186
16985TIP3   OH272369   2.932   0.766  15.192  0.7399 -0.1559  0.1691
16985TIP3    H172370   2.861   0.734  15.136  0.0102  1.0267  0.3981
16985TIP3    H272371   2.975   0.686  15.223 -0.7929 -0.9177  0.4239
16986TIP3   OH272372   5.111   1.268   6.331  0.3036  0.1082 -0.0597
16986TIP3    H172373   5.063   1.324   6.391 -3.6897 -1.1746 -1.7107
16986TIP3    H272374   5.200   1.303   6.331 -0.7835  3.3693  2.5180
16987TIP3   OH272375   3.118   4.660   0.913 -0.2932  0.4026 -0.2881
16987TIP3    H172376   3.184   4.643   0.980 -0.3523  1.9924  0.1941
16987TIP3    H272377   3.167   4.661   0.831  0.2291  1.1694  0.0260
16988TIP3   OH272378   1.462   5.631  16.486 -0.0776  0.2502  1.2906
16988TIP3    H172379   1.489   5.565  16.423  0.7601 -0.7053  2.6248
16988TIP3    H272380   1.398   5.684  16.438 -1.2677 -1.8900  0.3773
16989TIP3   OH272381   6.270   5.170   2.384  0.6254 -0.1741  0.2096
16989TIP3    H172382   6.245   5.089   2.339  1.7582 -0.5279  0.1897
16989TIP3    H272383   6.255   5.152   2.477 -1.0915  0.3332  0.0797
16990TIP3   OH272384   0.175   3.593  10.685 -0.0985 -0.5715 -0.1091
16990TIP3    H172385   0.233   3.573  10.759 -0.6927  0.1931  0.5731
16990TIP3    H272386   0.231   3.638  10.622  0.2688 -0.6931  0.1288
16991TIP3   OH272387   1.255   4.034  10.548 -0.1985  0.0265 -0.9541
16991TIP3    H172388   1.265   3.940  10.537 -2.1123 -0.1339 -1.6284
16991TIP3    H272389   1.192   4.060  10.481  0.9385  1.9526 -1.3829
16992TIP3   OH272390   1.705   5.200  16.235 -0.3334 -0.0588  0.2080
16992TIP3    H172391   1.705   5.197  16.140 -1.8401 -0.1337  0.1878
16992TIP3    H272392   1.794   5.226  16.258  0.0469 -0.0190 -1.2136
16993TIP3   OH272393   4.827   5.645  15.033  0.5528  0.4143  0.5213
16993TIP3    H172394   4.760   5.585  14.998  0.2463  0.2862  1.2965
16993TIP3    H272395   4.892   5.587  15.074 -0.0886  0.6050  1.8789
16994TIP3   OH272396   6.588   2.753   4.077 -0.0505  0.4171  0.3202
16994TIP3    H172397   6.526   2.734   4.148 -1.3310 -1.4033 -1.1757
16994TIP3    H272398   6.674   2.738   4.116 -0.7544 -4.6275  0.6578
16995TIP3   OH272399   3.372   5.337  12.087 -0.4116 -0.4873 -0.0048
16995TIP3    H172400   3.364   5.243  12.072 -0.9649 -0.6299  1.1142
16995TIP3    H272401   3.355   5.349  12.180 -1.4900  0.8441 -0.3326
16996TIP3   OH272402   3.700   4.811   5.637  0.3415 -0.1745  0.2054
16996TIP3    H172403   3.744   4.758   5.704 -1.6186 -0.0432  1.6690
16996TIP3    H272404   3.679   4.750   5.567  1.6618 -0.4786  0.0394
16997TIP3   OH272405   4.170   2.292  11.969  0.1731 -0.6190 -0.2958
16997TIP3    H172406   4.256   2.294  11.926  0.6183 -2.0171  0.4821
16997TIP3    H272407   4.159   2.382  12.002  1.5122 -0.5010 -0.0739
16998TIP3   OH272408   0.369   3.411  16.399  0.5924  0.7177  0.0614
16998TIP3    H172409   0.418   3.349  16.453  2.5429  2.0599 -0.0387
16998TIP3    H272410   0.336   3.359  16.326  3.0084 -0.0962 -0.5611
16999TIP3   OH272411   0.347   2.777   3.802  0.2822  0.2973 -0.0703
16999TIP3    H172412   0.324   2.823   3.722 -1.7477  1.3118  1.0043
16999TIP3    H272413   0.335   2.843   3.871  1.1146 -0.7890  1.1526
17000TIP3   OH272414   6.283   5.642   6.296  0.3217  0.0485  0.6350
17000TIP3    H172415   6.369   5.612   6.266  1.4202  2.6308  0.8983
17000TIP3    H272416   6.261   5.714   6.238 -2.1702 -1.1321  0.0037
17001TIP3   OH272417   0.178   4.317  15.003  0.3104 -0.1295 -0.3300
17001TIP3    H172418   0.256   4.271  15.033 -0.5420 -1.1698  0.3742
17001TIP3    H272419   0.209   4.375  14.933  1.3973 -2.0170 -1.5024
17002TIP3   OH272420   6.340   0.332  14.864  0.1528 -0.0423 -0.1619
17002TIP3    H172421   6.330   0.309  14.956 -0.1871  1.1743  0.1246
17002TIP3    H272422   6.395   0.411  14.865 -1.2886  1.0181 -0.8546
17003TIP3   OH272423   1.845   0.171  11.731 -0.4522  0.1385 -0.4964
17003TIP3    H172424   1.908   0.194  11.663  0.2807 -1.9137 -0.5890
17003TIP3    H272425   1.761   0.166  11.686  0.2364 -2.6533 -1.7004
17004TIP3   OH272426   5.106   5.492  16.642 -0.2521  0.1834 -0.2971
17004TIP3    H172427   5.123   5.400  16.658 -0.0281 -0.1464 -2.1902
17004TIP3    H272428   5.011   5.500  16.643 -0.2566  0.1322  0.7667
17005TIP3   OH272429   4.254   4.222  13.873  0.3594 -0.1128  0.3948
17005TIP3    H172430   4.286   4.132  13.878 -1.4216 -0.8079  0.1934
17005TIP3    H272431   4.251   4.252  13.964 -2.2683 -1.5350  0.8789
17006TIP3   OH272432   1.275   2.506  13.915 -0.6566 -0.0196 -0.2091
17006TIP3    H172433   1.229   2.590  13.914  0.3511  0.5601 -2.0079
17006TIP3    H272434   1.348   2.520  13.975 -0.1052  0.6372 -1.0109
17007TIP3   OH272435   1.752   4.905   0.404  0.0466 -0.7239  0.2259
17007TIP3    H172436   1.750   4.952   0.487 -0.2247 -0.9916  0.3740
17007TIP3    H272437   1.720   4.969   0.340 -0.9374 -0.8876  0.5296
17008TIP3   OH272438   1.369   4.223  11.449  0.2766  0.1961 -0.0226
17008TIP3    H172439   1.296   4.164  11.465  0.2515 -0.5624 -2.5645
17008TIP3    H272440   1.333   4.310  11.463 -0.4960 -0.2588  0.8880
17009TIP3   OH272441   5.308   4.170  11.318 -0.2293 -0.0429  0.3738
17009TIP3    H172442   5.239   4.129  11.266 -0.7395 -1.7786  2.2779
17009TIP3    H272443   5.264   4.242  11.364  0.4978  2.3722 -2.3652
17010TIP3   OH272444   0.678   1.812   0.677  0.8366 -0.9363 -0.2693
17010TIP3    H172445   0.728   1.753   0.733  1.8378 -0.8651 -1.0661
17010TIP3    H272446   0.606   1.841   0.732  0.9637 -2.0097  0.5049
17011TIP3   OH272447   5.029   3.273   2.125 -0.5934 -0.3899 -0.3475
17011TIP3    H172448   5.043   3.191   2.076  0.5937 -0.9521  0.8467
17011TIP3    H272449   5.046   3.249   2.216 -0.0202  1.2365  0.0063
17012TIP3   OH272450   5.863   2.053   3.380  0.1220 -0.0440  0.3353
17012TIP3    H172451   5.897   2.028   3.294 -2.3381 -0.0664 -0.7114
17012TIP3    H272452   5.865   1.972   3.431  0.1431 -0.4200 -0.2462
17013TIP3   OH272453   3.689   4.030  16.427  0.2675  0.8773 -0.5416
17013TIP3    H172454   3.621   3.989  16.480  0.4977 -0.4891 -1.2601
17013TIP3    H272455   3.643   4.093  16.372 -0.1952  1.0836  0.0758
17014TIP3   OH272456   6.694   6.557   5.364  0.0015 -0.2564  0.2240
17014TIP3    H172457   6.631   6.494   5.329  1.5042 -1.2056 -0.8766
17014TIP3    H272458   6.779   6.520   5.343  0.9936  0.3137  2.8837
17015TIP3   OH272459   2.046   5.900   1.134  0.2624  0.6547  0.6188
17015TIP3    H172460   2.092   5.977   1.100  0.8812  0.2472  0.5143
17015TIP3    H272461   2.104   5.827   1.115 -0.5701  0.0801  0.2242
17016TIP3   OH272462   2.600   0.616  13.246  0.1724 -0.7420 -0.1830
17016TIP3    H172463   2.573   0.525  13.236 -1.5218 -0.2951  0.0488
17016TIP3    H272464   2.540   0.666  13.191  2.1017  0.1392 -1.5968
17017TIP3   OH272465   3.233   4.252  14.367  0.0127 -0.1562 -0.0265
17017TIP3    H172466   3.207   4.181  14.307  1.3393  0.4131 -1.3442
17017TIP3    H272467   3.176   4.325  14.343 -0.4705 -0.3724  0.4438
17018TIP3   OH272468   5.997   5.880  14.311  0.8139  0.1587 -0.7080
17018TIP3    H172469   5.998   5.930  14.393  1.3106  0.7666 -1.0762
17018TIP3    H272470   6.075   5.825  14.316 -0.0671 -1.0794 -0.0194
17019TIP3   OH272471   0.365   1.345   3.397  0.5240 -0.0774 -0.4850
17019TIP3    H172472   0.278   1.309   3.411 -0.2259  1.0888 -1.9208
17019TIP3    H272473   0.402   1.294   3.325  1.7753 -1.7190  1.2132
17020TIP3   OH272474   6.567   2.229  17.169 -0.2066  0.0696 -0.1969
17020TIP3    H172475   6.559   2.239  17.264  2.5924 -0.5645  0.2023
17020TIP3    H272476   6.655   2.193  17.156 -0.5909 -0.0899 -3.0351
17021TIP3   OH272477   1.923   3.006  15.721 -0.1817 -0.2612  0.2869
17021TIP3    H172478   2.019   3.007  15.728 -0.2250  0.0977  0.8407
17021TIP3    H272479   1.903   2.915  15.698  0.5544  0.4381 -4.0380
17022TIP3   OH272480   1.724   6.003   0.326  1.0457 -0.5023 -0.9495
17022TIP3    H172481   1.714   6.095   0.353 -0.3567 -0.8231 -0.2743
17022TIP3    H272482   1.745   6.008   0.233  3.0982  0.5545 -0.4738
17023TIP3   OH272483   5.937   1.804  14.185 -0.1439  0.0320 -0.1048
17023TIP3    H172484   5.878   1.803  14.109 -1.3548 -0.8887  0.8146
17023TIP3    H272485   6.009   1.861  14.158 -2.1464  2.4462 -0.7656
17024TIP3   OH272486   1.685   2.217  14.575  0.9129  0.6708 -0.2200
17024TIP3    H172487   1.743   2.193  14.503 -0.6567 -2.1407 -0.7151
17024TIP3    H272488   1.606   2.250  14.531  0.7597  1.0266  0.3140
17025TIP3   OH272489   0.319   5.085  14.008 -0.0445 -0.1598 -0.6145
17025TIP3    H172490   0.249   5.101  14.072 -1.0865 -1.3643 -1.3878
17025TIP3    H272491   0.277   5.100  13.923  0.7854 -0.3823 -1.0718
17026TIP3   OH272492   1.961   3.178   6.695  0.0982 -0.2277 -0.0837
17026TIP3    H172493   2.005   3.239   6.637  0.4555  0.3701  0.7895
17026TIP3    H272494   1.974   3.214   6.783 -0.0680 -1.3200  0.4150
17027TIP3   OH272495   1.263   0.367   2.531  0.5545  0.4747  0.1215
17027TIP3    H172496   1.213   0.370   2.613 -2.2385  1.1468 -1.4972
17027TIP3    H272497   1.272   0.273   2.512 -0.9855  0.3357 -0.0302
17028TIP3   OH272498   2.005   3.158  11.631  0.0041 -0.5889 -0.6188
17028TIP3    H172499   1.952   3.088  11.671  0.2081 -0.9964 -1.0536
17028TIP3    H272500   2.056   3.194  11.703 -0.5788 -0.4526 -0.2666
17029TIP3   OH272501   0.390   5.965  14.881 -0.5343  0.4953 -0.7985
17029TIP3    H172502   0.404   5.883  14.928  0.2335  1.0019 -0.1039
17029TIP3    H272503   0.302   5.957  14.844 -0.6709 -0.4246 -0.3024
17030TIP3   OH272504   5.987   5.477   6.746  0.7861 -0.0113 -0.4494
17030TIP3    H172505   5.921   5.510   6.808  1.6724 -0.5900  0.8465
17030TIP3    H272506   5.976   5.382   6.748  1.2762 -0.0731 -0.6681
17031TIP3   OH272507   6.170   1.769  16.600 -0.4503  0.1077  0.2144
17031TIP3    H172508   6.106   1.826  16.644 -0.7915  0.0135 -0.1646
17031TIP3    H272509   6.182   1.696  16.661 -1.2984 -0.2733 -0.0713
17032TIP3   OH272510   4.701   1.570   4.915  0.0216  0.4275  0.3664
17032TIP3    H172511   4.656   1.499   4.960 -1.1560  0.8543 -0.0959
17032TIP3    H272512   4.702   1.544   4.823  2.0896 -0.2707  0.5297
17033TIP3   OH272513   6.746   5.856   1.211 -0.5157 -0.0206  0.2714
17033TIP3    H172514   6.749   5.907   1.292  1.3657 -0.2604  0.3958
17033TIP3    H272515   6.708   5.916   1.146  1.2725  1.4533  0.5010
17034TIP3   OH272516   0.268   3.834  16.157 -0.1507 -0.1551 -0.0448
17034TIP3    H172517   0.268   3.781  16.077  0.9808  0.0998 -0.2297
17034TIP3    H272518   0.176   3.855  16.172 -0.2805  0.7899 -1.9458
17035TIP3   OH272519   1.495   6.429   0.977 -0.0890  0.0766  0.8191
17035TIP3    H172520   1.529   6.497   0.919  0.6251 -1.9057 -1.2237
17035TIP3    H272521   1.404   6.418   0.950  0.3956 -1.2307 -0.3945
17036TIP3   OH272522   6.482   1.966   3.063  0.3367 -0.4609 -0.0043
17036TIP3    H172523   6.570   2.004   3.055  0.8805 -1.5545  0.6014
17036TIP3    H272524   6.481   1.894   3.001  0.0952 -0.8494  0.4452
17037TIP3   OH272525   4.666   3.790  12.554 -0.7866  0.2053 -0.7331
17037TIP3    H172526   4.692   3.740  12.631 -1.7075 -0.7194 -1.0035
17037TIP3    H272527   4.630   3.725  12.493 -0.5881  0.9914 -1.7223
17038TIP3   OH272528   2.172   2.996   4.961 -0.0743 -0.2379  0.2760
17038TIP3    H172529   2.149   2.905   4.941  0.6457 -0.1010 -1.2842
17038TIP3    H272530   2.115   3.019   5.034 -1.6730 -1.3269 -0.5605
17039TIP3   OH272531   6.467   6.146   3.237  0.2566  0.4501  0.3732
17039TIP3    H172532   6.450   6.184   3.152  0.7653  0.6688  0.3656
17039TIP3    H272533   6.463   6.220   3.298 -0.4719  0.2390  0.5929
17040TIP3   OH272534   4.580   2.729  11.266 -0.0413  0.2799 -0.1232
17040TIP3    H172535   4.657   2.714  11.211 -0.1344 -0.8559  0.0337
17040TIP3    H272536   4.610   2.711  11.355 -0.6322 -0.7755 -0.1249
17041TIP3   OH272537   2.046   4.201  12.632 -0.3291  0.4031  0.9220
17041TIP3    H172538   2.015   4.148  12.559 -2.1913  2.5280  0.0614
17041TIP3    H272539   2.097   4.271  12.591  1.7984 -0.4130  2.0017
17042TIP3   OH272540   1.892   4.883   2.315 -0.1911 -0.0567  0.1033
17042TIP3    H172541   1.818   4.916   2.264 -0.2721  0.8403  0.7667
17042TIP3    H272542   1.970   4.907   2.265 -0.3469 -1.6940 -0.9887
17043TIP3   OH272543   2.411   0.749   4.181 -0.0585  0.5847 -0.1202
17043TIP3    H172544   2.434   0.765   4.272 -0.7114 -1.2501  0.4121
17043TIP3    H272545   2.479   0.690   4.149  0.9863  2.3374 -1.3066
17044TIP3   OH272546   2.056   1.533  12.152  0.1477 -0.2868 -0.5733
17044TIP3    H172547   2.128   1.486  12.194 -0.6814 -0.9378  0.1468
17044TIP3    H272548   2.073   1.522  12.058 -0.8198 -3.3894 -0.4816
17045TIP3   OH272549   2.181   3.837  15.004 -0.0927  0.3570 -0.0373
17045TIP3    H172550   2.223   3.878  15.080 -0.1889  0.2022  0.0996
17045TIP3    H272551   2.205   3.893  14.930 -1.3212  1.4341  0.3369
17046TIP3   OH272552   3.311   2.910   4.210  0.7267 -0.5651  0.3233
17046TIP3    H172553   3.369   2.858   4.155 -1.0311  0.6583 -2.9229
17046TIP3    H272554   3.325   3.000   4.181 -1.2835 -0.0276  0.8948
17047TIP3   OH272555   0.991   3.263   3.074  0.0500  0.7410 -0.3731
17047TIP3    H172556   0.905   3.243   3.036  0.3810  0.7432 -1.1282
17047TIP3    H272557   0.997   3.203   3.149  0.0706 -0.4496 -1.2827
17048TIP3   OH272558   1.377   2.627  13.381 -0.2343  0.3117  0.2334
17048TIP3    H172559   1.324   2.618  13.460  0.0384  0.6468  0.4628
17048TIP3    H272560   1.467   2.631  13.414 -0.2376  2.9550  0.1398
17049TIP3   OH272561   1.860   0.586  12.020 -0.1004 -0.1361 -0.5091
17049TIP3    H172562   1.866   0.620  12.110  1.1093  0.5019 -0.8148
17049TIP3    H272563   1.824   0.498  12.031  0.7312 -0.3611  0.6813
17050TIP3   OH272564   3.438   2.073   3.144 -0.3738  0.0014  0.3106
17050TIP3    H172565   3.368   2.009   3.160 -1.1260  1.3201  3.0092
17050TIP3    H272566   3.492   2.069   3.223  3.0079 -1.3010 -1.8981
17051TIP3   OH272567   4.805   0.747  12.053  0.1138 -0.2058  0.7257
17051TIP3    H172568   4.762   0.831  12.064 -2.3095 -1.3141  0.4448
17051TIP3    H272569   4.798   0.728  11.959 -0.7740 -1.3627  0.9929
17052TIP3   OH272570   4.477   5.847   5.922 -0.1544  0.5562  0.3861
17052TIP3    H172571   4.439   5.791   5.855 -1.1109  0.9166  0.6093
17052TIP3    H272572   4.515   5.786   5.985 -0.0892  0.1937  0.0011
17053TIP3   OH272573   3.751   5.799   5.258  0.1132  0.0066 -0.5759
17053TIP3    H172574   3.710   5.738   5.319 -1.6746  1.4536 -0.2504
17053TIP3    H272575   3.787   5.868   5.313  0.9370 -0.0553 -1.0186
17054TIP3   OH272576   6.286   0.848   0.135  0.3483 -0.0222 -0.0622
17054TIP3    H172577   6.282   0.936   0.097  0.7988 -0.0831 -0.2560
17054TIP3    H272578   6.202   0.838   0.179  0.9234  1.1340  1.3900
17055TIP3   OH272579   4.127   0.808   5.433 -0.6851  0.5345  0.3294
17055TIP3    H172580   4.172   0.867   5.372 -1.6135  0.7244 -0.1849
17055TIP3    H272581   4.062   0.763   5.379 -1.1474  0.2977  1.0753
17056TIP3   OH272582   1.513   6.175   0.446 -0.1467  0.2008  0.2109
17056TIP3    H172583   1.456   6.250   0.460  0.0818  0.2135  1.1643
17056TIP3    H272584   1.589   6.211   0.399 -0.8287  0.2130 -0.8998
17057TIP3   OH272585   2.579   6.494   3.891 -0.0466 -0.3510 -0.2268
17057TIP3    H172586   2.658   6.485   3.838 -0.0957  1.6762 -0.7532
17057TIP3    H272587   2.541   6.406   3.894  1.1667 -0.9587 -1.6426
17058TIP3   OH272588   1.342   1.049   2.142 -0.0689 -0.0351 -1.0495
17058TIP3    H172589   1.261   1.099   2.151 -0.3219 -0.6366  0.2413
17058TIP3    H272590   1.365   1.024   2.231  2.6067  1.7203 -1.1291
17059TIP3   OH272591   3.912   0.206   6.712  0.3069  0.3458 -0.2899
17059TIP3    H172592   3.979   0.224   6.646  1.2112 -0.8476  0.2582
17059TIP3    H272593   3.883   0.117   6.692  0.0211  0.2726  0.4334
17060TIP3   OH272594   0.340   3.168  16.873 -0.6409  0.3528  0.2276
17060TIP3    H172595   0.263   3.213  16.839 -1.3835  1.9028  3.5639
17060TIP3    H272596   0.317   3.076  16.872 -1.5258  0.5666 -1.1117
17061TIP3   OH272597   1.075   5.687  12.524 -0.0737 -0.1224 -0.2864
17061TIP3    H172598   1.129   5.760  12.495 -0.2076 -0.1169 -0.5245
17061TIP3    H272599   1.068   5.698  12.618  1.2876 -0.7591 -0.0833
17062TIP3   OH272600   6.575   6.569   3.744 -0.5451  0.0853 -0.2492
17062TIP3    H172601   6.660   6.572   3.787 -1.1952  0.4525  1.0410
17062TIP3    H272602   6.548   6.478   3.752  0.2036 -0.2978 -1.6755
17063TIP3   OH272603   3.457   2.803  15.951 -0.0766  0.5442 -0.0738
17063TIP3    H172604   3.416   2.872  15.899 -0.5844  2.1136  2.2334
17063TIP3    H272605   3.549   2.828  15.956  0.1955 -0.2076 -1.0773
17064TIP3   OH272606   1.753   0.629   3.577  0.2277 -0.3675  0.1068
17064TIP3    H172607   1.737   0.534   3.577  1.5550 -0.7410 -3.5792
17064TIP3    H272608   1.702   0.662   3.503  1.3301  1.4846  0.1178
17065TIP3   OH272609   5.168   0.222   0.811  0.1626  0.3552 -0.7877
17065TIP3    H172610   5.260   0.245   0.806  0.9419 -1.9021  1.0857
17065TIP3    H272611   5.146   0.192   0.723  1.2290  0.8470 -1.2373
17066TIP3   OH272612   2.601   6.768  11.856  0.1990 -0.4388 -0.3236
17066TIP3    H172613   2.639   6.741  11.773  0.1569 -0.6485 -0.2761
17066TIP3    H272614   2.518   6.719  11.862 -1.0281  1.3981 -1.2953
17067TIP3   OH272615   5.963   2.897   2.434  0.1653  0.2835  0.0551
17067TIP3    H172616   6.032   2.852   2.384  1.1354 -0.2940  1.8335
17067TIP3    H272617   5.989   2.989   2.433  0.8997  0.0961  0.5582
17068TIP3   OH272618   4.181   0.928  10.518  0.6440 -1.1021 -0.1123
17068TIP3    H172619   4.113   0.885  10.466  1.7466 -0.8306 -1.9089
17068TIP3    H272620   4.187   1.016  10.480  1.2037 -0.7409  0.7892
17069TIP3   OH272621   3.523   5.010   5.037  0.2660 -0.2395 -0.5659
17069TIP3    H172622   3.458   4.947   5.005 -0.9097  1.0873 -0.9075
17069TIP3    H272623   3.606   4.964   5.030 -0.7256 -2.4524  1.0259
17070TIP3   OH272624   5.139   1.529  12.028  0.5986 -0.3923 -0.3237
17070TIP3    H172625   5.054   1.552  12.064 -0.5358 -0.8949 -2.4900
17070TIP3    H272626   5.199   1.596  12.061 -0.6219 -0.0169  1.2174
17071TIP3   OH272627   4.039   0.908   3.839  0.0933 -0.3224  0.4800
17071TIP3    H172628   3.947   0.895   3.862 -0.0273  1.0269  0.8416
17071TIP3    H272629   4.037   0.933   3.746 -0.0189  0.6934  0.7390
17072TIP3   OH272630   3.605   0.591   3.036 -0.2241 -0.2231  0.3803
17072TIP3    H172631   3.565   0.535   3.103  0.9486 -1.3932  0.1498
17072TIP3    H272632   3.698   0.572   3.041  0.1140  1.1085 -0.2997
17073TIP3   OH272633   5.711   1.894   3.911  0.1238 -0.3512 -0.0089
17073TIP3    H172634   5.678   1.826   3.851 -0.8936 -1.1115  1.3522
17073TIP3    H272635   5.713   1.851   3.997  0.0852  1.1548  0.7798
17074TIP3   OH272636   5.349   3.488  13.579 -0.4042  0.6241  0.5946
17074TIP3    H172637   5.350   3.553  13.509  0.0221 -1.3658 -1.3518
17074TIP3    H272638   5.257   3.463  13.588 -0.2911 -0.1560 -0.3062
17075TIP3   OH272639   2.168   5.280   3.992 -0.1810  0.0374 -0.2201
17075TIP3    H172640   2.161   5.248   3.902  0.0320 -1.3172  0.2218
17075TIP3    H272641   2.143   5.205   4.046  0.0008  0.7340  0.8631
17076TIP3   OH272642   4.233   2.344  14.708  0.4662 -0.0665  0.0499
17076TIP3    H172643   4.146   2.333  14.670  0.2776  2.0471 -0.2619
17076TIP3    H272644   4.257   2.257  14.739 -0.2585 -1.4854 -2.9857
17077TIP3   OH272645   3.371   5.738   5.601 -0.2332  0.3317  0.8495
17077TIP3    H172646   3.434   5.753   5.531 -0.9519 -1.3315 -0.2179
17077TIP3    H272647   3.422   5.699   5.672  0.0764 -0.3294  0.2725
17078TIP3   OH272648   3.143   0.570  16.101 -0.2670 -0.3370  0.2468
17078TIP3    H172649   3.208   0.526  16.047 -0.2177  2.7337 -2.5551
17078TIP3    H272650   3.177   0.566  16.190  1.9773 -1.7939 -0.6123
17079TIP3   OH272651   5.199   3.114  16.795  0.1719  0.2882  0.7376
17079TIP3    H172652   5.153   3.179  16.743 -0.3694 -0.5369  0.1612
17079TIP3    H272653   5.131   3.076  16.852  0.1499 -0.8110  0.0101
17080TIP3   OH272654   1.353   5.843  16.360 -0.4143  0.6917 -0.4053
17080TIP3    H172655   1.378   5.895  16.284 -2.1227  0.4026 -1.2253
17080TIP3    H272656   1.257   5.850  16.364 -0.4548 -0.1518  1.1030
17081TIP3   OH272657   0.581   0.074  12.686 -0.0963  0.4733  0.5881
17081TIP3    H172658   0.673   0.048  12.684  0.3674  2.0531 -0.4148
17081TIP3    H272659   0.548   0.041  12.769  1.7542  1.0945  1.6144
17082TIP3   OH272660   4.949   2.763   1.289  0.4100  0.3644 -0.0462
17082TIP3    H172661   4.915   2.743   1.377 -0.1171 -0.7118 -0.4815
17082TIP3    H272662   4.948   2.679   1.243 -1.1776  1.2233 -1.7004
17083TIP3   OH272663   0.803   5.427  16.285 -0.4801 -0.3285 -0.0421
17083TIP3    H172664   0.761   5.489  16.226  0.2722 -0.3690 -0.6311
17083TIP3    H272665   0.773   5.454  16.372 -3.0233 -1.3553 -0.5060
17084TIP3   OH272666   2.849   4.605   5.370  0.6826 -0.1271  0.1369
17084TIP3    H172667   2.810   4.629   5.286 -0.0999 -0.9756  0.2274
17084TIP3    H272668   2.902   4.680   5.395  0.8084  0.1949 -1.0460
17085TIP3   OH272669   4.852   4.269  12.758  0.3022  0.2717 -0.4603
17085TIP3    H172670   4.920   4.322  12.801  2.1181 -1.2566 -1.3353
17085TIP3    H272671   4.891   4.242  12.675 -1.3123 -0.8385 -0.9087
17086TIP3   OH272672   4.198   0.230   3.764 -0.3307 -0.3080 -0.1840
17086TIP3    H172673   4.277   0.197   3.805 -0.4939 -2.1686 -1.2557
17086TIP3    H272674   4.146   0.266   3.836  1.0056 -0.0279  0.6608
17087TIP3   OH272675   4.387   0.455  11.377 -0.6709 -0.6306 -0.0664
17087TIP3    H172676   4.308   0.403  11.367 -0.2482 -1.0579 -1.5096
17087TIP3    H272677   4.453   0.394  11.411 -0.7447 -0.4802  0.3504
17088TIP3   OH272678   1.914   4.606  13.347  0.5137  0.4288  0.3003
17088TIP3    H172679   1.849   4.537  13.333 -0.0412  0.7664  1.1154
17088TIP3    H272680   1.964   4.609  13.266 -0.3645  0.0238 -0.2706
17089TIP3   OH272681   6.286   6.566   3.471 -0.2958  0.4755 -0.4433
17089TIP3    H172682   6.325   6.547   3.556  2.4776 -1.0016 -1.8973
17089TIP3    H272683   6.241   6.650   3.483  1.5408  1.2195  2.0170
17090TIP3   OH272684   3.756   4.985  14.643  0.9596  0.1458  0.4115
17090TIP3    H172685   3.684   4.939  14.599  1.2083 -0.4549  0.6120
17090TIP3    H272686   3.740   4.970  14.736  0.7908  0.8619  0.4994
17091TIP3   OH272687   2.592   4.910  16.540  0.7489 -0.0807  0.4056
17091TIP3    H172688   2.581   4.918  16.445  1.3595  3.3665  0.4922
17091TIP3    H272689   2.509   4.873  16.570  0.8334 -2.0048 -1.4857
17092TIP3   OH272690   3.748   4.791  13.264 -0.1865  0.3374 -0.3293
17092TIP3    H172691   3.715   4.827  13.182  0.4527  1.4940 -0.1084
17092TIP3    H272692   3.729   4.698  13.259 -0.1769  0.3914 -1.7743
17093TIP3   OH272693   1.475   2.125  11.219 -0.0808 -0.4821  0.1064
17093TIP3    H172694   1.414   2.136  11.146  0.9489 -0.8437 -0.8435
17093TIP3    H272695   1.551   2.080  11.180  0.5611 -0.5310  1.3644
17094TIP3   OH272696   2.311   5.957   4.558  0.2792 -0.5294 -0.1093
17094TIP3    H172697   2.392   5.984   4.515 -0.2301  1.7826  0.2161
17094TIP3    H272698   2.329   5.969   4.652  0.1062 -1.6574  0.0738
17095TIP3   OH272699   3.033   4.882   1.938  0.6397 -0.2250  0.4673
17095TIP3    H172700   3.049   4.789   1.949  1.2386 -0.3693 -1.2971
17095TIP3    H272701   2.962   4.888   1.875  0.8386  0.5135  0.2977
17096TIP3   OH272702   3.472   0.641  17.257  0.4346  0.0361 -0.1931
17096TIP3    H172703   3.537   0.581  17.220  1.0299  0.4558  0.1539
17096TIP3    H272704   3.391   0.619  17.211  0.9372 -0.1360 -1.0369
17097TIP3   OH272705   1.587   2.213   4.776 -0.2637  0.0458  0.0254
17097TIP3    H172706   1.596   2.231   4.869  0.6768 -0.1611 -0.0161
17097TIP3    H272707   1.663   2.256   4.736 -1.7907  2.0595 -0.9295
17098TIP3   OH272708   1.490   2.886  14.987  0.1706  0.0243  0.3776
17098TIP3    H172709   1.461   2.904  15.076  0.0395  0.5340  0.2328
17098TIP3    H272710   1.550   2.812  14.996 -0.4962 -0.4829  0.7897
17099TIP3   OH272711   5.781   5.012   6.756 -0.1941  0.5908  0.2625
17099TIP3    H172712   5.715   4.981   6.818 -0.3927 -0.6520 -0.5134
17099TIP3    H272713   5.863   5.013   6.806 -0.3663 -0.3076  0.5862
17100TIP3   OH272714   0.700   1.506  11.274  0.0062  0.4963  0.1155
17100TIP3    H172715   0.735   1.580  11.224 -0.1559  1.3072  1.1583
17100TIP3    H272716   0.696   1.434  11.211  1.9794  0.8297 -0.4482
17101TIP3   OH272717   3.291   4.220  12.533 -0.0983  0.1283  0.7861
17101TIP3    H172718   3.209   4.229  12.484  0.3042 -0.3674  0.0062
17101TIP3    H272719   3.354   4.273  12.484 -0.0612  0.9227  1.6645
17102TIP3   OH272720   5.149   5.726   0.481  0.1342 -0.0533 -0.4698
17102TIP3    H172721   5.242   5.721   0.504  0.0692  2.1101  0.4971
17102TIP3    H272722   5.121   5.635   0.474  1.8542 -0.7801  1.2512
17103TIP3   OH272723   0.443   0.807   3.550 -0.3261 -0.0452  0.7818
17103TIP3    H172724   0.376   0.760   3.599 -2.5101  1.9380 -0.1120
17103TIP3    H272725   0.399   0.836   3.470  1.8594  0.6254 -0.2853
17104TIP3   OH272726   2.449   5.648   4.435  0.5906 -0.1468 -0.3643
17104TIP3    H172727   2.446   5.662   4.340  0.5649  0.2723 -0.3037
17104TIP3    H272728   2.540   5.661   4.458  0.8888 -1.7273 -0.5440
17105TIP3   OH272729   6.078   3.388   1.848 -0.5265  0.7119  0.5156
17105TIP3    H172730   6.064   3.351   1.935 -1.0392  0.0697  0.1682
17105TIP3    H272731   6.013   3.457   1.840 -4.1284 -2.4820 -1.2320
17106TIP3   OH272732   0.387   3.508   1.649 -0.1328  0.4393 -0.5907
17106TIP3    H172733   0.466   3.546   1.688  0.1021 -0.4976 -0.1369
17106TIP3    H272734   0.418   3.434   1.597 -0.7996 -0.6818  0.5435
17107TIP3   OH272735   1.144   4.147  12.610 -0.6790  0.3780 -0.2928
17107TIP3    H172736   1.086   4.087  12.563 -1.4575  0.3016  0.7324
17107TIP3    H272737   1.176   4.207  12.543 -1.3142 -0.0759 -1.0166
17108TIP3   OH272738   3.416   4.215   2.165 -0.0163  0.4513 -0.2811
17108TIP3    H172739   3.490   4.252   2.214 -0.1888  0.3183  0.0772
17108TIP3    H272740   3.339   4.252   2.207 -0.1472  1.5686 -1.4071
17109TIP3   OH272741   6.410   6.114   3.962  0.2303  0.1254 -0.2172
17109TIP3    H172742   6.384   6.200   3.996  0.4378  0.1652 -0.1575
17109TIP3    H272743   6.439   6.065   4.039 -1.1161 -0.4512 -0.0607
17110TIP3   OH272744   3.085   1.746   4.299  0.4769 -0.2986  0.1470
17110TIP3    H172745   3.037   1.772   4.221  2.3871 -0.0583 -1.0177
17110TIP3    H272746   3.051   1.803   4.368 -0.4525  0.2829 -0.7564
17111TIP3   OH272747   3.981   0.831  11.712  0.3149  0.1800  0.0237
17111TIP3    H172748   3.892   0.851  11.739  0.4210  0.8484 -0.1135
17111TIP3    H272749   3.971   0.774  11.635 -0.0550  2.9002 -2.0650
17112TIP3   OH272750   2.417   6.243  15.068  0.9005 -0.3920 -0.0929
17112TIP3    H172751   2.439   6.223  15.159 -3.2258  0.0092  1.2120
17112TIP3    H272752   2.433   6.338  15.060  3.0656 -0.7299 -0.5106
17113TIP3   OH272753   2.694   0.130  15.021  0.3372  0.0454  0.6044
17113TIP3    H172754   2.773   0.080  15.042 -0.0589 -0.6613  0.4498
17113TIP3    H272755   2.672   0.104  14.932  0.4036  0.8856  0.3372
17114TIP3   OH272756   6.651   6.255   5.916  0.2952 -0.9268 -0.1563
17114TIP3    H172757   6.585   6.239   5.984  0.2490 -0.9859 -0.2145
17114TIP3    H272758   6.705   6.176   5.917  0.8487 -0.5530  0.4314
17115TIP3   OH272759   0.836   4.074   4.661 -0.1240 -0.0736  0.3214
17115TIP3    H172760   0.761   4.102   4.609 -0.8077  0.2844  1.4542
17115TIP3    H272761   0.900   4.045   4.597 -1.0457  0.0631 -0.6993
17116TIP3   OH272762   6.277   0.604  15.049 -0.3904 -0.1028  0.0125
17116TIP3    H172763   6.238   0.517  15.058  0.3082 -0.3732  0.4917
17116TIP3    H272764   6.369   0.587  15.030 -0.2404  0.5339  0.1544
17117TIP3   OH272765   5.104   2.556  14.125 -0.1810  0.5648  0.2186
17117TIP3    H172766   5.044   2.543  14.051 -0.4964  1.0452  0.3832
17117TIP3    H272767   5.062   2.625  14.177 -0.4157 -0.3980  1.3324
17118TIP3   OH272768   5.493   4.673  10.686 -0.5606 -0.0837  0.1279
17118TIP3    H172769   5.533   4.741  10.632 -1.0055 -0.0690 -0.1929
17118TIP3    H272770   5.564   4.640  10.741 -0.2676  0.4098  0.0501
17119TIP3   OH272771   3.705   6.057   0.813  0.9967  0.1359  0.1678
17119TIP3    H172772   3.622   6.103   0.823  0.8516 -0.0477 -0.1457
17119TIP3    H272773   3.771   6.126   0.812  1.0535  0.1771  2.3069
17120TIP3   OH272774   5.293   4.704   5.629 -0.2199  0.2167 -0.2498
17120TIP3    H172775   5.211   4.743   5.660 -0.1006  0.2683 -0.0006
17120TIP3    H272776   5.296   4.619   5.673  0.0574  0.3809  0.0521
17121TIP3   OH272777   1.466   3.423  11.894 -0.4632  0.3468  0.3678
17121TIP3    H172778   1.529   3.485  11.859 -1.6853  1.9030  0.7910
17121TIP3    H272779   1.496   3.405  11.983  1.7046 -2.3021 -0.7665
17122TIP3   OH272780   2.542   3.774  12.651  0.4135 -0.0790 -0.2672
17122TIP3    H172781   2.499   3.718  12.716 -0.0067 -0.1102 -0.5686
17122TIP3    H272782   2.616   3.812  12.698  1.1073 -1.4128 -0.2587
17123TIP3   OH272783   5.819   0.176  14.040 -0.0799 -0.3841  0.3409
17123TIP3    H172784   5.824   0.218  14.126  0.8864  0.1954  0.0160
17123TIP3    H272785   5.840   0.084  14.058  1.3258 -0.0470  0.5838
17124TIP3   OH272786   0.992   3.503   1.166 -0.1303 -0.2995 -0.0296
17124TIP3    H172787   1.023   3.563   1.098 -1.3001 -0.5037 -0.7747
17124TIP3    H272788   1.046   3.522   1.242  1.2528 -0.0975 -1.0296
17125TIP3   OH272789   0.689   3.666   1.257 -0.6376 -0.4066  0.0022
17125TIP3    H172790   0.762   3.728   1.255 -1.6080  0.7721  0.0579
17125TIP3    H272791   0.713   3.599   1.193  0.1668  0.3468 -0.5116
17126TIP3   OH272792   4.244   4.971  16.316 -0.1820 -0.1391 -0.2869
17126TIP3    H172793   4.185   4.917  16.264 -0.9816  0.9002 -0.5053
17126TIP3    H272794   4.232   4.940  16.406 -0.0355 -0.8481 -0.5120
17127TIP3   OH272795   5.937   2.093  17.011 -0.1827 -0.0500  0.0787
17127TIP3    H172796   5.929   2.012  17.061  1.9606  0.5050  1.4638
17127TIP3    H272797   5.890   2.159  17.062  0.6507  0.1789  0.5769
17128TIP3   OH272798   6.065   4.304   1.790  0.0783  0.1670 -0.6524
17128TIP3    H172799   6.022   4.285   1.706 -0.4796 -0.0003 -0.3416
17128TIP3    H272800   6.151   4.264   1.782 -0.4340 -1.0051 -0.6810
17129TIP3   OH272801   6.365   3.585  11.766 -0.1161  0.3950  0.2844
17129TIP3    H172802   6.410   3.623  11.691  0.4753  2.4720  1.5980
17129TIP3    H272803   6.433   3.537  11.813 -0.2178  0.0899  0.1224
17130TIP3   OH272804   2.528   5.258   3.046 -0.5931  0.3611  0.0951
17130TIP3    H172805   2.472   5.328   3.079 -1.3948 -0.5276  0.6941
17130TIP3    H272806   2.500   5.180   3.094  0.9991 -0.1733  0.2290
17131TIP3   OH272807   3.473   4.347   5.751  0.1344  0.5876 -0.4300
17131TIP3    H172808   3.409   4.408   5.714 -1.6186 -1.2766 -0.6408
17131TIP3    H272809   3.464   4.359   5.846  1.6758  2.4356 -0.4649
17132TIP3   OH272810   5.283   0.162   4.215 -0.2762 -0.3328 -0.7645
17132TIP3    H172811   5.207   0.198   4.260 -0.5613 -0.3555 -1.2265
17132TIP3    H272812   5.306   0.084   4.265  0.4817  0.5807  0.3817
17133TIP3   OH272813   4.960   3.041  16.926 -0.1523 -0.0579 -0.0842
17133TIP3    H172814   4.899   3.104  16.964 -0.1086 -0.2620  0.3264
17133TIP3    H272815   4.904   2.973  16.887 -0.1927 -0.2966  0.3792
17134TIP3   OH272816   3.616   6.259   4.313 -0.3168 -0.1498  0.9884
17134TIP3    H172817   3.657   6.295   4.392  2.3842  0.5334 -0.6047
17134TIP3    H272818   3.632   6.165   4.318  0.2483 -0.0520  1.0491
17135TIP3   OH272819   5.511   6.655   2.329  0.0036  0.3998  0.4492
17135TIP3    H172820   5.506   6.596   2.254  2.4931 -2.3263  2.2478
17135TIP3    H272821   5.464   6.609   2.399 -3.3515  3.4111  0.5019
17136TIP3   OH272822   2.199   3.318   5.395  0.2067  0.5726  0.1785
17136TIP3    H172823   2.268   3.258   5.421  0.6361  1.4483  1.1552
17136TIP3    H272824   2.241   3.379   5.334 -0.2017 -0.0331 -0.7338
17137TIP3   OH272825   0.647   1.671   2.133 -0.1152  0.5166  0.0384
17137TIP3    H172826   0.734   1.648   2.101 -0.2036 -0.1446  0.2612
17137TIP3    H272827   0.587   1.622   2.076 -0.2788 -0.4842  1.0356
17138TIP3   OH272828   5.113   0.388   2.946 -0.5130 -0.2127 -0.1306
17138TIP3    H172829   5.182   0.328   2.915 -0.9698 -0.6641 -0.2872
17138TIP3    H272830   5.124   0.390   3.041 -0.5296 -0.6009 -0.1163
17139TIP3   OH272831   5.141   2.795  13.285  0.0601  0.2901 -0.1748
17139TIP3    H172832   5.201   2.859  13.247  0.6968  0.2283  0.6858
17139TIP3    H272833   5.055   2.817  13.249  0.5740  0.4820 -1.2996
17140TIP3   OH272834   3.864   3.791   1.929  0.1381  0.1731 -0.4637
17140TIP3    H172835   3.834   3.742   2.006 -0.9274 -2.0696 -2.1874
17140TIP3    H272836   3.874   3.881   1.960 -0.3059 -0.6395  2.2618
17141TIP3   OH272837   6.067   6.280  13.247  0.1822  0.0632  0.2908
17141TIP3    H172838   6.045   6.347  13.183 -0.0371  0.1941  0.5031
17141TIP3    H272839   6.071   6.199  13.197  0.6219  0.2575 -0.0005
17142TIP3   OH272840   0.631   0.656   1.277  0.1066  0.2403  0.2366
17142TIP3    H172841   0.594   0.723   1.220  2.2865  1.5443  0.2389
17142TIP3    H272842   0.633   0.577   1.223 -0.3289  0.7627 -0.5601
17143TIP3   OH272843   6.720   2.326  15.722 -0.1769  0.1632 -0.6731
17143TIP3    H172844   6.767   2.270  15.784  0.2818  0.3704 -0.8287
17143TIP3    H272845   6.671   2.265  15.667 -0.9913 -0.0054  0.2080
17144TIP3   OH272846   5.568   4.410  14.556 -0.2864  0.6814  0.0156
17144TIP3    H172847   5.610   4.456  14.483 -1.7288  2.3822  0.1848
17144TIP3    H272848   5.486   4.457  14.570 -0.3373  0.0233  2.3510
17145TIP3   OH272849   6.436   1.660  11.250  0.0628 -0.0548  0.0150
17145TIP3    H172850   6.456   1.633  11.339 -3.8774  1.7503  1.6546
17145TIP3    H272851   6.372   1.596  11.219 -0.5548  0.7977 -0.5105
17146TIP3   OH272852   0.903   1.316   2.543  0.4696  0.1683 -0.9806
17146TIP3    H172853   0.893   1.338   2.635 -0.8523 -1.1031 -0.7874
17146TIP3    H272854   0.814   1.298   2.512  1.0696 -1.3504 -1.9829
17147TIP3   OH272855   2.531   4.996  13.970 -0.6226  0.1743  0.0256
17147TIP3    H172856   2.606   4.944  13.999 -0.6793  0.7221  1.1934
17147TIP3    H272857   2.542   5.001  13.875  1.7622  1.6459  0.2880
17148TIP3   OH272858   2.443   4.364   2.370  0.2001 -0.0301 -0.4486
17148TIP3    H172859   2.452   4.311   2.291 -1.0034 -0.7484 -0.1368
17148TIP3    H272860   2.418   4.301   2.438 -0.3686  0.8087  0.1370
17149TIP3   OH272861   2.659   1.796   4.229 -0.3951  0.2133 -0.0169
17149TIP3    H172862   2.736   1.806   4.173  2.2943  0.8675  3.4368
17149TIP3    H272863   2.595   1.857   4.193  1.4267  1.1190 -1.9145
17150TIP3   OH272864   5.484   3.781   5.720  0.0231  0.2647 -0.0888
17150TIP3    H172865   5.557   3.758   5.778 -0.3557  0.5753  0.5198
17150TIP3    H272866   5.458   3.698   5.679 -0.5051 -0.1833  1.1195
17151TIP3   OH272867   0.887   4.907   2.681  0.2166  0.0803  0.3510
17151TIP3    H172868   0.841   4.834   2.722  0.9761 -0.0219  1.0593
17151TIP3    H272869   0.954   4.865   2.627 -0.7020  0.2177 -0.9359
17152TIP3   OH272870   3.652   5.735   6.033 -0.3338 -0.5081 -0.0734
17152TIP3    H172871   3.708   5.678   5.980  1.0572  0.2989  0.4867
17152TIP3    H272872   3.697   5.743   6.116 -1.5445 -0.2136  0.5749
17153TIP3   OH272873   2.522   3.471   0.790  0.7986 -0.6648 -0.2813
17153TIP3    H172874   2.602   3.420   0.774  1.6330  0.7207 -0.6631
17153TIP3    H272875   2.528   3.496   0.883  1.1705  0.0040 -0.4758
17154TIP3   OH272876   1.517   0.722  12.687  0.2145  0.1407  0.0040
17154TIP3    H172877   1.560   0.638  12.701  2.0281  1.3251  2.2692
17154TIP3    H272878   1.570   0.785  12.737 -3.3666  1.9938  1.8333
17155TIP3   OH272879   2.510   0.498   1.354  0.3570 -0.4005 -0.2582
17155TIP3    H172880   2.432   0.515   1.406  1.4468  0.2635  1.2660
17155TIP3    H272881   2.478   0.480   1.266 -1.5353 -0.8974  0.4865
17156TIP3   OH272882   2.403   2.963  14.732  0.2137 -0.5268 -0.1699
17156TIP3    H172883   2.457   3.034  14.697 -0.0545 -0.4382 -0.4046
17156TIP3    H272884   2.331   2.954  14.670  0.6344 -1.4987 -0.5356
17157TIP3   OH272885   2.894   4.259   4.693 -0.0530  0.2521  0.1145
17157TIP3    H172886   2.815   4.314   4.694 -1.1711 -1.3066  0.4173
17157TIP3    H272887   2.882   4.202   4.618  1.5444  0.9822 -0.7521
17158TIP3   OH272888   0.090   4.167  13.617 -0.1422  0.5808 -0.0538
17158TIP3    H172889   0.131   4.249  13.643  1.6067 -1.1231  3.1786
17158TIP3    H272890   0.059   4.128  13.699 -0.6612 -2.1218 -1.4024
17159TIP3   OH272891   2.961   4.882  10.700 -0.5960  0.1386 -0.5056
17159TIP3    H172892   2.997   4.914  10.783 -0.2308 -0.9007 -0.2517
17159TIP3    H272893   3.033   4.889  10.638 -0.3269 -0.7463 -0.3031
17160TIP3   OH272894   5.918   1.407  16.546 -0.0134  0.0330 -0.3626
17160TIP3    H172895   5.948   1.489  16.508 -1.5151  0.1646 -1.3600
17160TIP3    H272896   5.953   1.339  16.488  1.0386 -0.0566  0.3368
17161TIP3   OH272897   2.077   5.924   1.987 -0.0620 -0.0160  0.6182
17161TIP3    H172898   2.170   5.928   2.010  0.2618  2.0599 -0.7084
17161TIP3    H272899   2.076   5.932   1.891 -1.5860 -0.8271  0.5359
17162TIP3   OH272900   4.092   1.169   1.394 -0.1971 -0.2056  0.0203
17162TIP3    H172901   4.058   1.084   1.421  1.5486 -0.3313  2.1374
17162TIP3    H272902   4.080   1.225   1.472  1.0973  0.7051 -0.4005
17163TIP3   OH272903   0.890   3.443  12.469 -0.3132 -0.0468  0.1100
17163TIP3    H172904   0.960   3.507  12.482  0.2363 -0.9150  1.5960
17163TIP3    H272905   0.862   3.420  12.557 -1.5588 -0.7227 -0.4399
17164TIP3   OH272906   3.530   0.904   4.481 -0.2007  0.8591 -0.3168
17164TIP3    H172907   3.568   0.990   4.499 -0.6349  0.9583  0.1669
17164TIP3    H272908   3.441   0.911   4.515  0.4308 -0.5099  1.7958
17165TIP3   OH272909   4.386   4.290   5.366 -0.5879 -0.3389 -0.4687
17165TIP3    H172910   4.383   4.336   5.282 -0.1467 -2.4530 -1.7046
17165TIP3    H272911   4.387   4.198   5.343  0.4938 -0.9788  1.8452
17166TIP3   OH272912   4.189   2.144   1.876  0.9325  0.2504 -0.0515
17166TIP3    H172913   4.246   2.205   1.829  1.4698  0.3586  0.7310
17166TIP3    H272914   4.189   2.176   1.966  0.5145 -0.3989  0.1799
17167TIP3   OH272915   1.605   0.642   6.273  0.3947  0.2513  0.0152
17167TIP3    H172916   1.543   0.711   6.297  1.1635  1.2995 -0.9040
17167TIP3    H272917   1.554   0.581   6.221  0.3112  1.6290 -1.6097
17168TIP3   OH272918   2.891   1.964   5.581  0.4465 -0.0587 -0.1271
17168TIP3    H172919   2.822   2.031   5.574  0.3274 -0.3035 -1.5296
17168TIP3    H272920   2.972   2.014   5.590  0.1826  0.2347  0.8101
17169TIP3   OH272921   3.248   2.334   0.365 -0.0275 -0.8757 -0.5688
17169TIP3    H172922   3.303   2.281   0.422  1.0553 -1.0144 -1.7087
17169TIP3    H272923   3.159   2.319   0.396  0.4357 -1.9205  0.2799
17170TIP3   OH272924   0.998   6.779   2.610  0.0019 -1.2377  0.4442
17170TIP3    H172925   0.982   6.684   2.605 -2.2970 -0.9191  0.6720
17170TIP3    H272926   1.007   6.796   2.704 -2.1218 -0.9220  0.6321
17171TIP3   OH272927   0.671   6.465  13.178  0.1784 -0.4563 -0.2076
17171TIP3    H172928   0.595   6.406  13.181  0.2454 -0.5567 -0.4585
17171TIP3    H272929   0.673   6.506  13.264 -0.5018 -0.0289 -0.3864
17172TIP3   OH272930   2.039   2.653  11.836 -0.0860 -0.3011  0.0672
17172TIP3    H172931   2.077   2.737  11.861 -0.2391  0.1456 -1.1425
17172TIP3    H272932   2.074   2.635  11.749 -0.0264 -1.5155  0.3178
17173TIP3   OH272933   0.616   3.189  13.028 -0.0343  0.1850 -0.0459
17173TIP3    H172934   0.690   3.164  13.082 -0.4285 -1.7887 -0.3375
17173TIP3    H272935   0.552   3.118  13.040 -1.2624  1.0816 -0.9470
17174TIP3   OH272936   4.641   2.113   2.502 -0.4729 -0.0824 -0.5179
17174TIP3    H172937   4.592   2.043   2.460 -0.3745  0.5753 -1.7800
17174TIP3    H272938   4.693   2.069   2.569 -0.2723 -1.2517 -1.4030
17175TIP3   OH272939   5.728   1.060   2.264  0.0939 -0.3807 -0.0196
17175TIP3    H172940   5.779   1.047   2.344 -0.4603  2.0632  0.8196
17175TIP3    H272941   5.782   1.117   2.209 -0.2606 -0.6228 -0.6328
17176TIP3   OH272942   1.912   2.257   5.176  0.0168 -0.2268 -0.3396
17176TIP3    H172943   1.862   2.333   5.206 -0.3467 -1.0040  1.1180
17176TIP3    H272944   2.003   2.283   5.184 -0.1021  0.0112  0.2754
17177TIP3   OH272945   2.123   6.179   3.179 -0.1372 -0.3191  0.3786
17177TIP3    H172946   2.081   6.227   3.251 -0.3995  0.9997 -0.6157
17177TIP3    H272947   2.211   6.161   3.212 -0.5048 -0.4480  1.3347
17178TIP3   OH272948   6.010   5.294   3.616  0.4333  0.2546  0.2844
17178TIP3    H172949   6.030   5.383   3.586  0.2821  0.0484 -0.4575
17178TIP3    H272950   6.047   5.290   3.704  1.4785  0.6745 -0.1162
17179TIP3   OH272951   5.998   4.181   3.411  0.4822  0.3007  0.6189
17179TIP3    H172952   6.028   4.244   3.345 -0.7126  0.1856 -0.0648
17179TIP3    H272953   6.046   4.205   3.490  0.7464  1.4753  0.1299
17180TIP3   OH272954   3.621   3.424  11.845  0.5261  0.5999  0.3395
17180TIP3    H172955   3.674   3.344  11.849 -0.5758 -0.2896 -1.5538
17180TIP3    H272956   3.629   3.463  11.932  0.6295 -1.8896  1.5105
17181TIP3   OH272957   0.971   0.551  14.976  0.2046 -0.5178 -0.1957
17181TIP3    H172958   1.021   0.631  14.993 -0.1158 -0.3489 -0.0219
17181TIP3    H272959   1.032   0.493  14.931  1.4486 -1.4087  2.4427
17182TIP3   OH272960   3.845   0.638   1.206  0.2859  0.2021  0.0216
17182TIP3    H172961   3.782   0.665   1.272  0.9136  0.1900  0.6424
17182TIP3    H272962   3.799   0.648   1.122 -0.5381  0.1531  0.4605
17183TIP3   OH272963   2.310   6.344   4.114  0.1965  0.5369  0.0910
17183TIP3    H172964   2.309   6.248   4.106 -0.8564  0.5528 -0.1721
17183TIP3    H272965   2.399   6.365   4.140 -0.0518 -0.6754  2.1316
17184TIP3   OH272966   1.112   1.141  13.448  0.0675  0.7025 -1.0268
17184TIP3    H172967   1.056   1.186  13.511  1.9151  1.0008  0.5120
17184TIP3    H272968   1.141   1.210  13.388 -0.0679  0.8232 -0.9546
17185TIP3   OH272969   4.032   5.523  11.477  0.5371  0.0296  0.1496
17185TIP3    H172970   4.014   5.437  11.514  0.0103 -1.4012 -3.0570
17185TIP3    H272971   3.949   5.571  11.483 -0.6554 -1.5337 -2.2873
17186TIP3   OH272972   5.760   0.771  15.439 -0.5840 -0.2214  0.2275
17186TIP3    H172973   5.692   0.705  15.443  0.5264 -1.4721 -0.7329
17186TIP3    H272974   5.755   0.806  15.350  1.1474 -1.6160 -0.4744
17187TIP3   OH272975   2.655   5.629   2.015  0.5428 -0.3430 -0.1502
17187TIP3    H172976   2.679   5.541   2.043 -0.4217 -0.8973 -0.9631
17187TIP3    H272977   2.685   5.686   2.085  2.6974 -1.1170 -0.3604
17188TIP3   OH272978   1.247   3.769   6.611 -0.3608  0.1802 -0.3390
17188TIP3    H172979   1.276   3.820   6.687 -0.2009  1.0384 -0.9599
17188TIP3    H272980   1.327   3.732   6.574 -0.5008 -0.7314  0.2441
17189TIP3   OH272981   5.098   2.746   0.986  0.3158 -0.1908 -0.1026
17189TIP3    H172982   5.072   2.689   1.058  1.9194  1.5343  1.9927
17189TIP3    H272983   5.180   2.709   0.954 -0.2852 -0.8339 -0.9271
17190TIP3   OH272984   6.737   5.386   4.572 -0.1226  0.1236 -0.2166
17190TIP3    H172985   6.738   5.371   4.477 -0.3012 -1.0216 -0.0521
17190TIP3    H272986   6.745   5.481   4.581 -1.9946  0.4514 -1.4301
17191TIP3   OH272987   3.020   2.943   6.634 -0.1243  0.4551 -0.1047
17191TIP3    H172988   3.111   2.914   6.639 -0.6556 -1.6784 -1.4274
17191TIP3    H272989   2.969   2.861   6.628 -2.1203  1.5835  0.3995
17192TIP3   OH272990   1.827   1.450   5.126  0.0283  0.3449 -0.3831
17192TIP3    H172991   1.895   1.430   5.062  0.8988 -1.3906  0.9850
17192TIP3    H272992   1.843   1.541   5.151  3.4543 -0.6160  1.6075
17193TIP3   OH272993   2.154   5.946   0.761 -0.4236 -0.4432  0.0149
17193TIP3    H172994   2.068   5.907   0.772 -1.5591  1.9476  0.2055
17193TIP3    H272995   2.180   5.973   0.849  0.2383 -0.5576 -0.1354
17194TIP3   OH272996   2.409   3.467  13.924  0.5423 -0.5387 -0.3067
17194TIP3    H172997   2.407   3.384  13.972 -1.6641 -0.3404  0.0315
17194TIP3    H272998   2.407   3.441  13.832 -2.5408 -0.9625 -0.2365
17195TIP3   OH272999   3.969   0.146  13.243 -0.5660  0.0103  0.2370
17195TIP3    H173000   3.914   0.224  13.253 -1.1492 -0.5281  1.3993
17195TIP3    H273001   4.051   0.179  13.206 -1.4202  0.9221 -0.8976
17196TIP3   OH273002   4.790   6.171  14.606  0.0529 -0.3930 -0.7735
17196TIP3    H173003   4.878   6.182  14.644  0.5432 -3.6419 -0.6365
17196TIP3    H273004   4.804   6.179  14.511  0.3673 -0.1281 -0.7057
17197TIP3   OH273005   1.100   2.995   3.640 -0.6751 -0.1530  0.4272
17197TIP3    H173006   1.078   3.024   3.728 -0.8372 -0.4350  0.4818
17197TIP3    H273007   1.033   2.930   3.619  0.7418 -1.9201  1.0611
17198TIP3   OH273008   5.167   5.593   2.387 -0.1768  0.2631 -0.3207
17198TIP3    H173009   5.092   5.645   2.415 -0.3179 -0.1126  0.0173
17198TIP3    H273010   5.242   5.635   2.428 -0.1679  0.8010 -0.8795
17199TIP3   OH273011   3.915   0.505  16.623  0.1772 -0.2369  0.3412
17199TIP3    H173012   3.936   0.510  16.717 -1.1009  1.9812  0.5874
17199TIP3    H273013   3.855   0.431  16.616 -2.3912  1.5002  1.9712
17200TIP3   OH273014   2.869   2.312   1.301  0.5315 -0.3241  0.5659
17200TIP3    H173015   2.961   2.285   1.301 -0.0620 -2.5308 -0.5230
17200TIP3    H273016   2.850   2.332   1.210  0.1772  1.2323  0.9483
17201TIP3   OH273017   6.009   6.210   1.743 -0.5498  0.1345  0.7586
17201TIP3    H173018   6.096   6.234   1.713 -0.4272 -1.2370 -0.1031
17201TIP3    H273019   6.023   6.175   1.831 -0.1372 -0.5071  0.4514
17202TIP3   OH273020   5.697   3.846  11.255 -0.1707 -0.0478 -0.1798
17202TIP3    H173021   5.745   3.860  11.174  0.9255 -0.9110  0.2953
17202TIP3    H273022   5.766   3.835  11.321 -1.0301 -1.2484  0.5344
17203TIP3   OH273023   6.489   1.947  16.666 -0.3551 -0.0210  0.5390
17203TIP3    H173024   6.403   1.980  16.692  0.7605  3.6300  0.1045
17203TIP3    H273025   6.502   1.978  16.577  0.7499 -2.0529 -0.0803
17204TIP3   OH273026   0.969   6.152   3.640  0.1168 -0.0053 -0.3797
17204TIP3    H173027   0.967   6.246   3.619 -1.0762 -0.3824 -2.2364
17204TIP3    H273028   0.904   6.142   3.709  0.4681  0.5862  0.0380
17205TIP3   OH273029   6.704   5.543   3.631  0.6170 -0.3587 -0.4140
17205TIP3    H173030   6.714   5.610   3.563  0.8370 -1.2578 -1.2928
17205TIP3    H273031   6.620   5.502   3.611  1.3811 -1.6619 -1.1201
17206TIP3   OH273032   2.532   6.269   5.254  0.2563 -0.0881 -0.0567
17206TIP3    H173033   2.578   6.243   5.174 -1.1156  0.0545 -0.9379
17206TIP3    H273034   2.509   6.186   5.296  0.0262 -0.2062 -0.4023
17207TIP3   OH273035   3.029   0.943  11.549  0.0178 -0.6503 -0.1522
17207TIP3    H173036   3.116   0.909  11.530  0.1162 -0.2559 -0.4244
17207TIP3    H273037   3.039   1.039  11.547 -0.3876 -0.6026 -0.0430
17208TIP3   OH273038   1.569   6.421  17.129 -0.6156  0.3907 -0.3084
17208TIP3    H173039   1.625   6.436  17.205  0.1270 -1.1998 -0.4842
17208TIP3    H273040   1.624   6.370  17.069 -2.0999 -0.8933 -0.6608
17209TIP3   OH273041   3.655   2.971   0.686  0.2195 -0.4518 -0.7829
17209TIP3    H173042   3.720   3.041   0.698 -0.5589  0.3689 -1.2142
17209TIP3    H273043   3.706   2.895   0.659  1.0309  0.0963 -0.8235
17210TIP3   OH273044   6.652   0.947  14.584 -0.0955 -0.2121  0.2880
17210TIP3    H173045   6.616   1.004  14.517 -0.4576 -1.2124 -0.3962
17210TIP3    H273046   6.727   0.995  14.619  0.7250 -0.0713 -1.5410
17211TIP3   OH273047   2.507   5.485   5.783 -0.2600 -0.1805 -0.9282
17211TIP3    H173048   2.481   5.495   5.875 -0.2341  1.8403 -1.0848
17211TIP3    H273049   2.601   5.506   5.783  0.6279 -3.6375 -0.9439
17212TIP3   OH273050   0.680   1.234   4.625 -0.4405 -0.0841 -0.0547
17212TIP3    H173051   0.772   1.260   4.616 -0.3520 -0.9442 -2.1333
17212TIP3    H273052   0.636   1.274   4.550 -1.3471 -1.3787 -0.2393
17213TIP3   OH273053   5.321   0.974   2.598 -0.4879 -0.0716 -0.1188
17213TIP3    H173054   5.397   1.008   2.552  0.4461 -0.8356  0.8046
17213TIP3    H273055   5.246   1.005   2.547  0.3127  2.5772  0.1628
17214TIP3   OH273056   5.989   3.531   5.433 -0.1547 -0.0172  0.0774
17214TIP3    H173057   5.901   3.552   5.467 -0.5624  0.5416 -1.2685
17214TIP3    H273058   5.972   3.486   5.351  0.8135  1.7855 -1.1720
17215TIP3   OH273059   0.375   5.368  11.332 -0.0411  0.1732  0.6919
17215TIP3    H173060   0.359   5.346  11.240  1.1053  1.3945  0.1640
17215TIP3    H273061   0.431   5.298  11.364 -2.2466 -1.4695  1.1448
17216TIP3   OH273062   2.754   1.399  12.214 -0.2002 -0.5599  0.0153
17216TIP3    H173063   2.699   1.321  12.203 -0.6852 -0.0681 -1.2668
17216TIP3    H273064   2.707   1.454  12.275 -1.0403 -0.2558 -0.8790
17217TIP3   OH273065   3.202   0.658   0.838 -0.2396 -0.0834 -0.1337
17217TIP3    H173066   3.236   0.732   0.888  0.8720 -1.5545  1.4175
17217TIP3    H273067   3.152   0.697   0.767 -0.4081  2.1336  1.1267
17218TIP3   OH273068   1.885   4.990  17.088  0.2972 -0.2641  0.1311
17218TIP3    H173069   1.815   5.055  17.104  1.9626  1.2658  1.7397
17218TIP3    H273070   1.878   4.930  17.162 -0.7584 -1.5174 -0.9563
17219TIP3   OH273071   1.637   2.996  11.469 -0.7476 -0.5057 -0.4269
17219TIP3    H173072   1.703   2.950  11.417 -0.6249 -0.0620 -0.6763
17219TIP3    H273073   1.556   2.986  11.419 -0.1981  1.8902 -1.9883
17220TIP3   OH273074   5.330   3.809   3.359  0.2546 -0.4235  0.0870
17220TIP3    H173075   5.257   3.851   3.404  0.5520  2.7267 -2.0279
17220TIP3    H273076   5.319   3.835   3.267  2.5896 -2.0376 -0.7326
17221TIP3   OH273077   5.179   6.609   2.350 -0.9306  0.3214  0.5003
17221TIP3    H173078   5.123   6.534   2.371 -0.4034 -0.1845  0.1357
17221TIP3    H273079   5.210   6.591   2.261 -0.5671  0.8275  0.5230
17222TIP3   OH273080   0.652   2.913  14.445  0.1243  0.4660 -0.2288
17222TIP3    H173081   0.627   2.944  14.358  1.2713  0.2362 -0.6617
17222TIP3    H273082   0.721   2.849  14.429 -1.1762 -1.2397  0.7465
17223TIP3   OH273083   4.681   5.678  13.453  0.3095 -0.4660  0.0761
17223TIP3    H173084   4.747   5.702  13.518  0.7211 -1.1679 -0.0660
17223TIP3    H273085   4.719   5.703  13.369 -0.2559  0.5150  0.0921
17224TIP3   OH273086   0.939   0.671   5.700 -0.2220  0.2147 -0.0486
17224TIP3    H173087   0.951   0.619   5.621 -2.7692 -0.6485  0.0633
17224TIP3    H273088   0.954   0.762   5.672 -0.7366 -0.1076 -1.4361
17225TIP3   OH273089   5.659   5.735  16.918 -0.7736  0.1278  0.2944
17225TIP3    H173090   5.576   5.692  16.898 -1.8801  1.5767  1.5046
17225TIP3    H273091   5.657   5.749  17.012  0.7279  0.4629  0.3072
17226TIP3   OH273092   3.598   5.295  13.348 -0.6647  0.1585  0.5208
17226TIP3    H173093   3.661   5.364  13.327 -0.7016  0.3212  0.9457
17226TIP3    H273094   3.646   5.214  13.331 -0.6937  0.2782 -0.1963
17227TIP3   OH273095   5.138   3.565  15.104 -0.1162  0.6167  0.6217
17227TIP3    H173096   5.140   3.472  15.083 -0.6138  0.4209  1.4214
17227TIP3    H273097   5.229   3.586  15.125  0.0522  0.3879  0.1461
17228TIP3   OH273098   0.318   5.917   3.665  0.2572 -0.0302 -0.7498
17228TIP3    H173099   0.232   5.910   3.707  0.5742 -0.4994 -0.1499
17228TIP3    H273100   0.374   5.955   3.732 -0.0370  2.8296 -1.9881
17229TIP3   OH273101   0.920   2.813  17.172 -0.0065  0.6033 -0.1721
17229TIP3    H173102   0.839   2.835  17.125 -0.2304 -0.1802 -0.1565
17229TIP3    H273103   0.922   2.875  17.245 -0.5891  0.6277 -0.1736
17230TIP3   OH273104   5.162   4.789   0.972 -0.3145 -0.1676 -0.0744
17230TIP3    H173105   5.183   4.757   1.059 -0.3701 -1.3818 -0.4791
17230TIP3    H273106   5.221   4.742   0.914 -0.6648  0.1990 -0.7455
17231TIP3   OH273107   1.865   3.153   4.074 -0.2541 -0.6192  0.1225
17231TIP3    H173108   1.922   3.226   4.047 -2.2204  0.7325 -0.6052
17231TIP3    H273109   1.812   3.134   3.996 -2.4739 -0.1543  1.4364
17232TIP3   OH273110   3.969   0.306   3.961  0.7358 -0.6083 -0.1264
17232TIP3    H173111   3.943   0.278   4.049  1.4154  0.0328  0.2867
17232TIP3    H273112   3.924   0.245   3.902 -1.5547  0.2889  0.5464
17233TIP3   OH273113   3.847   5.472   5.230  0.3633  0.2919  0.1078
17233TIP3    H173114   3.808   5.417   5.298  1.3603 -0.3763  0.1637
17233TIP3    H273115   3.802   5.447   5.149  1.2508 -1.1113  0.0141
17234TIP3   OH273116   2.297   5.391  12.407  0.0167 -0.4578  0.0010
17234TIP3    H173117   2.329   5.476  12.436 -1.4457 -0.2585  1.1665
17234TIP3    H273118   2.369   5.354  12.356  1.9123  0.0994  2.1339
17235TIP3   OH273119   0.510   1.613   2.819 -0.5606 -0.4446 -0.1264
17235TIP3    H173120   0.477   1.526   2.841 -0.5457 -0.6579 -0.9213
17235TIP3    H273121   0.604   1.602   2.808 -0.7802 -0.7743 -2.1651
17236TIP3   OH273122   6.435   0.644   3.986 -1.0184 -0.2701  0.5771
17236TIP3    H173123   6.460   0.631   4.077 -0.0445  0.3505  0.4139
17236TIP3    H273124   6.441   0.557   3.946 -0.6694 -0.4030  0.9169
17237TIP3   OH273125   2.149   5.035   2.517  0.0147  0.3715  0.4899
17237TIP3    H173126   2.107   5.084   2.447  0.2564  2.2383  1.5789
17237TIP3    H273127   2.241   5.030   2.491 -0.3022 -1.1175 -0.4665
17238TIP3   OH273128   2.714   5.181   5.026  0.1545  0.2898 -0.0594
17238TIP3    H173129   2.675   5.183   4.939 -0.2454 -0.0818  0.1095
17238TIP3    H273130   2.759   5.265   5.034  0.1090  0.3653 -0.5843
17239TIP3   OH273131   0.168   3.817   4.710 -0.5359 -0.1889  0.3147
17239TIP3    H173132   0.215   3.899   4.728 -1.9394  0.5217  0.8289
17239TIP3    H273133   0.145   3.823   4.618  0.3672 -0.5518  0.0518
17240TIP3   OH273134   2.545   2.793   1.737  0.5272  0.1587  0.0790
17240TIP3    H173135   2.485   2.744   1.681 -0.4143  1.1586  0.1934
17240TIP3    H273136   2.621   2.812   1.681  0.3293 -0.2857 -0.3463
17241TIP3   OH273137   3.780   5.315  15.264 -0.1438 -0.6018  0.4467
17241TIP3    H173138   3.787   5.329  15.169 -2.3795  0.8563  0.4533
17241TIP3    H273139   3.728   5.235  15.272  0.5287 -1.0518  0.4860
17242TIP3   OH273140   2.709   1.957  16.754 -0.3840 -0.2119  0.2122
17242TIP3    H173141   2.656   1.921  16.682 -0.0610  1.1923 -0.7823
17242TIP3    H273142   2.690   2.051  16.753  0.4319 -0.0126  1.2921
17243TIP3   OH273143   1.275   0.268   4.148  0.3529 -0.4651 -0.9406
17243TIP3    H173144   1.199   0.270   4.091 -0.9583 -0.0985  0.7484
17243TIP3    H273145   1.350   0.267   4.088 -0.9434 -0.1302 -2.6396
17244TIP3   OH273146   5.445   5.735  15.841  0.9523  0.4155  0.4310
17244TIP3    H173147   5.473   5.690  15.921 -0.7974 -0.5696  0.5411
17244TIP3    H273148   5.458   5.828  15.861  0.1609  0.2213  2.0532
17245TIP3   OH273149   3.343   3.828   2.579  0.1671  0.0433  0.0007
17245TIP3    H173150   3.263   3.861   2.619 -0.7265 -0.0145 -1.6524
17245TIP3    H273151   3.326   3.831   2.485  1.2702 -2.0286 -0.3379
17246TIP3   OH273152   6.108   5.999   1.505 -0.6160 -0.2754 -0.2277
17246TIP3    H173153   6.178   6.059   1.532 -1.0925  0.4205 -0.5027
17246TIP3    H273154   6.035   6.019   1.565 -0.7217 -0.7108 -0.2056
17247TIP3   OH273155   6.670   3.676  12.105 -0.6258  0.1617  0.0830
17247TIP3    H173156   6.753   3.710  12.072 -0.7102 -0.2309 -0.5501
17247TIP3    H273157   6.611   3.751  12.106 -1.3011 -0.2155 -2.8541
17248TIP3   OH273158   3.039   6.097  16.573 -0.4108  0.0939 -0.2482
17248TIP3    H173159   2.951   6.070  16.602 -0.5964  0.1039 -0.7809
17248TIP3    H273160   3.027   6.120  16.481  0.3589 -0.9031 -0.6198
17249TIP3   OH273161   5.989   1.519  13.955  0.2902  0.2311  0.6655
17249TIP3    H173162   6.008   1.587  13.890  1.3210  1.2700  1.9890
17249TIP3    H273163   5.894   1.522  13.966  0.3748  2.1894  1.4014
17250TIP3   OH273164   0.465   6.461  13.423  0.1739 -0.1397 -0.5275
17250TIP3    H173165   0.504   6.401  13.487 -0.8947  0.0179  0.3054
17250TIP3    H273166   0.508   6.545  13.438 -1.1131  0.2907  1.0717
17251TIP3   OH273167   3.136   5.441   5.091 -0.0231 -0.4925  0.4544
17251TIP3    H173168   3.158   5.458   5.183  0.3319  0.6695  0.1664
17251TIP3    H273169   3.155   5.348   5.079  2.9547 -0.0127  0.7527
17252TIP3   OH273170   5.057   4.664   1.323  0.1680 -0.0871 -0.0134
17252TIP3    H173171   4.981   4.652   1.266 -0.4290  1.4046  0.3881
17252TIP3    H273172   5.130   4.627   1.275 -0.9194 -2.2922 -0.0813
17253TIP3   OH273173   0.704   3.805  12.127  0.1514  0.4215 -0.0828
17253TIP3    H173174   0.611   3.786  12.115  0.3723 -0.7588 -0.0226
17253TIP3    H273175   0.742   3.722  12.157  1.1302  1.0279  0.4098
17254TIP3   OH273176   5.831   3.568  12.808  0.2730  0.2442  0.0851
17254TIP3    H173177   5.809   3.653  12.846 -0.3843  0.1453 -0.0548
17254TIP3    H273178   5.771   3.559  12.734 -0.0180 -0.5656  0.4107
17255TIP3   OH273179   2.139   0.093  16.396  0.7063 -0.5533 -0.4459
17255TIP3    H173180   2.053   0.120  16.364  0.4172 -1.7702 -0.7595
17255TIP3    H273181   2.163   0.159  16.460 -0.9339 -0.7369  0.4060
17256TIP3   OH273182   5.823   2.102   0.787  0.0478  0.7812 -0.0605
17256TIP3    H173183   5.918   2.086   0.784  0.0189  0.4986  0.4956
17256TIP3    H273184   5.800   2.093   0.879 -0.6218  0.2812 -0.2691
17257TIP3   OH273185   6.456   5.595  15.180  0.0224  0.3532 -0.4339
17257TIP3    H173186   6.487   5.541  15.252 -0.5292  0.2636 -0.2613
17257TIP3    H273187   6.381   5.643  15.216  0.0848  0.7252 -0.7832
17258TIP3   OH273188   2.135   2.690  16.938 -0.4451 -0.2746  0.7809
17258TIP3    H173189   2.165   2.746  16.866  1.2506 -0.6259  1.1774
17258TIP3    H273190   2.045   2.718  16.954 -0.4766  0.5795 -0.7227
17259TIP3   OH273191   2.419   4.966   1.742  0.3183 -0.6555  0.0548
17259TIP3    H173192   2.450   5.055   1.758  0.7455 -1.0419  1.5493
17259TIP3    H273193   2.391   4.966   1.651  0.1898  1.0412  0.0642
17260TIP3   OH273194   5.422   2.301  14.046  0.4354  0.2016  0.0639
17260TIP3    H173195   5.427   2.393  14.021 -2.9014  1.5281  3.2951
17260TIP3    H273196   5.350   2.266  13.994  1.4445 -0.5723 -0.8701
17261TIP3   OH273197   3.733   3.421  15.367  0.6174 -0.0810  0.1826
17261TIP3    H173198   3.647   3.421  15.324  0.5683  1.0060  0.2543
17261TIP3    H273199   3.715   3.397  15.458 -0.0924  3.0996  1.0086
17262TIP3   OH273200   3.195   3.524  14.769  0.9655 -0.1172  0.1080
17262TIP3    H173201   3.162   3.438  14.796 -2.5585  0.9145 -0.3702
17262TIP3    H273202   3.269   3.505  14.712  1.0956 -2.7600  1.0368
17263TIP3   OH273203   0.105   6.240   4.614  0.6353 -0.0929 -1.0149
17263TIP3    H173204   0.169   6.183   4.572  1.3846 -0.8479  1.0197
17263TIP3    H273205   0.118   6.226   4.707 -2.3951 -0.1738 -0.4880
17264TIP3   OH273206   6.027   5.204   5.617  0.1287  0.1320  0.2161
17264TIP3    H173207   5.995   5.248   5.696  3.1503  2.0561  0.5011
17264TIP3    H273208   6.094   5.143   5.649  0.5004  0.0117 -0.7630
17265TIP3   OH273209   5.803   0.768  14.251  0.0942 -0.4592  0.0639
17265TIP3    H173210   5.773   0.725  14.171  1.0921 -1.1179  0.0215
17265TIP3    H273211   5.723   0.788  14.299 -0.4121 -2.9922  0.4033
17266TIP3   OH273212   1.595   3.955  14.756 -0.4341 -0.3461 -0.1030
17266TIP3    H173213   1.526   4.001  14.804  0.7751  1.1085  0.2965
17266TIP3    H273214   1.595   3.994  14.669  0.1217 -0.0796  0.0117
17267TIP3   OH273215   6.194   5.394   5.506 -0.4029  0.0107 -0.1479
17267TIP3    H173216   6.178   5.405   5.600 -1.1003  0.0186 -0.2666
17267TIP3    H273217   6.149   5.313   5.484  0.2081 -0.2728 -0.3749
17268TIP3   OH273218   3.342   6.653  15.559 -0.0613  0.3521  0.8795
17268TIP3    H173219   3.261   6.605  15.543 -0.0592  0.1794  1.3921
17268TIP3    H273220   3.341   6.723  15.494  0.4961 -1.0197 -0.7126
17269TIP3   OH273221   0.333   0.721  11.206 -0.1978  0.7584  0.4363
17269TIP3    H173222   0.276   0.690  11.276 -1.2566 -0.4954 -0.9149
17269TIP3    H273223   0.421   0.708  11.239 -0.6715  0.5719  1.6813
17270TIP3   OH273224   0.547   5.589   3.415 -0.0135  0.3615 -0.1191
17270TIP3    H173225   0.553   5.665   3.357  1.1632  0.7430  0.4574
17270TIP3    H273226   0.621   5.600   3.475 -0.0727 -1.0324  0.2326
17271TIP3   OH273227   3.506   6.665   5.397 -0.5843  0.3802  0.0407
17271TIP3    H173228   3.542   6.724   5.463 -1.5013 -0.5043  1.3772
17271TIP3    H273229   3.560   6.680   5.320  1.2714  0.6389  1.3204
17272TIP3   OH273230   6.027   5.588   1.951 -0.0559  0.1960 -0.0863
17272TIP3    H173231   6.048   5.504   1.993  1.4994 -0.0502 -1.2334
17272TIP3    H273232   6.042   5.572   1.858 -0.3092  1.6036 -0.3931
17273TIP3   OH273233   3.319   0.653  12.591 -0.0955 -0.2452  0.1405
17273TIP3    H173234   3.412   0.637  12.609 -0.4187 -0.4907  1.7976
17273TIP3    H273235   3.311   0.748  12.592  0.1222 -0.2258  0.1377
17274TIP3   OH273236   6.461   2.190  10.933  0.2125  0.2531 -0.1715
17274TIP3    H173237   6.462   2.097  10.910 -0.9777  0.3268 -0.5575
17274TIP3    H273238   6.487   2.235  10.853 -0.7544  0.3350 -0.4419
17275TIP3   OH273239   6.071   4.818   5.881 -0.4787  0.2309  0.4419
17275TIP3    H173240   6.009   4.853   5.945  0.3462  0.8279  0.9309
17275TIP3    H273241   6.079   4.725   5.904 -0.5087  0.3508  0.9489
17276TIP3   OH273242   5.083   5.259  16.778 -0.4976 -0.3622 -0.3692
17276TIP3    H173243   5.098   5.320  16.850 -1.0166  0.5089 -0.9835
17276TIP3    H273244   5.080   5.173  16.820 -0.3836  0.0880  0.5903
17277TIP3   OH273245   5.376   4.076   5.163  0.0200  0.0477  0.2776
17277TIP3    H173246   5.320   4.151   5.184 -2.3095 -1.0485 -1.6041
17277TIP3    H273247   5.386   4.030   5.246 -0.6565  1.0538  0.9488
17278TIP3   OH273248   4.351   2.982  13.426 -0.2203 -0.5464 -0.0503
17278TIP3    H173249   4.289   3.017  13.491  0.6874 -0.1980  0.6437
17278TIP3    H273250   4.354   3.048  13.358  1.8464  1.0485  1.4787
17279TIP3   OH273251   2.901   2.443  17.125 -0.1964  0.2707 -0.0604
17279TIP3    H173252   2.993   2.438  17.096  0.2974  2.3567  0.9306
17279TIP3    H273253   2.852   2.457  17.044  0.2649 -1.4612 -0.6768
17280TIP3   OH273254   2.488   6.593   4.424  0.5997  0.4861  0.8470
17280TIP3    H173255   2.519   6.556   4.507  1.2162 -2.1018 -0.4427
17280TIP3    H273256   2.525   6.536   4.357 -0.7609  1.8619 -1.1791
17281TIP3   OH273257   6.317   0.980  16.258  0.0591  0.1652  0.3367
17281TIP3    H173258   6.317   0.997  16.164  1.5977 -2.6691 -0.3050
17281TIP3    H273259   6.395   1.025  16.290 -0.0939  0.5844  0.1170
17282TIP3   OH273260   1.655   6.400   4.894 -0.3237 -0.3721  0.8208
17282TIP3    H173261   1.714   6.448   4.836 -1.0100 -0.0031  0.4020
17282TIP3    H273262   1.608   6.469   4.941 -1.6207 -0.5890 -0.0916
17283TIP3   OH273263   1.734   6.460  11.960 -0.3879 -0.1771  0.2154
17283TIP3    H173264   1.654   6.483  12.007 -0.4937  0.1999 -0.1437
17283TIP3    H273265   1.711   6.382  11.911 -0.5427 -0.0536  0.0919
17284TIP3   OH273266   5.189   3.896   4.779  0.3099 -0.1888  0.1789
17284TIP3    H173267   5.241   3.957   4.727  1.1761 -0.6237  0.5182
17284TIP3    H273268   5.178   3.819   4.722 -0.3549  0.0772 -0.0610
17285TIP3   OH273269   6.591   2.263  12.696  0.3069 -0.3704 -0.3164
17285TIP3    H173270   6.661   2.202  12.671 -0.3201 -0.7239 -1.2411
17285TIP3    H273271   6.580   2.319  12.619  1.2103  1.2705  0.6827
17286TIP3   OH273272   0.293   6.563  15.023 -0.2452 -0.1979  0.2823
17286TIP3    H173273   0.329   6.540  14.937  1.8729  1.8975  0.5018
17286TIP3    H273274   0.238   6.639  15.006 -0.5553 -0.3401  0.6554
17287TIP3   OH273275   3.397   0.629  16.615 -0.0681  0.2927 -0.6009
17287TIP3    H173276   3.437   0.567  16.677 -0.5182  0.8074  0.2210
17287TIP3    H273277   3.335   0.679  16.668 -1.3122 -0.0308 -1.7006
17288TIP3   OH273278   0.144   3.731  12.300 -0.4560  0.4083  0.2406
17288TIP3    H173279   0.221   3.676  12.293 -0.6529 -0.0607  1.4558
17288TIP3    H273280   0.124   3.756  12.210  0.4383 -0.3837 -0.1990
17289TIP3   OH273281   2.840   0.179  14.569  0.4304  0.0978 -0.2120
17289TIP3    H173282   2.787   0.211  14.642  2.6850 -1.0386  2.1118
17289TIP3    H273283   2.796   0.098  14.541  0.1764 -0.1165  0.7620
17290TIP3   OH273284   2.558   3.300   4.190  0.2348  0.3840 -0.5747
17290TIP3    H173285   2.584   3.208   4.189 -1.8354 -0.3253  1.5684
17290TIP3    H273286   2.498   3.308   4.115 -2.1571 -0.9637  1.0643
17291TIP3   OH273287   3.953   1.418   1.750  0.0480  0.3122  0.1297
17291TIP3    H173288   3.889   1.438   1.681  0.3192 -1.0738 -0.5661
17291TIP3    H273289   3.901   1.387   1.823 -0.0715 -1.6052 -0.7241
17292TIP3   OH273290   1.870   1.854  12.856 -0.0098  0.7471  0.1657
17292TIP3    H173291   1.798   1.880  12.913 -1.0683  0.2111 -0.8770
17292TIP3    H273292   1.908   1.777  12.899 -0.8081  0.3369  0.1650
17293TIP3   OH273293   3.731   6.720  13.775 -0.3112 -0.3434  0.3581
17293TIP3    H173294   3.781   6.799  13.755 -0.5685 -0.0542  0.8354
17293TIP3    H273295   3.771   6.652  13.721 -0.3616  0.2016 -0.3735
17294TIP3   OH273296   6.330   0.420   2.696 -0.1985 -0.2508 -0.1498
17294TIP3    H173297   6.257   0.389   2.751 -0.6345  1.6045  0.3745
17294TIP3    H273298   6.290   0.487   2.640  1.1143  0.8846  0.2284
17295TIP3   OH273299   1.979   4.876   0.134 -0.2932 -0.2912 -0.7326
17295TIP3    H173300   2.030   4.946   0.094  3.1621 -0.9513  1.9821
17295TIP3    H273301   1.923   4.920   0.198  0.6607  0.1463 -0.1839
17296TIP3   OH273302   1.771   4.276   0.542  0.3186  0.3795  0.1104
17296TIP3    H173303   1.712   4.276   0.617 -0.7979  0.7231 -0.7430
17296TIP3    H273304   1.793   4.183   0.529 -0.2530  0.2175  0.2674
17297TIP3   OH273305   1.368   2.703  13.121  0.0590  0.0890 -0.0562
17297TIP3    H173306   1.383   2.682  13.213  0.0292  3.6498  0.9210
17297TIP3    H273307   1.446   2.673  13.075  0.4704 -0.9179  1.2654
17298TIP3   OH273308   4.763   0.891   1.973 -0.1477  0.3593 -0.2444
17298TIP3    H173309   4.777   0.797   1.963 -0.6593 -0.0366  2.1935
17298TIP3    H273310   4.680   0.898   2.020  0.9921  1.9075  1.6736
17299TIP3   OH273311   0.567   2.306  15.010 -0.1787  0.4593 -0.0672
17299TIP3    H173312   0.580   2.343  15.097  0.3596 -0.1090  0.0983
17299TIP3    H273313   0.516   2.372  14.963 -1.5289  0.2430  1.0467
17300TIP3   OH273314   3.667   0.957   2.448 -0.2641 -0.0031 -0.4217
17300TIP3    H173315   3.604   1.016   2.408  1.1202  3.1526  1.6631
17300TIP3    H273316   3.684   0.995   2.535  0.4840 -3.7131  1.2741
17301TIP3   OH273317   2.346   1.445   3.215 -0.0566 -0.1878  0.9681
17301TIP3    H173318   2.335   1.497   3.136 -0.0394  0.3088  1.2919
17301TIP3    H273319   2.262   1.400   3.226  0.4489 -1.4988 -0.2058
17302TIP3   OH273320   2.600   2.227   2.641 -0.1956 -0.5979  0.0116
17302TIP3    H173321   2.588   2.317   2.674  0.4365 -1.2765  2.3122
17302TIP3    H273322   2.605   2.237   2.546 -1.9012  1.5887  0.0602
17303TIP3   OH273323   1.443   0.667  16.890  0.5911 -0.3979 -0.3247
17303TIP3    H173324   1.536   0.686  16.905  0.1323  1.1589  0.8700
17303TIP3    H273325   1.401   0.753  16.892 -1.0422 -1.1697  0.4248
17304TIP3   OH273326   1.026   3.302  15.798  0.1162 -0.3284 -0.3765
17304TIP3    H173327   1.047   3.395  15.811  0.0078 -0.5154  1.3533
17304TIP3    H273328   1.093   3.271  15.737  0.0931  0.9123 -1.0604
17305TIP3   OH273329   0.218   1.934  10.703  0.0625 -0.1960 -0.0079
17305TIP3    H173330   0.239   2.021  10.668 -2.7301  0.9468  0.8613
17305TIP3    H273331   0.184   1.951  10.791 -2.4268 -1.8987 -0.5304
17306TIP3   OH273332   3.206   4.266  13.165 -0.6274  0.0626 -0.6809
17306TIP3    H173333   3.187   4.297  13.254 -1.1390  0.3923 -0.9041
17306TIP3    H273334   3.177   4.337  13.108 -1.1570 -0.5328 -1.1606
17307TIP3   OH273335   4.659   4.331   5.387 -1.0065 -0.2604 -0.3740
17307TIP3    H173336   4.686   4.272   5.458 -0.2031  0.2651 -0.2280
17307TIP3    H273337   4.564   4.326   5.386 -0.9764 -1.0923  0.0394
17308TIP3   OH273338   3.836   4.172  14.183 -0.3639  0.2397 -0.4309
17308TIP3    H173339   3.869   4.224  14.257  0.3627  1.4839 -1.5732
17308TIP3    H273340   3.763   4.224  14.148 -0.0338  0.1860 -1.2164
17309TIP3   OH273341   4.248   0.815  15.061  0.0461  0.4459  0.1058
17309TIP3    H173342   4.228   0.757  14.988  1.4481 -1.2470  0.9892
17309TIP3    H273343   4.341   0.838  15.049  0.2839  0.1750  1.3094
17310TIP3   OH273344   0.860   1.656  15.758  0.3619  0.0260 -0.6058
17310TIP3    H173345   0.841   1.742  15.719 -0.9179  0.0457  0.0061
17310TIP3    H273346   0.918   1.613  15.695 -0.8481  0.4487 -2.0598
17311TIP3   OH273347   0.207   3.285   4.684 -0.1080 -0.7345 -0.1784
17311TIP3    H173348   0.126   3.258   4.729 -0.8184  1.0736 -0.2927
17311TIP3    H273349   0.206   3.380   4.688  2.3563 -0.6650  0.3422
17312TIP3   OH273350   3.522   2.590  12.535  0.1809  0.1092  0.1933
17312TIP3    H173351   3.491   2.558  12.619  2.5733 -0.3203  1.0146
17312TIP3    H273352   3.586   2.524  12.507 -0.9054 -0.0097 -2.2217
17313TIP3   OH273353   6.618   1.813  15.511 -0.5914 -0.3670  0.4167
17313TIP3    H173354   6.687   1.756  15.478  1.2389  1.9723 -0.0584
17313TIP3    H273355   6.644   1.834  15.601 -0.8158  0.3059  0.3305
17314TIP3   OH273356   0.772   1.297   1.967 -0.6164 -0.0137 -0.2333
17314TIP3    H173357   0.776   1.391   1.950 -0.6694  0.1285  0.4869
17314TIP3    H273358   0.814   1.287   2.053 -0.3464 -0.6835 -0.4348
17315TIP3   OH273359   2.707   5.881   5.541  0.1814 -0.1661 -0.0654
17315TIP3    H173360   2.787   5.832   5.555  0.1574 -0.5789 -1.2104
17315TIP3    H273361   2.713   5.957   5.599  1.7859  0.2495 -0.7207
17316TIP3   OH273362   3.888   6.176   2.063 -0.2647 -0.2133 -0.0269
17316TIP3    H173363   3.907   6.096   2.013 -0.6164 -0.8604  0.8566
17316TIP3    H273364   3.848   6.145   2.144 -1.7365  0.9422 -0.2733
17317TIP3   OH273365   2.114   0.123  15.647  0.0612 -0.2039  0.3852
17317TIP3    H173366   2.200   0.165  15.644  0.4354 -0.9942 -0.0707
17317TIP3    H273367   2.119   0.052  15.584 -0.6753 -0.7336  0.9058
17318TIP3   OH273368   4.130   2.829  14.990  0.0148  0.7674  0.1885
17318TIP3    H173369   4.047   2.823  14.943  0.1607  2.5490 -0.3934
17318TIP3    H273370   4.178   2.750  14.965 -0.9281  0.4312 -0.6217
17319TIP3   OH273371   4.615   3.025  11.071  0.2610 -0.1963  0.4301
17319TIP3    H173372   4.585   3.115  11.058 -1.3313 -0.7734 -0.0406
17319TIP3    H273373   4.614   2.986  10.983  1.6606 -0.4943  0.5107
17320TIP3   OH273374   4.449   3.476   1.249 -0.4873  0.0633 -0.1556
17320TIP3    H173375   4.358   3.504   1.247 -0.5112  0.0950  0.9104
17320TIP3    H273376   4.494   3.539   1.192 -0.6675  1.9240  1.6201
17321TIP3   OH273377   0.418   4.970  16.284  0.3909 -0.6281 -0.1066
17321TIP3    H173378   0.495   4.979  16.228  1.0114  0.4027  0.8570
17321TIP3    H273379   0.360   5.042  16.257  0.8505  0.1000  0.7694
17322TIP3   OH273380   0.461   4.636  10.673  0.3556 -0.3611 -0.4853
17322TIP3    H173381   0.366   4.627  10.668  0.1440  0.6595  0.8653
17322TIP3    H273382   0.490   4.557  10.717 -0.2078  0.4349  1.4362
17323TIP3   OH273383   6.672   6.591  11.090 -0.6178  0.4081  0.2653
17323TIP3    H173384   6.711   6.674  11.063 -1.2064  0.8829  0.8453
17323TIP3    H273385   6.678   6.535  11.012 -2.7452  1.8900 -1.0546
17324TIP3   OH273386   0.542   5.375  15.625  0.0275  0.4104  0.4748
17324TIP3    H173387   0.459   5.327  15.615 -0.4331  1.3352 -0.3146
17324TIP3    H273388   0.608   5.306  15.630 -0.0748 -0.5230 -4.8557
17325TIP3   OH273389   0.522   0.577  13.213  0.5176 -0.6677 -0.1271
17325TIP3    H173390   0.448   0.635  13.195 -0.4501 -1.5637  0.7763
17325TIP3    H273391   0.488   0.489  13.195  0.6076 -1.3027  2.4312
17326TIP3   OH273392   4.413   6.386  15.043  0.3518  0.5083 -0.6627
17326TIP3    H173393   4.453   6.462  15.001  2.3764 -0.8854 -1.3888
17326TIP3    H273394   4.324   6.383  15.007  0.4021  2.1874 -1.0316
17327TIP3   OH273395   1.667   0.535  13.206  0.1647  0.4752 -0.1088
17327TIP3    H173396   1.721   0.599  13.252 -0.0759  0.1212  0.6901
17327TIP3    H273397   1.670   0.562  13.115 -0.3487  1.9198  0.2820
17328TIP3   OH273398   2.414   5.661  12.229 -0.2112 -0.5792  0.3720
17328TIP3    H173399   2.479   5.722  12.263 -0.6554  1.5652 -2.2047
17328TIP3    H273400   2.462   5.604  12.169 -0.4943  0.4225 -0.8499
17329TIP3   OH273401   4.806   0.268   5.506 -1.2932  0.2761 -0.7145
17329TIP3    H173402   4.713   0.248   5.498 -1.6021  1.5953 -0.7551
17329TIP3    H273403   4.851   0.190   5.476 -2.3977 -0.0824 -1.4678
17330TIP3   OH273404   1.938   2.736  15.609 -0.7248 -0.1559  0.5612
17330TIP3    H173405   1.933   2.776  15.523 -0.9553  0.6444  0.9307
17330TIP3    H273406   1.999   2.663  15.599  0.4052  0.8165  0.0484
17331TIP3   OH273407   2.279   4.140  13.926  0.4471 -0.1228  0.5388
17331TIP3    H173408   2.332   4.159  14.004  0.4978  1.5755  0.1421
17331TIP3    H273409   2.255   4.048  13.934  4.0231 -1.2341  0.4204
17332TIP3   OH273410   3.640   2.927   1.443  0.1508  0.7084  0.5351
17332TIP3    H173411   3.560   2.879   1.420  0.5419  0.9744 -1.4889
17332TIP3    H273412   3.700   2.859   1.475 -0.8471  0.5104  2.1152
17333TIP3   OH273413   6.133   1.170   3.584 -0.0341 -0.6127 -0.1334
17333TIP3    H173414   6.123   1.227   3.508  1.3165 -0.5310 -0.2733
17333TIP3    H273415   6.075   1.208   3.650 -0.6352 -0.2329 -0.8629
17334TIP3   OH273416   5.070   5.575   2.749 -0.0167 -0.2542 -0.1549
17334TIP3    H173417   4.975   5.570   2.762 -0.0144  2.1010  1.3831
17334TIP3    H273418   5.104   5.495   2.789 -1.2699 -0.5385  0.3811
17335TIP3   OH273419   6.019   3.672  14.537  0.1635  0.4895 -0.7872
17335TIP3    H173420   5.979   3.734  14.476 -1.1250 -0.4539 -0.9552
17335TIP3    H273421   6.018   3.589  14.490 -1.2097 -0.3497  0.6147
17336TIP3   OH273422   3.630   2.069   4.984 -0.7010  0.6550  0.6700
17336TIP3    H173423   3.630   2.124   5.062 -0.7708 -0.4290  1.4558
17336TIP3    H273424   3.594   1.986   5.013 -0.4235  0.1211 -0.4498
17337TIP3   OH273425   4.284   1.207   6.345 -0.1256  0.2983 -0.1670
17337TIP3    H173426   4.205   1.160   6.318 -0.3069 -0.9603  2.2324
17337TIP3    H273427   4.257   1.298   6.352 -1.5763 -0.1968  1.1794
17338TIP3   OH273428   3.492   1.491  16.289  0.2732 -0.4836  0.3578
17338TIP3    H173429   3.537   1.571  16.317 -1.5506  0.1530  1.6285
17338TIP3    H273430   3.481   1.440  16.369  0.6141 -1.6282 -0.2980
17339TIP3   OH273431   0.851   0.554  15.959 -0.3378 -0.1158 -0.5431
17339TIP3    H173432   0.946   0.540  15.953 -0.3820 -0.5797 -0.1743
17339TIP3    H273433   0.840   0.646  15.937  0.2984  0.1939  0.3559
17340TIP3   OH273434   0.063   2.425  12.634 -0.4780  0.1382 -0.5966
17340TIP3    H173435   0.065   2.384  12.720 -0.8795 -0.0523 -0.6749
17340TIP3    H273436   0.104   2.510  12.647  1.3084 -0.6798 -0.6485
17341TIP3   OH273437   2.470   5.650  14.802 -0.7133  0.1317 -0.8418
17341TIP3    H173438   2.409   5.709  14.756 -1.8086  0.6205  1.0989
17341TIP3    H273439   2.544   5.706  14.826 -1.0918  0.3875 -0.2486
17342TIP3   OH273440   5.072   5.180   5.478 -0.3255 -0.1930 -0.1283
17342TIP3    H173441   4.994   5.200   5.427 -0.3702 -1.1108 -0.4315
17342TIP3    H273442   5.140   5.166   5.413 -0.3979 -1.4438  0.0515
17343TIP3   OH273443   3.629   1.690  17.012  0.6445 -0.2369  0.6399
17343TIP3    H173444   3.717   1.697  16.976  0.4049 -0.6550 -0.0466
17343TIP3    H273445   3.636   1.724  17.101  1.4843 -0.2213  0.5699
17344TIP3   OH273446   5.160   4.440   4.509 -0.5624  0.0866  0.6604
17344TIP3    H173447   5.142   4.414   4.419  0.7950  0.7130  0.1935
17344TIP3    H273448   5.241   4.490   4.505 -1.2997  1.4852  2.0161
17345TIP3   OH273449   6.761   1.279  14.129  0.2453  0.0170  0.5719
17345TIP3    H173450   6.736   1.196  14.087  0.6238  0.8040 -1.3359
17345TIP3    H273451   6.702   1.344  14.090  1.4342  0.9847  0.3473
17346TIP3   OH273452   3.379   2.631   1.334 -0.0205  0.1135  0.2959
17346TIP3    H173453   3.292   2.595   1.352  0.8475 -2.4022 -0.0553
17346TIP3    H273454   3.369   2.725   1.347 -2.8968 -0.0169 -0.1926
17347TIP3   OH273455   2.808   6.135  16.009  0.0505  0.0511  0.0729
17347TIP3    H173456   2.883   6.077  15.990  1.1582  0.8467  1.7449
17347TIP3    H273457   2.848   6.218  16.035 -1.4641  0.8360  0.0112
17348TIP3   OH273458   1.455   2.163  12.765  0.0800  0.6574 -0.0895
17348TIP3    H173459   1.366   2.147  12.733 -0.3067 -1.1783  1.6277
17348TIP3    H273460   1.508   2.097  12.721 -0.0618 -0.4014  1.2271
17349TIP3   OH273461   4.436   1.361   3.913 -0.0638  0.4955 -0.0877
17349TIP3    H173462   4.442   1.415   3.991 -1.7069 -0.2079  0.5702
17349TIP3    H273463   4.389   1.415   3.850 -0.7547  0.2489  0.2047
17350TIP3   OH273464   6.234   6.765  11.380 -0.1560  0.1988 -0.6314
17350TIP3    H173465   6.160   6.730  11.330  0.6590 -1.2202 -0.8898
17350TIP3    H273466   6.311   6.727  11.338  0.6135 -0.0214  0.9191
17351TIP3   OH273467   5.905   0.418   4.052 -0.2586 -0.3354 -0.0745
17351TIP3    H173468   5.846   0.420   3.977 -0.6237 -1.3944  0.1708
17351TIP3    H273469   5.849   0.436   4.128 -0.1590 -0.7570  0.0996
17352TIP3   OH273470   0.917   6.252   0.751 -0.5219  0.3104  0.5462
17352TIP3    H173471   0.912   6.341   0.787 -1.1613 -0.1690  1.6978
17352TIP3    H273472   0.976   6.260   0.676  0.8517  1.3706  1.6797
17353TIP3   OH273473   2.105   0.732   6.131 -0.3269  0.3181  0.1148
17353TIP3    H173474   2.090   0.638   6.142  0.1258 -0.0535 -1.9420
17353TIP3    H273475   2.052   0.755   6.055 -0.0336  1.6205  0.2895
17354TIP3   OH273476   2.189   1.173  16.225 -0.2385  0.1986  0.5149
17354TIP3    H173477   2.160   1.100  16.280 -0.0011 -1.6239 -1.6524
17354TIP3    H273478   2.109   1.224  16.210 -2.2581 -3.5117 -3.5285
17355TIP3   OH273479   1.883   5.126  15.110 -0.0132  0.3743 -0.1852
17355TIP3    H173480   1.973   5.154  15.125 -0.3469  0.8566  1.0256
17355TIP3    H273481   1.872   5.130  15.015  1.2632  0.2220 -0.3503
17356TIP3   OH273482   3.241   2.512   0.991 -0.1428 -0.2159 -0.1315
17356TIP3    H173483   3.163   2.538   1.040  2.1500  0.4319  3.6467
17356TIP3    H273484   3.238   2.562   0.910 -2.6214  1.3244  0.8244
17357TIP3   OH273485   0.912   3.678  16.756  0.0492 -0.1661 -0.1816
17357TIP3    H173486   0.875   3.591  16.746 -0.1426 -0.2783  1.2822
17357TIP3    H273487   0.926   3.688  16.850 -1.1947  1.9013 -0.1574
17358TIP3   OH273488   1.657   4.662   2.559  0.5239 -0.3213  0.4155
17358TIP3    H173489   1.658   4.576   2.517  0.5262 -0.5408  0.8551
17358TIP3    H273490   1.566   4.691   2.552  0.2432 -0.9098  1.3438
17359TIP3   OH273491   3.600   6.595  15.475 -0.1521  0.0580 -0.0364
17359TIP3    H173492   3.529   6.603  15.538 -0.6637  1.5744 -0.7646
17359TIP3    H273493   3.678   6.622  15.524 -0.2790 -0.3382  0.3937
17360TIP3   OH273494   2.678   2.953  14.465  0.1694 -0.0255  0.2447
17360TIP3    H173495   2.701   2.873  14.417  0.0251 -0.6178  1.1540
17360TIP3    H273496   2.620   3.001  14.405  0.2368 -0.6098 -0.2953
17361TIP3   OH273497   4.761   3.479  15.578  0.0856 -0.3604  0.0480
17361TIP3    H173498   4.766   3.472  15.482 -2.3544  2.4553 -0.4439
17361TIP3    H273499   4.796   3.566  15.597  0.1045 -0.7036  1.6809
17362TIP3   OH273500   5.914   6.347   4.293 -0.2151 -0.3279 -0.2894
17362TIP3    H173501   5.990   6.321   4.240 -0.8633 -1.9641 -0.4713
17362TIP3    H273502   5.848   6.280   4.274 -0.4977 -0.9594  2.5460
17363TIP3   OH273503   6.703   0.606   3.784 -0.1466 -0.4074 -0.4867
17363TIP3    H173504   6.686   0.694   3.750  2.1804 -0.0968 -1.0258
17363TIP3    H273505   6.781   0.617   3.838  0.8556 -2.3155 -1.4523
17364TIP3   OH273506   1.488   2.544  11.414 -0.1244 -0.5431  0.8129
17364TIP3    H173507   1.559   2.499  11.368 -0.2732  1.0388 -1.1234
17364TIP3    H273508   1.411   2.530  11.359 -0.6134  0.2992  1.2540
17365TIP3   OH273509   4.097   3.601  12.345  0.1561  1.0707  0.7131
17365TIP3    H173510   4.087   3.533  12.279 -0.1391  3.2004 -1.5697
17365TIP3    H273511   4.063   3.562  12.426 -0.9283 -1.1103 -0.7263
17366TIP3   OH273512   2.029   3.666   2.304  0.2156 -0.2307  0.2501
17366TIP3    H173513   2.069   3.751   2.323 -0.9239  0.4797 -0.3810
17366TIP3    H273514   2.103   3.609   2.281  1.0122  0.5392  0.8345
17367TIP3   OH273515   2.329   6.595   0.962  0.2187  0.0963 -0.1273
17367TIP3    H173516   2.266   6.551   1.019  0.3318 -0.2825 -0.2949
17367TIP3    H273517   2.363   6.526   0.905  0.2636  0.4291 -0.5143
17368TIP3   OH273518   5.996   5.891  13.367 -0.1113  0.8373 -0.6547
17368TIP3    H173519   6.024   5.857  13.281 -0.3814 -2.0491  0.2749
17368TIP3    H273520   5.905   5.864  13.375  0.7209 -1.7869  1.6879
17369TIP3   OH273521   1.692   4.350  14.416 -0.0768  0.1325  0.3969
17369TIP3    H173522   1.703   4.442  14.390 -1.7017 -0.1812 -1.6493
17369TIP3    H273523   1.776   4.326  14.454  0.2360  2.5851  1.4331
17370TIP3   OH273524   1.158   1.455   5.138  0.6332  0.2239 -0.4538
17370TIP3    H173525   1.179   1.365   5.113  2.1472  0.6881 -0.9901
17370TIP3    H273526   1.174   1.457   5.232 -2.6503 -0.8779  0.2560
17371TIP3   OH273527   3.387   4.317   2.801 -0.0304 -0.1868  0.6175
17371TIP3    H173528   3.318   4.295   2.863 -0.1473 -3.3761 -0.4636
17371TIP3    H273529   3.396   4.239   2.746  2.3348  1.2542 -1.2564
17372TIP3   OH273530   4.319   3.284  11.330  0.0095 -0.5653 -0.0792
17372TIP3    H173531   4.271   3.239  11.261 -1.0299 -0.1065  0.3279
17372TIP3    H273532   4.362   3.357  11.284  0.1065 -0.8219 -0.4010
17373TIP3   OH273533   6.209   0.680  13.738  0.7823  0.6001  0.2912
17373TIP3    H173534   6.205   0.729  13.656  0.6631  0.5617  0.2737
17373TIP3    H273535   6.301   0.652  13.745  0.6912  0.1937 -0.0733
17374TIP3   OH273536   3.132   6.760   0.991 -0.5214 -0.3356  0.4379
17374TIP3    H173537   3.111   6.763   1.084  1.2937 -0.7148  0.8963
17374TIP3    H273538   3.183   6.839   0.975  0.5757 -1.0750  0.1617
17375TIP3   OH273539   3.942   1.012   1.677 -0.6199 -0.5413 -0.3365
17375TIP3    H173540   3.942   1.031   1.771 -0.5628 -0.4015 -0.3637
17375TIP3    H273541   3.865   0.956   1.664  1.0199 -3.0949  0.2724
17376TIP3   OH273542   2.251   5.742  16.132 -0.0315 -0.0969  0.3689
17376TIP3    H173543   2.278   5.688  16.205 -1.0139 -0.3137  0.5858
17376TIP3    H273544   2.255   5.832  16.165  0.5852 -0.1072  0.3353
17377TIP3   OH273545   6.281   5.309   1.085  0.1723  0.6481 -0.0756
17377TIP3    H173546   6.332   5.338   1.160  3.0069 -0.9532 -1.2158
17377TIP3    H273547   6.335   5.332   1.009 -1.8538  0.8078 -1.5467
17378TIP3   OH273548   2.395   5.498   0.478 -0.1931  0.0067  0.3070
17378TIP3    H173549   2.443   5.482   0.559  1.4006  1.0385 -0.3795
17378TIP3    H273550   2.413   5.589   0.457 -1.2571 -0.0037 -0.7907
17379TIP3   OH273551   0.880   3.136   1.538 -0.1027  0.1565 -0.3986
17379TIP3    H173552   0.787   3.116   1.529 -0.0718 -1.6778  2.1979
17379TIP3    H273553   0.924   3.057   1.507  0.5197  0.4232 -0.2008
17380TIP3   OH273554   5.307   0.412  14.308 -0.3804 -0.0991  0.1146
17380TIP3    H173555   5.362   0.455  14.243 -1.1775  0.7035 -0.0415
17380TIP3    H273556   5.288   0.479  14.373 -0.7379 -0.5132  0.4462
17381TIP3   OH273557   5.268   1.944  11.879 -0.3987 -0.3253  0.1121
17381TIP3    H173558   5.214   1.883  11.930 -1.2624  1.0537  0.8963
17381TIP3    H273559   5.209   1.975  11.810 -0.8052  1.5749  1.2706
17382TIP3   OH273560   1.759   4.007   2.705  0.5467  0.1308  0.3796
17382TIP3    H173561   1.710   4.062   2.645 -0.9158 -1.2994  0.2061
17382TIP3    H273562   1.714   4.017   2.789  1.1406  0.2907  0.6852
17383TIP3   OH273563   4.670   6.119   2.786 -0.2861  0.1095  0.1569
17383TIP3    H173564   4.744   6.086   2.736  0.5941  0.8418  0.9451
17383TIP3    H273565   4.597   6.064   2.760  0.5804 -0.7724 -0.4649
17384TIP3   OH273566   4.628   5.305  15.509  0.1502  0.2820  0.5271
17384TIP3    H173567   4.642   5.400  15.513 -0.1729  0.2914  2.4312
17384TIP3    H273568   4.533   5.295  15.513  0.2082 -0.1274  0.9257
17385TIP3   OH273569   5.483   5.993   4.323  0.0279  0.1953  0.0506
17385TIP3    H173570   5.497   5.974   4.231 -1.8770 -0.0942 -0.2230
17385TIP3    H273571   5.465   5.908   4.363 -1.3796  0.5431  0.2190
17386TIP3   OH273572   5.066   3.530   2.024 -1.0073  0.3373 -0.2547
17386TIP3    H173573   5.066   3.442   2.062 -0.1934 -0.4606 -2.0109
17386TIP3    H273574   5.014   3.582   2.085  1.2419 -0.5493  2.6213
17387TIP3   OH273575   0.792   4.847  11.708 -0.5302 -0.4486  0.1450
17387TIP3    H173576   0.771   4.933  11.674 -1.1009 -1.2764 -1.7335
17387TIP3    H273577   0.882   4.855  11.741 -0.5150  0.7897 -0.1760
17388TIP3   OH273578   4.027   5.812  11.318 -0.1035 -0.0877  0.3287
17388TIP3    H173579   3.952   5.756  11.338  0.9824 -1.9740 -0.5485
17388TIP3    H273580   4.056   5.783  11.232  1.5207  0.6908  0.5682
17389TIP3   OH273581   5.010   2.929   2.712 -0.2283  0.0336 -0.4563
17389TIP3    H173582   5.056   2.997   2.663 -0.2533  1.5614  1.5275
17389TIP3    H273583   4.999   2.965   2.800 -1.0332 -2.2025  0.4427
17390TIP3   OH273584   1.601   1.167   2.734 -0.0052  0.1479 -0.1426
17390TIP3    H173585   1.570   1.220   2.659  1.0657  0.2411 -0.5320
17390TIP3    H273586   1.533   1.101   2.746 -0.6539  0.7178 -0.5894
17391TIP3   OH273587   4.295   4.614   4.637  0.2148  0.2480 -0.3975
17391TIP3    H173588   4.302   4.565   4.719 -1.9504 -0.3693 -0.5175
17391TIP3    H273589   4.366   4.581   4.582  0.0282 -1.3134  0.2585
17392TIP3   OH273590   6.151   3.952  17.117 -0.2800 -0.5123  0.4858
17392TIP3    H173591   6.061   3.934  17.092  0.1239  0.8407 -2.3814
17392TIP3    H273592   6.198   3.961  17.033  2.3624 -0.4290  1.8642
17393TIP3   OH273593   3.869   6.502   1.313 -0.2081 -0.0364  0.5183
17393TIP3    H173594   3.779   6.531   1.328 -0.8653 -1.4644 -0.4005
17393TIP3    H273595   3.910   6.505   1.400 -0.3826  2.9180  0.5791
17394TIP3   OH273596   0.066   0.853   0.649 -0.0696 -0.1227  0.4246
17394TIP3    H173597   0.006   0.920   0.680 -0.9300 -0.7997  0.2602
17394TIP3    H273598   0.141   0.902   0.614 -0.4390  0.7267  0.7947
17395TIP3   OH273599   1.768   3.511  15.166 -0.1250 -0.1492 -1.0109
17395TIP3    H173600   1.811   3.456  15.232  0.6843  1.0901 -0.4683
17395TIP3    H273601   1.824   3.588  15.160 -3.7195  3.1038  2.0325
17396TIP3   OH273602   6.631   3.439   0.599  0.6352 -0.4724 -0.1623
17396TIP3    H173603   6.584   3.434   0.516  1.0798 -1.2624 -0.3814
17396TIP3    H273604   6.664   3.529   0.603 -3.3684  1.1215  1.4236
17397TIP3   OH273605   4.558   3.464  14.370 -0.4455  0.0687  0.3736
17397TIP3    H173606   4.523   3.405  14.436  1.7383  0.5217  2.0452
17397TIP3    H273607   4.541   3.552  14.404 -1.4023  0.3929 -0.8615
17398TIP3   OH273608   0.514   3.990  16.103 -0.2256  0.5092  0.3720
17398TIP3    H173609   0.431   3.956  16.137  0.9812 -1.3620  1.6991
17398TIP3    H273610   0.573   3.986  16.178  2.1700 -2.2984 -1.4486
17399TIP3   OH273611   2.136   4.329   0.147  0.6976 -0.1581 -0.2204
17399TIP3    H173612   2.073   4.257   0.150 -2.5717  2.5048  0.1965
17399TIP3    H273613   2.149   4.354   0.238  0.2512  0.9832 -0.4549
17400TIP3   OH273614   4.460   6.758   2.893 -0.7122  0.5550  0.5207
17400TIP3    H173615   4.480   6.690   2.957 -1.1429  0.8040  0.9260
17400TIP3    H273616   4.494   6.724   2.810  2.3617  1.4070  1.3094
17401TIP3   OH273617   2.178   0.247  16.030 -0.2758  0.7583 -0.9824
17401TIP3    H173618   2.244   0.222  16.095 -0.3231  1.3127 -0.7154
17401TIP3    H273619   2.149   0.164  15.992 -1.5917  0.2405  1.0101
17402TIP3   OH273620   4.416   5.707   5.255  0.6219 -0.0936 -0.1485
17402TIP3    H173621   4.336   5.664   5.225 -0.3247  1.8610 -0.5726
17402TIP3    H273622   4.459   5.736   5.175  0.4929  0.9839  0.1578
17403TIP3   OH273623   5.701   6.753   4.258  0.3393  0.1620 -0.3831
17403TIP3    H173624   5.697   6.828   4.317 -0.5327  1.4448 -1.9842
17403TIP3    H273625   5.761   6.692   4.301 -0.7990  0.6956  2.1433
17404TIP3   OH273626   5.944   0.997  16.039 -0.3484 -0.6243 -0.0847
17404TIP3    H173627   5.877   1.062  16.059 -1.7964 -2.0300 -0.1335
17404TIP3    H273628   6.000   0.995  16.116 -0.3245  0.6097 -0.0594
17405TIP3   OH273629   2.159   1.122   3.154 -0.3883 -0.3317 -0.1447
17405TIP3    H173630   2.252   1.120   3.178  0.0819  0.2800 -1.7470
17405TIP3    H273631   2.113   1.105   3.236  1.1455 -1.5407  0.5353
17406TIP3   OH273632   1.606   1.758   3.617  0.4246  0.1124 -0.5155
17406TIP3    H173633   1.611   1.684   3.678  0.3367 -0.4907 -1.2265
17406TIP3    H273634   1.650   1.829   3.663 -0.9890  0.1218  0.8971
17407TIP3   OH273635   3.111   0.037   2.419 -0.0590 -0.2570 -0.0397
17407TIP3    H173636   3.098   0.053   2.512  1.6964 -1.2393  0.4217
17407TIP3    H273637   3.200   0.003   2.413 -1.1022 -3.0082 -1.7034
17408TIP3   OH273638   6.593   3.126  16.279 -0.2893 -0.0577  0.3580
17408TIP3    H173639   6.620   3.207  16.237  0.6394  0.4668  1.8681
17408TIP3    H273640   6.562   3.154  16.366 -2.5081 -1.0384 -0.0371
17409TIP3   OH273641   3.999   4.256   2.665 -0.1870 -0.2513  0.1022
17409TIP3    H173642   4.040   4.271   2.579 -1.4898  0.6838 -0.3819
17409TIP3    H273643   3.907   4.240   2.645 -0.8194  1.4490  1.3970
17410TIP3   OH273644   3.694   5.668  11.164 -0.5947 -0.0564  0.0188
17410TIP3    H173645   3.740   5.611  11.102 -1.5858 -1.5387  0.5890
17410TIP3    H273646   3.685   5.615  11.243 -1.4099  0.9744  0.6436
17411TIP3   OH273647   4.027   0.888  15.222 -0.0685  1.0991  0.5929
17411TIP3    H173648   3.987   0.801  15.226 -0.8662  1.4033 -0.4175
17411TIP3    H273649   4.104   0.876  15.167  0.3797  0.8436  1.2564
17412TIP3   OH273650   3.905   5.320  13.829 -0.3747  0.2960 -0.3154
17412TIP3    H173651   3.898   5.399  13.882  2.0422  0.7912 -0.6018
17412TIP3    H273652   3.899   5.351  13.739 -1.3548 -0.1367 -0.4140
17413TIP3   OH273653   1.371   6.301  15.468  0.5111  0.2441 -0.5013
17413TIP3    H173654   1.334   6.227  15.515 -1.1022  1.0032 -0.4885
17413TIP3    H273655   1.369   6.275  15.376 -2.9074  1.2752 -0.8706
17414TIP3   OH273656   6.369   2.854   5.112  0.4903  0.2746  0.4129
17414TIP3    H173657   6.304   2.783   5.108  1.3145 -0.4407 -1.2001
17414TIP3    H273658   6.341   2.907   5.187 -1.6892 -0.2650  0.0704
17415TIP3   OH273659   0.991   2.676  16.180 -0.3005  0.0160  0.3617
17415TIP3    H173660   0.967   2.699  16.270 -0.6290 -0.4694  0.4039
17415TIP3    H273661   1.085   2.691  16.175 -0.3893  0.6719  0.5917
17416TIP3   OH273662   0.068   1.219  12.452  0.0263 -0.1494  0.1179
17416TIP3    H173663   0.057   1.314  12.457  1.1543  0.0047 -0.1776
17416TIP3    H273664   0.138   1.206  12.388 -0.5686 -1.2098 -0.3422
17417TIP3   OH273665   4.695   0.684   1.081  0.1718  0.3742 -0.3477
17417TIP3    H173666   4.762   0.669   1.148 -0.9282  0.1085  0.7333
17417TIP3    H273667   4.624   0.728   1.129 -0.3833  0.7443 -1.4870
17418TIP3   OH273668   4.490   1.561  16.990  0.4424  0.4324  0.7054
17418TIP3    H173669   4.440   1.548  17.071  0.5670 -2.4088  0.4360
17418TIP3    H273670   4.576   1.525  17.008  0.4102 -0.4513 -0.7290
17419TIP3   OH273671   4.323   1.339  15.415 -0.6073 -0.1873  0.2918
17419TIP3    H173672   4.370   1.421  15.397  3.8652 -2.6663 -0.8616
17419TIP3    H273673   4.332   1.327  15.509  0.6509 -0.2848  0.1836
17420TIP3   OH273674   1.230   2.580   1.859  0.1792  0.3398  0.2128
17420TIP3    H173675   1.151   2.616   1.898  0.4731  1.7097 -0.4148
17420TIP3    H273676   1.201   2.539   1.778 -0.0839 -0.5136  0.7126
17421TIP3   OH273677   2.611   6.143   6.093  0.1611 -0.3816 -0.1306
17421TIP3    H173678   2.610   6.080   6.021 -0.6734 -0.5208  0.0009
17421TIP3    H273679   2.665   6.101   6.160 -2.2103 -2.0120  0.8702
17422TIP3   OH273680   5.834   5.332   1.033 -0.0023  0.2713  0.0091
17422TIP3    H173681   5.862   5.240   1.029 -1.0899 -0.1283  0.8673
17422TIP3    H273682   5.915   5.382   1.023  0.9258 -0.8076  1.6137
17423TIP3   OH273683   6.594   5.814   3.739 -0.1837  0.0991 -0.3247
17423TIP3    H173684   6.635   5.835   3.655 -1.6036  0.4648 -0.9468
17423TIP3    H273685   6.650   5.745   3.776  0.9184  0.5115 -1.1763
17424TIP3   OH273686   0.617   2.589  13.035 -0.3186  0.0250 -0.0434
17424TIP3    H173687   0.536   2.639  13.048  0.4182  1.3610 -0.3876
17424TIP3    H273688   0.637   2.601  12.942  1.7645  2.1366  0.5827
17425TIP3   OH273689   4.122   2.932  15.968  0.1706  0.5448  0.2792
17425TIP3    H173690   4.049   2.973  15.922 -1.3133 -0.7846  1.3558
17425TIP3    H273691   4.148   2.997  16.034  0.7173  1.4513 -0.7772
17426TIP3   OH273692   5.052   2.693   2.541  0.0726 -0.3349  0.2349
17426TIP3    H173693   5.093   2.648   2.616  0.9031 -0.6233 -0.3808
17426TIP3    H273694   4.991   2.755   2.581  3.9050  3.0538  1.4670
17427TIP3   OH273695   1.191   3.399  16.284 -0.1617 -0.2422  0.7601
17427TIP3    H173696   1.124   3.386  16.351 -0.0238 -2.5739  0.5291
17427TIP3    H273697   1.263   3.441  16.330 -0.9969  0.4654  1.4733
17428TIP3   OH273698   2.847   2.577   2.581  0.2462 -0.2967 -0.2057
17428TIP3    H173699   2.890   2.551   2.500  0.6757  1.0056 -0.4109
17428TIP3    H273700   2.761   2.610   2.553 -0.0993 -0.9887  0.0061
17429TIP3   OH273701   2.516   2.041   4.821 -0.1697 -0.0435 -0.1839
17429TIP3    H173702   2.583   1.974   4.838 -1.5671 -1.3740  0.2558
17429TIP3    H273703   2.492   2.074   4.908 -0.9034 -0.4152 -0.2379
17430TIP3   OH273704   5.478   0.587  16.768 -0.6724 -0.0271 -0.0340
17430TIP3    H173705   5.507   0.566  16.679 -1.6515 -0.6222 -0.2271
17430TIP3    H273706   5.525   0.524  16.823 -1.2615 -0.7200 -0.3044
17431TIP3   OH273707   2.744   6.327  17.120  0.5111  0.0298 -0.5200
17431TIP3    H173708   2.792   6.368  17.192 -1.2591  0.9390  0.1907
17431TIP3    H273709   2.812   6.282  17.069  2.1946  1.6766  0.1385
17432TIP3   OH273710   2.155   3.380   1.238  0.6307  0.0415  0.0283
17432TIP3    H173711   2.162   3.417   1.150  1.6803  0.6017  0.3349
17432TIP3    H273712   2.137   3.287   1.223 -0.0778  0.2839 -0.7630
17433TIP3   OH273713   5.972   3.332  11.728  0.4382  0.1439  0.3819
17433TIP3    H173714   5.896   3.313  11.672  0.2133 -3.0248  1.5628
17433TIP3    H273715   5.948   3.298  11.814  1.8802  2.3357  1.7481
17434TIP3   OH273716   6.129   2.477   3.779  0.0805  1.0400  0.2588
17434TIP3    H173717   6.042   2.478   3.819 -0.2398 -2.6116 -0.0102
17434TIP3    H273718   6.113   2.482   3.685 -0.2643 -2.7419 -0.0269
17435TIP3   OH273719   3.471   1.999   1.144  0.2739 -0.7853  0.1057
17435TIP3    H173720   3.384   2.003   1.104  0.2077 -5.5545 -0.7832
17435TIP3    H273721   3.532   2.002   1.070  0.4248 -3.7919 -0.0070
17436TIP3   OH273722   6.761   2.325   2.189  0.2641 -0.1788 -0.1689
17436TIP3    H173723   6.692   2.295   2.129 -1.2310  2.0703  0.2971
17436TIP3    H273724   6.821   2.251   2.195 -1.2370 -1.6501 -1.8926
17437TIP3   OH273725   0.051   0.344   3.169 -0.0645  0.5095  0.0510
17437TIP3    H173726  -0.024   0.404   3.166  0.2935  0.9397 -0.4225
17437TIP3    H273727   0.111   0.377   3.102  1.4511  1.3412  1.7478
17438TIP3   OH273728   3.398   4.872  15.383 -0.1301  0.1597 -0.8086
17438TIP3    H173729   3.321   4.895  15.434 -0.6232 -1.9005 -0.5720
17438TIP3    H273730   3.402   4.939  15.314 -1.4027  0.9921 -0.1073
17439TIP3   OH273731   2.571   5.327  12.306  0.1049  0.3434  0.9995
17439TIP3    H173732   2.658   5.346  12.271 -0.1682 -0.6376 -0.3294
17439TIP3    H273733   2.532   5.268  12.241 -2.0269  1.7422  0.8837
17440TIP3   OH273734   5.180   4.800   1.591 -0.3117  0.0842  0.0927
17440TIP3    H173735   5.160   4.750   1.512 -0.0625 -2.0377  1.3108
17440TIP3    H273736   5.190   4.734   1.660 -1.5145  1.8955  2.1442
17441TIP3   OH273737   1.185   3.678   3.869 -0.3774  0.4674 -0.0605
17441TIP3    H173738   1.128   3.605   3.891 -1.7821  1.9821  1.6521
17441TIP3    H273739   1.254   3.676   3.936  1.1453 -0.7890 -1.5657
17442TIP3   OH273740   5.809   5.610  11.291 -0.2245 -0.0109  0.0500
17442TIP3    H173741   5.875   5.665  11.248 -0.7999  1.1733  0.6369
17442TIP3    H273742   5.822   5.626  11.384 -0.3712 -0.9340  0.2348
17443TIP3   OH273743   0.414   2.370  16.176 -0.0525  0.3439  0.2224
17443TIP3    H173744   0.504   2.349  16.203 -0.3890  0.1893  1.2607
17443TIP3    H273745   0.373   2.406  16.254 -0.5802  1.4598 -0.5463
17444TIP3   OH273746   2.069   1.296  13.654  0.1330  0.0386  0.1322
17444TIP3    H173747   2.097   1.205  13.654  0.1473  0.0236  1.1676
17444TIP3    H273748   2.148   1.345  13.675 -0.4116  0.0443  2.4495
17445TIP3   OH273749   0.197   5.843  12.570  0.2667  1.2679 -0.3243
17445TIP3    H173750   0.146   5.775  12.614 -1.0137  1.5527 -1.3291
17445TIP3    H273751   0.163   5.925  12.605  0.6189  1.4458 -0.3902
17446TIP3   OH273752   4.021   1.451  16.351  0.0931  0.1527  0.0323
17446TIP3    H173753   3.973   1.442  16.269 -1.0803 -1.3268  0.8302
17446TIP3    H273754   4.069   1.370  16.360  0.8275  0.6242  0.4460
17447TIP3   OH273755   0.181   0.882  11.044 -0.6248 -0.2310  0.0490
17447TIP3    H173756   0.238   0.859  11.117 -1.0320 -1.2105  0.0723
17447TIP3    H273757   0.207   0.823  10.973 -1.1877 -0.2544 -0.1436
17448TIP3   OH273758   0.193   0.948  13.998  0.6421  0.0639 -0.1706
17448TIP3    H173759   0.172   0.856  13.980  1.5365 -0.5174  1.5439
17448TIP3    H273760   0.110   0.994  13.987 -0.1933 -1.2068  0.5182
17449TIP3   OH273761   5.290   1.929  12.733  0.3564 -0.1926 -0.0805
17449TIP3    H173762   5.325   1.956  12.818 -0.2551 -0.0675  0.1390
17449TIP3    H273763   5.247   2.008  12.699 -0.2283 -0.4982 -0.0667
17450TIP3   OH273764   4.267   4.456  12.008  0.1520  1.1128 -0.5077
17450TIP3    H173765   4.242   4.436  11.918 -0.0449  0.5987 -0.3438
17450TIP3    H273766   4.190   4.499  12.045  0.5514  2.1413 -0.8411
17451TIP3   OH273767   2.498   3.831   2.478  0.0229  0.1481  0.1729
17451TIP3    H173768   2.464   3.894   2.415  0.3934 -0.0947 -0.2885
17451TIP3    H273769   2.593   3.833   2.464  0.2170  0.8941  1.5072
17452TIP3   OH273770   0.499   2.094   1.965  0.8002  0.2272  0.3840
17452TIP3    H173771   0.543   2.176   1.989  1.8958 -1.0952  3.3143
17452TIP3    H273772   0.407   2.120   1.952  1.3036  2.0728  0.1355
17453TIP3   OH273773   2.720   3.214   0.168  0.2179 -0.4185  0.4380
17453TIP3    H173774   2.779   3.150   0.131 -1.0681 -1.4094  0.0264
17453TIP3    H273775   2.725   3.200   0.263  0.9931 -0.1591  0.4386
17454TIP3   OH273776   1.970   1.129  12.279  0.5143 -0.3673  0.6602
17454TIP3    H173777   1.880   1.160  12.266  0.6969 -0.5688 -1.3125
17454TIP3    H273778   1.963   1.069  12.354 -0.5245  1.4182  2.0918
17455TIP3   OH273779   6.765   5.536   5.282 -0.2487 -0.1368 -0.3031
17455TIP3    H173780   6.687   5.546   5.337 -0.4162  0.5985 -0.6635
17455TIP3    H273781   6.831   5.589   5.326 -0.1636 -0.1641 -0.4003
17456TIP3   OH273782   5.536   5.118   4.519  1.0288 -0.1808  0.0938
17456TIP3    H173783   5.575   5.136   4.604  0.6712  1.7395 -0.0912
17456TIP3    H273784   5.594   5.160   4.456 -0.9793  2.4198 -0.2139
17457TIP3   OH273785   1.565   1.898  15.258  0.1088 -0.2651  0.2708
17457TIP3    H173786   1.563   1.979  15.207  1.2885 -1.0930 -1.1895
17457TIP3    H273787   1.657   1.869  15.253 -0.0696 -1.1784  1.6250
17458TIP3   OH273788   2.736   0.273   4.497 -0.1137  0.0748  0.4137
17458TIP3    H173789   2.667   0.280   4.562 -0.8925 -0.5889 -0.3168
17458TIP3    H273790   2.766   0.182   4.502  0.6883  0.3415  0.6922
17459TIP3   OH273791   2.470   3.451  14.922  0.1158  0.1644  0.1661
17459TIP3    H173792   2.436   3.392  14.854 -0.3521  0.8943 -0.2531
17459TIP3    H273793   2.481   3.396  14.999  2.4805 -1.1345 -0.9871
17460TIP3   OH273794   0.277   1.811  11.588 -0.7515  0.4981 -0.0354
17460TIP3    H173795   0.371   1.824  11.591 -0.7372  0.5965 -0.6965
17460TIP3    H273796   0.261   1.731  11.637 -0.5025  1.3291  1.4742
17461TIP3   OH273797   5.136   1.739  12.478 -0.4722 -0.5892  0.2188
17461TIP3    H173798   5.062   1.678  12.475  1.1600 -2.7118  0.4745
17461TIP3    H273799   5.179   1.720  12.561  1.7138 -1.1456 -0.9724
17462TIP3   OH273800   0.507   0.193  14.962  0.6801  0.3360 -0.1745
17462TIP3    H173801   0.576   0.170  15.024  0.6127 -0.6760 -0.4489
17462TIP3    H273802   0.538   0.274  14.921  0.6432  1.1255  1.2713
17463TIP3   OH273803   2.305   3.900  14.744 -0.0724 -0.3514  0.3136
17463TIP3    H173804   2.342   3.976  14.788 -1.7738 -0.4926  2.0879
17463TIP3    H273805   2.381   3.843  14.727  0.9364  0.8015  0.8195
17464TIP3   OH273806   5.782   4.813  12.120 -0.1390  0.4333 -0.1147
17464TIP3    H173807   5.783   4.876  12.192  0.5662  0.5794 -0.2516
17464TIP3    H273808   5.853   4.752  12.140 -3.3966 -3.0042  2.3451
17465TIP3   OH273809   4.066   1.296  15.304  0.4761 -0.7112  0.2900
17465TIP3    H173810   4.158   1.296  15.332  1.0463 -0.7881 -1.4172
17465TIP3    H273811   4.033   1.210  15.331  0.0025  0.3282  3.4248
17466TIP3   OH273812   3.002   2.761  13.334 -0.7345  0.7331 -0.7145
17466TIP3    H173813   2.971   2.678  13.298  0.2385 -1.1254  2.2998
17466TIP3    H273814   2.926   2.798  13.378 -0.4972 -0.2175  0.5776
17467TIP3   OH273815   0.104   1.960   2.917 -0.0586 -0.3179  0.2704
17467TIP3    H173816   0.195   1.979   2.897  0.4608 -0.6186  2.1114
17467TIP3    H273817   0.092   1.992   3.007 -1.6632 -0.6162  0.2065
17468TIP3   OH273818   4.696   1.137   4.457  0.8277  0.3054  0.4672
17468TIP3    H173819   4.620   1.091   4.492 -1.3571  1.9251 -1.8479
17468TIP3    H273820   4.688   1.131   4.362  3.0021  1.5011  0.1203
17469TIP3   OH273821   0.933   5.284   6.605  0.0813  0.6165 -0.0583
17469TIP3    H173822   0.915   5.211   6.545  0.6065  0.9764 -0.6611
17469TIP3    H273823   1.027   5.299   6.598 -0.0448  1.4485 -0.0499
17470TIP3   OH273824   6.424   1.136   1.168 -0.2188 -0.7805  0.0018
17470TIP3    H173825   6.454   1.116   1.080  0.3231  0.3296 -0.0805
17470TIP3    H273826   6.336   1.173   1.156  0.2573  0.3216 -0.1767
17471TIP3   OH273827   3.399   2.092   5.352  0.3692  0.2742 -0.1419
17471TIP3    H173828   3.407   2.112   5.445  0.2177  1.3450 -0.3555
17471TIP3    H273829   3.489   2.097   5.319  0.8033 -2.4794  0.3845
17472TIP3   OH273830   3.586   0.087  16.985  0.0401 -0.3274 -0.2216
17472TIP3    H173831   3.513   0.129  16.939  0.0798 -1.0008 -0.9312
17472TIP3    H273832   3.549   0.006  17.019  0.2182 -0.2125  0.2518
17473TIP3   OH273833   3.707   6.553  16.254  0.0834 -0.5935  0.0996
17473TIP3    H173834   3.709   6.583  16.345 -0.3247  1.5005 -0.5228
17473TIP3    H273835   3.631   6.596  16.216 -0.7707 -2.7883 -0.8536
17474TIP3   OH273836   5.119   4.371  12.335  0.3964  0.1224 -0.3288
17474TIP3    H173837   5.208   4.368  12.302 -0.1381  0.2458 -1.8470
17474TIP3    H273838   5.066   4.328  12.268 -0.6291 -0.4247  0.7804
17475TIP3   OH273839   4.860   4.539  11.146 -0.5832  0.2672 -0.0250
17475TIP3    H173840   4.853   4.632  11.126  2.6012  0.5214 -0.5720
17475TIP3    H273841   4.855   4.534  11.242 -1.2751  0.9325 -0.0249
17476TIP3   OH273842   1.647   4.667   1.920  0.1372  0.1232 -0.3921
17476TIP3    H173843   1.607   4.680   1.835  1.8520  0.1643 -1.2268
17476TIP3    H273844   1.723   4.725   1.921  1.2037 -1.2101  0.4169
17477TIP3   OH273845   4.349   2.755  15.698 -0.5097 -0.1506 -0.4566
17477TIP3    H173846   4.308   2.695  15.636  2.3198 -0.0890 -2.5799
17477TIP3    H273847   4.440   2.727  15.702 -0.0317  1.4194  1.8311
17478TIP3   OH273848   5.090   0.505   6.604 -0.0664  0.2360  0.3284
17478TIP3    H173849   5.080   0.529   6.512  1.4733  0.4101  0.1716
17478TIP3    H273850   5.117   0.586   6.647 -1.0467  0.2233  1.0006
17479TIP3   OH273851   4.400   0.126   1.408 -0.1323  0.7876 -0.2815
17479TIP3    H173852   4.467   0.160   1.467  1.4287  0.8524 -1.9854
17479TIP3    H273853   4.351   0.204   1.380 -0.2842  0.8722  0.2216
17480TIP3   OH273854   2.157   5.582  11.690 -0.1238  0.2610 -0.5564
17480TIP3    H173855   2.176   5.636  11.613  0.0686  1.2900  0.1920
17480TIP3    H273856   2.065   5.601  11.711 -0.1678  0.0070 -0.5149
17481TIP3   OH273857   4.756   2.074   2.904  0.7508  0.2768 -0.4209
17481TIP3    H173858   4.843   2.107   2.926  0.0574  0.5598  2.1939
17481TIP3    H273859   4.757   2.066   2.809  3.1230  1.6679 -0.5865
17482TIP3   OH273860   3.030   4.821  11.566 -0.9952  0.0661  0.1267
17482TIP3    H173861   3.114   4.787  11.598  0.5544  3.8449  0.6147
17482TIP3    H273862   3.036   4.814  11.471 -1.1778 -1.7976  0.2218
17483TIP3   OH273863   1.488   0.749  11.948 -0.9550  0.0070 -0.0466
17483TIP3    H173864   1.576   0.732  11.913 -1.3597  0.1113 -1.1606
17483TIP3    H273865   1.469   0.673  12.003 -0.0710  0.1047  0.3992
17484TIP3   OH273866   0.434   3.299  14.907 -0.9433  0.0078 -0.3308
17484TIP3    H173867   0.374   3.252  14.850 -0.1015 -0.3231 -0.9677
17484TIP3    H273868   0.458   3.236  14.974  0.2967 -0.5490 -1.2657
17485TIP3   OH273869   4.717   0.298  13.816 -0.2859  0.1630 -0.6161
17485TIP3    H173870   4.702   0.337  13.729  0.4278  0.0949 -0.7769
17485TIP3    H273871   4.682   0.210  13.809  0.3806 -0.0728 -1.0566
17486TIP3   OH273872   0.468   1.937  10.905 -0.5640  0.6870 -0.0333
17486TIP3    H173873   0.502   1.856  10.867  1.8011  1.3793  0.4425
17486TIP3    H273874   0.468   1.999  10.832 -0.1464  0.8514  0.0989
17487TIP3   OH273875   1.289   5.946   3.367 -0.2017 -0.2719 -0.1937
17487TIP3    H173876   1.350   5.953   3.293 -2.0067  0.2791 -1.6969
17487TIP3    H273877   1.265   6.036   3.387 -0.5678 -0.4842  0.3472
17488TIP3   OH273878   1.508   1.139  14.053 -0.1468  0.0302 -0.9668
17488TIP3    H173879   1.457   1.077  14.001  0.3031  1.5949 -3.4498
17488TIP3    H273880   1.596   1.101  14.057 -0.5097 -0.7590 -0.1024
17489TIP3   OH273881   3.706   1.066   3.778 -0.2197  0.3055 -0.2499
17489TIP3    H173882   3.624   1.052   3.731 -0.3128 -0.9986  0.2634
17489TIP3    H273883   3.772   1.073   3.709 -0.5543 -0.1690 -0.6272
17490TIP3   OH273884   4.842   2.907  16.710 -0.4097 -0.2329 -0.2432
17490TIP3    H173885   4.853   2.849  16.634 -0.7129  1.3825 -1.5794
17490TIP3    H273886   4.803   2.986  16.674 -0.4912  0.6177  1.6131
17491TIP3   OH273887   4.584   0.197  14.352  0.2680 -0.4596  0.0565
17491TIP3    H173888   4.614   0.217  14.441 -1.2257 -3.1085  1.2998
17491TIP3    H273889   4.579   0.282  14.308  0.7234  0.9918  2.6163
17492TIP3   OH273890   2.686   3.121   1.349 -0.2656  0.0737  0.5646
17492TIP3    H173891   2.692   3.027   1.336  0.7338  0.2559 -0.4582
17492TIP3    H273892   2.633   3.131   1.428  1.0816 -1.3971  1.7264
17493TIP3   OH273893   5.852   5.153  16.518  0.0185 -0.1219  0.1931
17493TIP3    H173894   5.858   5.126  16.426  0.3502  0.6646 -0.0305
17493TIP3    H273895   5.941   5.184  16.539  0.4128 -1.9199  1.3142
17494TIP3   OH273896   0.286   3.277  12.825 -0.5889  0.1610  0.5882
17494TIP3    H173897   0.246   3.238  12.747  1.8159 -1.1499 -0.1072
17494TIP3    H273898   0.345   3.344  12.791  0.5537 -0.4830  1.2224
17495TIP3   OH273899   6.724   4.195  12.405  0.0429 -0.3820 -0.3392
17495TIP3    H173900   6.631   4.171  12.404 -0.4409  1.3434 -2.1761
17495TIP3    H273901   6.731   4.265  12.470 -0.0850  0.0204 -0.7611
17496TIP3   OH273902   6.526   5.821  14.881 -0.1795 -0.6787 -0.0587
17496TIP3    H173903   6.434   5.823  14.856 -0.8997  2.6373  2.1363
17496TIP3    H273904   6.569   5.884  14.824  0.0528  0.0618  0.8999
17497TIP3   OH273905   4.267   4.007   4.332  0.2962  0.1392 -0.5313
17497TIP3    H173906   4.204   3.978   4.398 -0.7055 -1.0340 -1.9494
17497TIP3    H273907   4.253   4.101   4.325 -1.8736 -0.1819 -1.3377
17498TIP3   OH273908   2.963   5.903  15.902  0.2711  0.2382 -0.1948
17498TIP3    H173909   2.931   5.884  15.990  1.4753  0.1417  0.2488
17498TIP3    H273910   2.964   5.819  15.858 -4.1842  0.7556 -1.7470
17499TIP3   OH273911   5.425   5.340  16.826  0.3427 -0.1997 -0.3601
17499TIP3    H173912   5.404   5.381  16.910  1.9894  0.1430 -0.0918
17499TIP3    H273913   5.381   5.395  16.762 -0.4426 -0.1217  0.2237
17500TIP3   OH273914   1.721   0.417   4.788 -0.2406 -0.1185  0.3746
17500TIP3    H173915   1.738   0.417   4.693 -0.9803  0.5698  0.2353
17500TIP3    H273916   1.807   0.403   4.827 -0.1992 -2.6623 -0.4324
17501TIP3   OH273917   1.599   4.936  13.975  0.3007  0.7064  0.1305
17501TIP3    H173918   1.694   4.950  13.973  0.2068  1.3652 -1.6144
17501TIP3    H273919   1.564   5.017  14.013  0.3604  1.0676 -0.5738
17502TIP3   OH273920   0.851   2.603   5.608 -0.5395 -0.2734 -0.0346
17502TIP3    H173921   0.875   2.533   5.670 -0.1257 -0.9027 -0.8786
17502TIP3    H273922   0.883   2.683   5.649  1.2487 -0.8684 -0.1759
17503TIP3   OH273923   1.471   3.524  11.215  0.2512 -0.3743 -0.0915
17503TIP3    H173924   1.510   3.439  11.233  0.7425  0.1999  1.8343
17503TIP3    H273925   1.386   3.522  11.260  0.2215  0.1030 -0.1161
17504TIP3   OH273926   5.482   1.968   5.252 -0.2406 -0.1086 -0.3012
17504TIP3    H173927   5.467   2.044   5.196 -1.3475 -0.7491 -0.9052
17504TIP3    H273928   5.396   1.949   5.290  0.6151  0.8281  2.3356
17505TIP3   OH273929   0.724   4.253  10.808 -0.2825 -0.1700  0.1698
17505TIP3    H173930   0.749   4.213  10.724 -1.8148  1.6195 -1.2347
17505TIP3    H273931   0.767   4.199  10.874 -0.8296 -3.0379 -1.6342
17506TIP3   OH273932   4.413   2.874   2.648 -0.3654  0.5039 -0.2494
17506TIP3    H173933   4.491   2.928   2.637 -0.6938  1.1910  0.6304
17506TIP3    H273934   4.440   2.803   2.706 -0.3903  0.7513  0.0681
17507TIP3   OH273935   5.064   2.536  12.058 -0.0513 -0.6414 -0.3027
17507TIP3    H173936   5.091   2.583  11.979  0.7773  0.2469  0.5033
17507TIP3    H273937   4.987   2.486  12.029 -0.0947  0.0819 -1.5386
17508TIP3   OH273938   1.502   0.453  12.050  0.6267  0.0277  0.0292
17508TIP3    H173939   1.592   0.422  12.049  0.4249 -0.8521  2.3001
17508TIP3    H273940   1.465   0.422  11.967  1.8933 -1.2857 -0.0918
17509TIP3   OH273941   4.816   3.012  12.917 -0.2568 -0.5155  0.0937
17509TIP3    H173942   4.911   3.009  12.902 -0.1274 -0.5754  0.8715
17509TIP3    H273943   4.781   2.942  12.861  0.1242 -0.3306 -0.3867
17510TIP3   OH273944   0.233   2.539  11.790  0.2796  0.0724 -0.1392
17510TIP3    H173945   0.312   2.518  11.840 -1.1728  3.0241  3.9426
17510TIP3    H273946   0.164   2.487  11.832 -0.6654  1.0121 -0.4982
17511TIP3   OH273947   4.085   2.001   2.574  0.0270  0.3307 -0.4582
17511TIP3    H173948   4.139   1.941   2.523 -0.9478 -0.7465 -0.2492
17511TIP3    H273949   4.010   2.020   2.516 -0.2291  0.4482 -0.0884
17512TIP3   OH273950   1.800   5.065   1.403  0.8496 -0.2144 -0.2488
17512TIP3    H173951   1.887   5.055   1.440  0.1533  0.0185  1.5484
17512TIP3    H273952   1.747   5.100   1.474 -0.7764 -0.5589 -1.2246
17513TIP3   OH273953   5.696   6.404  14.650  0.1178  0.4088 -0.2508
17513TIP3    H173954   5.625   6.437  14.595 -0.6371  0.1124  0.5191
17513TIP3    H273955   5.771   6.458  14.628 -0.5195  1.1656 -0.6024
17514TIP3   OH273956   3.933   6.725   6.604  0.0540  0.1326 -0.0219
17514TIP3    H173957   3.886   6.642   6.594 -0.8967  0.4505  1.4061
17514TIP3    H273958   4.002   6.722   6.538 -0.2555 -1.5837 -0.3185
17515TIP3   OH273959   0.872   3.437   3.396 -0.4900 -0.1011 -0.1021
17515TIP3    H173960   0.837   3.485   3.470 -1.6741 -1.0879  0.0165
17515TIP3    H273961   0.930   3.371   3.435  1.2375  1.2617 -0.2722
17516TIP3   OH273962   5.549   1.945   5.529 -0.7006 -0.3638  0.0796
17516TIP3    H173963   5.481   1.880   5.548 -0.4684 -0.9180 -0.9016
17516TIP3    H273964   5.535   1.968   5.437  0.4088 -0.4533 -0.1280
17517TIP3   OH273965   3.116   2.486  16.539 -0.3938  0.1942  0.1371
17517TIP3    H173966   3.035   2.538  16.538 -0.5809 -0.0912  0.3035
17517TIP3    H273967   3.095   2.411  16.595 -0.0591  0.0444  0.0611
17518TIP3   OH273968   0.589   1.369   2.560  0.6704  0.1200 -0.4756
17518TIP3    H173969   0.556   1.300   2.503  0.1096 -1.1707  1.3219
17518TIP3    H273970   0.582   1.333   2.648 -1.9009  3.3218  0.8247
17519TIP3   OH273971   5.802   0.884  15.144  0.4334 -0.0279 -0.3448
17519TIP3    H173972   5.890   0.921  15.144  0.4127  0.0214 -0.5084
17519TIP3    H273973   5.806   0.813  15.080 -0.0872  1.0326 -1.5979
17520TIP3   OH273974   6.562   2.496  11.805  0.3622 -0.5395  0.1523
17520TIP3    H173975   6.499   2.510  11.875  0.0014 -2.0517  0.1510
17520TIP3    H273976   6.514   2.516  11.725  0.6776  0.8546  0.2729
17521TIP3   OH273977   6.151   6.438  15.009  0.6015  0.4324 -0.3090
17521TIP3    H173978   6.111   6.513  14.965 -0.9458 -0.9303 -1.3751
17521TIP3    H273979   6.076   6.382  15.031  1.7392 -0.9233  0.2034
17522TIP3   OH273980   3.815   3.605   2.153  0.5813 -0.3055  0.6623
17522TIP3    H173981   3.866   3.562   2.221 -2.3012 -0.5542  2.8646
17522TIP3    H273982   3.807   3.538   2.084  1.7366 -0.8384  1.0129
17523TIP3   OH273983   2.493   2.207  15.194 -0.2053 -0.2164 -0.9149
17523TIP3    H173984   2.454   2.122  15.214 -1.5436  0.2611 -1.3614
17523TIP3    H273985   2.530   2.195  15.106 -0.8971 -0.1950 -1.2210
17524TIP3   OH273986   5.224   2.111   2.622 -0.6879 -0.4168 -0.1523
17524TIP3    H173987   5.204   2.204   2.607  1.0183 -0.1517 -1.0844
17524TIP3    H273988   5.190   2.093   2.710  0.0459  1.4390  0.5611
17525TIP3   OH273989   4.240   6.155   2.934  0.2722 -0.3739  0.2861
17525TIP3    H173990   4.291   6.114   3.005 -0.4735 -3.9007 -0.9934
17525TIP3    H273991   4.153   6.165   2.971  0.6952  1.1291  0.9364
17526TIP3   OH273992   5.766   2.173  11.235 -0.3408  0.4650 -0.0549
17526TIP3    H173993   5.857   2.145  11.250 -0.0690  0.2573 -1.8986
17526TIP3    H273994   5.774   2.267  11.219 -0.8181  1.0020  2.4592
17527TIP3   OH273995   2.810   0.251  16.389  0.0462  0.2610  0.3186
17527TIP3    H173996   2.876   0.304  16.433  0.6770 -0.9517  0.9096
17527TIP3    H273997   2.726   0.285  16.420  0.4465 -0.8039  2.8988
17528TIP3   OH273998   0.753   2.820   4.933  0.3935 -0.3222 -0.2193
17528TIP3    H173999   0.687   2.878   4.972  1.7955  0.8988  0.4756
17528TIP3    H274000   0.822   2.814   5.000  1.7397 -0.2040 -1.5325
17529TIP3   OH274001   3.837   0.182   3.750 -0.3383  0.1695 -0.0045
17529TIP3    H174002   3.905   0.130   3.707 -0.9306  1.0510 -2.1008
17529TIP3    H274003   3.803   0.239   3.682 -2.1574  0.8289  1.3696
17530TIP3   OH274004   3.473   0.169   5.486  0.1640  0.5312  0.2963
17530TIP3    H174005   3.394   0.115   5.493 -1.3768  2.2539 -2.1456
17530TIP3    H274006   3.443   0.258   5.505  1.7795  1.0923  0.3744
17531TIP3   OH274007   4.071   1.995  11.376 -0.2360 -0.2403 -0.2182
17531TIP3    H174008   4.030   1.937  11.312 -0.5285  0.1612 -0.4057
17531TIP3    H274009   4.020   2.076  11.369 -1.2241 -0.6611  1.5617
17532TIP3   OH274010   3.225   2.671  12.633  0.0091  0.3122 -0.0920
17532TIP3    H174011   3.228   2.611  12.558  2.0697  1.0931 -0.7273
17532TIP3    H274012   3.206   2.756  12.593  0.1050  0.5622  0.3965
17533TIP3   OH274013   5.941   5.599   1.275 -0.2015 -0.8475 -0.3253
17533TIP3    H174014   6.010   5.663   1.297  0.3632 -1.7712  0.7567
17533TIP3    H274015   5.902   5.632   1.194  2.0395 -0.6878 -1.4157
17534TIP3   OH274016   2.528   0.254  15.735 -0.1546 -0.9029  0.8946
17534TIP3    H174017   2.499   0.182  15.678  0.4364 -0.3350 -0.1556
17534TIP3    H274018   2.450   0.310  15.744  0.2363  0.0396 -1.0102
17535TIP3   OH274019   5.861   0.198   6.438 -0.3753  0.3289 -0.2177
17535TIP3    H174020   5.805   0.200   6.360 -1.4145 -1.9198  0.4094
17535TIP3    H274021   5.804   0.167   6.508  0.4444  2.5750  1.5975
17536TIP3   OH274022   2.983   4.351  15.677  0.1119 -0.3558  0.1709
17536TIP3    H174023   2.910   4.325  15.734  0.2516  0.4527  0.7349
17536TIP3    H274024   2.997   4.275  15.620 -0.6129 -0.8421  0.6214
17537TIP3   OH274025   2.041   0.375   3.727 -0.7929 -0.0440 -0.9087
17537TIP3    H174026   2.036   0.307   3.660 -2.1597  2.3348 -3.3822
17537TIP3    H274027   2.131   0.405   3.725 -0.7343 -0.2470 -1.3981
17538TIP3   OH274028   0.065   3.119  15.103  0.4985  0.5682 -0.6522
17538TIP3    H174029   0.037   3.183  15.169 -1.8806  0.5142 -1.4975
17538TIP3    H274030   0.099   3.173  15.032  0.9603  0.7486 -0.2976
17539TIP3   OH274031   0.077   2.645  12.851  0.5841 -0.2496  0.2310
17539TIP3    H174032   0.009   2.587  12.886 -0.2614 -0.1815 -1.2063
17539TIP3    H274033   0.038   2.732  12.853  1.9986  0.4100  2.7567
17540TIP3   OH274034   4.076   4.003   1.547  0.0159 -0.1530  0.0603
17540TIP3    H174035   4.011   3.939   1.578 -0.5103 -0.0763 -0.8740
17540TIP3    H274036   4.068   4.076   1.609 -2.0531  0.6316 -1.0340
17541TIP3   OH274037   0.698   3.217  15.261 -0.0857 -0.3106  0.2282
17541TIP3    H174038   0.750   3.261  15.194  0.0973  0.5152  0.8982
17541TIP3    H274039   0.681   3.130  15.225  1.7029 -0.5848 -0.0485
17542TIP3   OH274040   1.945   0.749   5.436 -0.6439  0.1359 -0.0984
17542TIP3    H174041   2.029   0.702   5.440 -0.9724 -0.4541 -0.0503
17542TIP3    H274042   1.887   0.689   5.389 -0.9266  0.7191 -0.4895
17543TIP3   OH274043   0.395   0.128   5.850 -0.8650 -0.1701  0.1515
17543TIP3    H174044   0.467   0.164   5.798  0.2666  1.5916  2.7567
17543TIP3    H274045   0.434   0.057   5.901 -1.2224  0.0675  0.7695
17544TIP3   OH274046   0.374   1.420   4.095  0.0832 -0.0382 -0.4463
17544TIP3    H174047   0.350   1.507   4.128  0.6708  0.0209 -0.1554
17544TIP3    H274048   0.343   1.419   4.004 -0.6515  0.1717 -0.2015
17545TIP3   OH274049   1.327   1.556  15.703  0.4653 -0.4841 -0.4615
17545TIP3    H174050   1.330   1.650  15.716 -0.5256 -0.3938 -0.7979
17545TIP3    H274051   1.375   1.542  15.621 -0.0830 -0.1746 -0.8410
17546TIP3   OH274052   2.083   5.234  12.358  0.1583  0.2089  0.4418
17546TIP3    H174053   2.051   5.189  12.437  0.4382 -1.4211 -0.3280
17546TIP3    H274054   2.154   5.290  12.389 -0.7634  0.7910  1.5704
17547TIP3   OH274055   2.511   5.815  16.061  0.2827  0.5549 -0.0883
17547TIP3    H174056   2.424   5.776  16.057  0.5067 -0.3574  2.0931
17547TIP3    H274057   2.495   5.909  16.069 -0.5579  0.3706  0.6414
17548TIP3   OH274058   1.749   2.827   2.406  0.1302 -0.2555  0.5933
17548TIP3    H174059   1.787   2.761   2.347  1.0998  0.6742  0.1476
17548TIP3    H274060   1.752   2.786   2.493 -0.5761 -1.3328  0.1346
17549TIP3   OH274061   2.266   6.461   3.718 -0.0030  0.2901 -0.3247
17549TIP3    H174062   2.308   6.390   3.669 -0.5195  0.3756 -0.9107
17549TIP3    H274063   2.308   6.540   3.685 -0.3254  0.3457 -0.6007
17550TIP3   OH274064   4.409   2.521  17.038 -0.3909  0.0463 -0.3625
17550TIP3    H174065   4.496   2.506  16.999 -0.8389  0.7989 -1.7362
17550TIP3    H274066   4.353   2.456  16.997 -0.5053 -0.4038  0.4878
17551TIP3   OH274067   1.879   5.991  12.475  0.7228  0.3440  0.0339
17551TIP3    H174068   1.838   5.956  12.553  1.9112 -0.2139  0.4384
17551TIP3    H274069   1.811   6.044  12.433 -0.2345 -0.1689  0.9008
17552TIP3   OH274070   2.575   1.524  14.874 -0.1333  0.1995 -0.2843
17552TIP3    H174071   2.502   1.467  14.852  0.2145  0.1591 -1.4124
17552TIP3    H274072   2.541   1.584  14.941 -0.4944 -1.3254  0.9454
17553TIP3   OH274073   3.179   1.474  16.832 -0.4333 -0.1973 -0.0940
17553TIP3    H174074   3.204   1.385  16.810  0.5919 -0.1383  0.7272
17553TIP3    H274075   3.262   1.522  16.836 -0.9192  0.6643  0.0278
17554TIP3   OH274076   3.836   6.453  11.453  0.0396  0.2290  0.5317
17554TIP3    H174077   3.847   6.438  11.547 -0.5705  1.1088  0.7525
17554TIP3    H274078   3.742   6.443  11.438  0.1971 -0.4399 -0.0936
17555TIP3   OH274079   5.628   2.463  14.226 -0.0628 -0.6730  0.6183
17555TIP3    H174080   5.534   2.483  14.221 -0.2931 -1.4002  1.5803
17555TIP3    H274081   5.672   2.544  14.200 -0.9592 -0.0309  1.0512
17556TIP3   OH274082   5.864   5.638   4.354  0.1449  0.3734 -0.2787
17556TIP3    H174083   5.852   5.727   4.323 -1.0216  1.5015  3.0331
17556TIP3    H274084   5.959   5.629   4.365  0.3869  0.6676 -1.8760
17557TIP3   OH274085   2.126   4.677   1.239 -0.0239  0.1231  0.5153
17557TIP3    H174086   2.195   4.665   1.174 -0.3824 -0.2870  0.2040
17557TIP3    H274087   2.063   4.735   1.196  0.9619  1.9626  1.4479
17558TIP3   OH274088   6.655   0.791   2.580 -0.3362  0.2819 -0.3612
17558TIP3    H174089   6.642   0.864   2.640  0.0551  1.3837 -1.5622
17558TIP3    H274090   6.742   0.757   2.602  0.0191  1.0006 -0.6227
17559TIP3   OH274091   0.192   3.371   3.823 -0.2278  0.0252 -0.8660
17559TIP3    H174092   0.184   3.278   3.847 -0.9658  0.7295  2.0152
17559TIP3    H274093   0.101   3.402   3.820  0.0117  0.6567 -1.8961
17560TIP3   OH274094   4.758   3.882   4.886 -0.2833  0.9024  0.8759
17560TIP3    H174095   4.839   3.931   4.874  0.0132  0.0441 -1.2352
17560TIP3    H274096   4.770   3.803   4.832 -1.8131 -0.1219  1.9541
17561TIP3   OH274097   2.578   5.467  15.693  0.0127  0.3317 -0.5015
17561TIP3    H174098   2.568   5.532  15.763  0.4020 -1.1720  1.0176
17561TIP3    H274099   2.641   5.404  15.728 -2.4017 -2.4085 -0.7220
17562TIP3   OH274100   4.285   6.415   2.810 -0.4391 -0.3997  0.7432
17562TIP3    H174101   4.286   6.324   2.840 -1.1909 -0.4280  0.6925
17562TIP3    H274102   4.221   6.416   2.739  0.7313 -0.1598 -0.3429
17563TIP3   OH274103   6.212   1.008  11.024 -0.5127 -0.2284  0.6872
17563TIP3    H174104   6.168   1.083  11.063  0.4727  0.6923  0.0880
17563TIP3    H274105   6.297   1.005  11.066  0.3103  0.3772 -0.8604
17564TIP3   OH274106   5.592   2.345  15.559 -0.3726 -0.2691 -0.5630
17564TIP3    H174107   5.505   2.336  15.519 -0.2319 -0.1337 -0.9019
17564TIP3    H274108   5.629   2.257  15.556 -1.2943 -0.7812  1.4462
17565TIP3   OH274109   0.889   5.615   4.554  0.2092  0.0508 -0.3453
17565TIP3    H174110   0.985   5.611   4.549  0.3781  1.5005  0.8927
17565TIP3    H274111   0.867   5.699   4.513 -0.3090  0.7809  1.3472
17566TIP3   OH274112   2.892   3.264  10.413  0.0313  0.1058 -0.4518
17566TIP3    H174113   2.908   3.170  10.405  1.5317  0.0415  2.1543
17566TIP3    H274114   2.802   3.270  10.444  0.5706 -0.6935  1.4560
17567TIP3   OH274115   5.920   5.045   1.908  0.3057  0.0085 -0.6579
17567TIP3    H174116   5.916   5.139   1.889  1.3901 -0.1243 -1.6483
17567TIP3    H274117   5.904   5.003   1.823 -1.0187 -0.7380 -0.0775
17568TIP3   OH274118   3.924   0.048   1.897  0.4322  0.0905  0.1682
17568TIP3    H174119   3.995   0.004   1.851 -1.5794 -2.0923 -1.0528
17568TIP3    H274120   3.851  -0.013   1.893 -1.9491  2.7232  0.2202
17569TIP3   OH274121   2.702   0.762   2.356 -0.1683 -0.1008  0.0251
17569TIP3    H174122   2.633   0.821   2.324  0.6345  0.8638  0.0090
17569TIP3    H274123   2.660   0.677   2.362 -1.2128  0.3561 -0.5147
17570TIP3   OH274124   4.590   1.251   2.817 -0.0560  0.2745 -0.6872
17570TIP3    H174125   4.646   1.266   2.894 -1.3730  0.3261  0.3072
17570TIP3    H274126   4.585   1.155   2.810 -1.2993  0.2213  0.3929
17571TIP3   OH274127   3.481   1.557   5.802  0.0867  0.3200  0.3678
17571TIP3    H174128   3.574   1.562   5.822  0.2391  0.1556 -0.2780
17571TIP3    H274129   3.440   1.619   5.861  0.7557  1.4277 -0.3031
17572TIP3   OH274130   4.629   2.321   2.681  0.4587 -0.3924  0.8758
17572TIP3    H174131   4.617   2.240   2.632  0.2342 -1.1725  2.1554
17572TIP3    H274132   4.551   2.373   2.662  1.4099  0.3320 -1.3438
17573TIP3   OH274133   1.740   0.977  15.609 -0.2623 -0.3394  0.2653
17573TIP3    H174134   1.767   1.062  15.645 -1.0601 -0.3851  1.0212
17573TIP3    H274135   1.742   0.918  15.683 -3.4623 -0.0903  0.6991
17574TIP3   OH274136   1.204   0.762   0.261  0.5777  0.1287  0.1335
17574TIP3    H174137   1.224   0.689   0.202 -1.6457 -2.4935  2.3365
17574TIP3    H274138   1.274   0.825   0.245  1.7541 -1.7261 -3.0669
17575TIP3   OH274139   3.128   2.453  12.051 -0.2811  0.3124 -0.3951
17575TIP3    H174140   3.084   2.390  11.994 -1.3153 -0.3801  1.0948
17575TIP3    H274141   3.186   2.400  12.106 -1.4101  0.5603  1.1062
17576TIP3   OH274142   3.191   0.392  13.919 -0.1795 -0.0470  0.1129
17576TIP3    H174143   3.228   0.445  13.990 -0.7479  0.3546  0.1192
17576TIP3    H274144   3.142   0.455  13.866 -0.2231 -0.4420 -0.3164
17577TIP3   OH274145   1.465   1.861  13.706  0.1302  0.2909 -0.2780
17577TIP3    H174146   1.413   1.928  13.750  2.8707  0.9654  2.2577
17577TIP3    H274147   1.492   1.802  13.777  0.3393 -1.7526 -1.9765
17578TIP3   OH274148   4.205   0.609  16.111  0.3087  0.0196  0.3502
17578TIP3    H174149   4.176   0.664  16.038 -0.8471 -1.1680 -0.1376
17578TIP3    H274150   4.204   0.520  16.075 -1.9666 -0.8209  2.2362
17579TIP3   OH274151   6.002   1.238   2.664  0.0841  0.6069  0.2295
17579TIP3    H174152   5.992   1.145   2.641  0.2414  0.7068 -0.2551
17579TIP3    H274153   6.018   1.281   2.581 -1.2631  1.2554  0.2745
17580TIP3   OH274154   0.423   2.701  15.431 -0.4587 -0.6162  0.4950
17580TIP3    H174155   0.341   2.733  15.470 -1.2957 -0.9845 -0.8820
17580TIP3    H274156   0.467   2.655  15.503 -0.0843  1.9439  2.0257
17581TIP3   OH274157   0.025   6.355   5.693 -0.0008 -0.0354  0.0626
17581TIP3    H174158  -0.018   6.334   5.776 -0.9063  1.7022  0.0673
17581TIP3    H274159   0.042   6.449   5.697  2.7293 -0.4273 -0.4795
17582TIP3   OH274160   2.946   0.837  12.171  0.1982  0.2313  0.0491
17582TIP3    H174161   2.882   0.766  12.171  0.9045 -0.4371 -1.1533
17582TIP3    H274162   2.949   0.866  12.262 -0.2057 -1.1968  0.5433
17583TIP3   OH274163   0.214   4.096  14.700  0.2612 -0.2519  0.6287
17583TIP3    H174164   0.141   4.098  14.761  0.8586  0.9917  1.3263
17583TIP3    H274165   0.215   4.006  14.668 -1.6601 -0.2553  0.4756
17584TIP3   OH274166   5.919   6.304   1.306  0.2116  0.1315 -0.3350
17584TIP3    H174167   5.870   6.338   1.231  1.4249  0.8199 -0.8315
17584TIP3    H274168   5.928   6.210   1.288 -0.0887  0.1739 -0.7184
17585TIP3   OH274169   0.043   5.249  12.602 -0.7067 -0.0500  0.6570
17585TIP3    H174170   0.101   5.259  12.677 -0.4968  1.8426  0.2775
17585TIP3    H274171   0.102   5.235  12.528 -0.7983  0.4266  0.4918
17586TIP3   OH274172   2.401   0.746  13.086  0.7904  0.3030 -0.3763
17586TIP3    H174173   2.320   0.697  13.100  1.3218 -0.0603  1.9518
17586TIP3    H274174   2.436   0.712  13.004 -0.3205 -1.1308 -0.2991
17587TIP3   OH274175   3.002   0.511  14.196 -0.1335  0.4599 -0.8377
17587TIP3    H174176   2.935   0.531  14.130 -0.1632  1.6620 -0.4772
17587TIP3    H274177   2.964   0.441  14.248 -1.2364  1.2694 -0.5039
17588TIP3   OH274178   4.092   1.796  16.757 -0.4988  0.2828  0.5626
17588TIP3    H174179   4.030   1.864  16.785 -0.3039 -0.1202  2.0853
17588TIP3    H274180   4.117   1.752  16.838  1.2287 -0.0442 -0.1064
17589TIP3   OH274181   2.778   0.810   0.945 -0.0695 -0.0805  0.0447
17589TIP3    H174182   2.820   0.784   1.026  1.4294  2.2555  0.0936
17589TIP3    H274183   2.779   0.731   0.891  0.6131 -1.1616  1.5868
17590TIP3   OH274184   4.058   6.357  11.234  0.2725  0.4396  0.2007
17590TIP3    H174185   3.973   6.338  11.273 -0.3717 -0.0434 -1.3448
17590TIP3    H274186   4.037   6.401  11.151  1.5057  0.0766 -0.3290
17591TIP3   OH274187   6.336   0.751  16.757 -0.4266 -0.2110 -0.4192
17591TIP3    H174188   6.317   0.660  16.778  1.0306 -0.8570 -1.6851
17591TIP3    H274189   6.308   0.761  16.666 -1.7938  1.0152  0.0990
17592TIP3   OH274190   1.017   6.458   0.311  0.1037  0.1526 -0.0947
17592TIP3    H174191   0.984   6.368   0.313 -0.8832  0.5063  0.0237
17592TIP3    H274192   0.955   6.508   0.363  0.4872  0.9591 -0.3883
17593TIP3   OH274193   2.964   4.156  10.559 -0.8182  0.2344 -0.1463
17593TIP3    H174194   2.915   4.237  10.555 -1.4575 -0.1269  0.2255
17593TIP3    H274195   2.929   4.110  10.636  0.7703  0.4001  0.7216
17594TIP3   OH274196   1.700   3.123   3.509  0.1106  0.3493 -0.2637
17594TIP3    H174197   1.673   3.200   3.458  0.3287  0.4602 -0.2137
17594TIP3    H274198   1.620   3.094   3.552  0.0552  0.6345 -0.1707
17595TIP3   OH274199   3.733   1.233  14.457  0.5380 -0.1694 -0.2488
17595TIP3    H174200   3.723   1.153  14.406  2.3392 -0.2974 -0.4840
17595TIP3    H274201   3.778   1.294  14.398  1.0762  0.2770  0.5955
17596TIP3   OH274202   5.671   0.532   2.599  0.2453  0.2652  0.2335
17596TIP3    H174203   5.701   0.547   2.509  1.1477 -0.2327  0.4350
17596TIP3    H274204   5.650   0.438   2.601  1.5031 -0.0185  0.8887
17597TIP3   OH274205   4.344   4.320   2.554  0.2992 -0.1173 -0.2354
17597TIP3    H174206   4.340   4.243   2.611  2.4948 -1.3361 -1.5805
17597TIP3    H274207   4.270   4.309   2.494  0.0245 -0.6676  0.1873
17598TIP3   OH274208   3.853   3.370  12.322  0.0265  0.2556  0.3393
17598TIP3    H174209   3.771   3.375  12.371  0.7910 -0.9757  1.8444
17598TIP3    H274210   3.879   3.278  12.329  1.6722  0.6732  0.1361
17599TIP3   OH274211   4.464   0.422   4.711 -0.3341  0.0394 -0.3750
17599TIP3    H174212   4.515   0.473   4.774  0.4947 -1.1056 -0.0772
17599TIP3    H274213   4.417   0.358   4.765 -1.0628  0.2319 -0.7709
17600TIP3   OH274214   5.903   4.942   0.219  0.2824  0.1963 -0.4016
17600TIP3    H174215   5.955   4.878   0.268 -0.6848 -0.1988  0.1456
17600TIP3    H274216   5.877   5.007   0.284 -0.3557  0.0949 -0.5465
17601TIP3   OH274217   5.386   2.573  12.376  0.5219  0.0667  0.5227
17601TIP3    H174218   5.388   2.550  12.283  3.0096  3.1792 -0.3785
17601TIP3    H274219   5.296   2.602  12.392  0.2231  0.1291 -1.1148
17602TIP3   OH274220   4.536   0.871   3.612 -0.3504  0.0396 -0.1132
17602TIP3    H174221   4.540   0.818   3.691 -1.1677 -1.6893 -1.1857
17602TIP3    H274222   4.627   0.876   3.582 -0.2153 -0.4394  0.2042
17603TIP3   OH274223   4.033   6.734   2.865  0.4296  0.1923 -0.3250
17603TIP3    H174224   4.088   6.802   2.902  2.5884 -1.8908  0.5654
17603TIP3    H274225   4.050   6.738   2.771  1.1399  0.4191 -0.1931
17604TIP3   OH274226   2.380   5.049   3.744  0.7588 -0.0896  0.3177
17604TIP3    H174227   2.341   4.980   3.798  1.0797 -0.4011  0.1602
17604TIP3    H274228   2.321   5.123   3.753  0.0442 -0.6053 -0.0439
17605TIP3   OH274229   6.240   0.748  11.241  0.2472 -0.2437 -0.0475
17605TIP3    H174230   6.218   0.680  11.178  0.2792  0.1758 -0.5175
17605TIP3    H274231   6.155   0.787  11.265  0.3341  0.4688 -0.8341
17606TIP3   OH274232   5.935   5.061   1.215 -0.0015  0.0660 -0.1800
17606TIP3    H174233   5.939   5.137   1.272  0.2585  0.6140 -0.9102
17606TIP3    H274234   6.004   5.076   1.149 -2.1507  0.9101 -2.3970
17607TIP3   OH274235   5.109   0.736  13.901  0.3686 -0.1921  0.5170
17607TIP3    H174236   5.106   0.827  13.872 -0.0428 -0.6140 -0.8326
17607TIP3    H274237   5.063   0.737  13.985  0.1996  0.8191  0.4313
17608TIP3   OH274238   2.421   6.743  12.474 -0.1796  0.2998 -0.0282
17608TIP3    H174239   2.462   6.826  12.500 -2.6499  1.5125  0.3560
17608TIP3    H274240   2.398   6.756  12.381  1.1796 -0.7676 -0.5429
17609TIP3   OH274241   0.133   4.261   3.611  0.0144  0.4250 -0.2603
17609TIP3    H174242   0.098   4.176   3.638 -0.3458  0.0712 -1.7569
17609TIP3    H274243   0.189   4.241   3.536 -1.4658  1.6831 -1.7610
17610TIP3   OH274244   3.672   6.097  16.536 -0.0890  0.4088  0.4847
17610TIP3    H174245   3.623   6.122  16.615  1.0919  4.0022  0.2502
17610TIP3    H274246   3.661   6.171  16.477  2.3275 -0.4212 -1.1340
17611TIP3   OH274247   3.241   5.398   0.842  0.3762 -0.5618 -0.4059
17611TIP3    H174248   3.315   5.446   0.878 -1.0955  0.5554  1.3004
17611TIP3    H274249   3.273   5.309   0.829  2.2159  0.0876 -0.4902
17612TIP3   OH274250   0.610   3.963  16.353  0.1328  0.1493  0.2145
17612TIP3    H174251   0.599   3.868  16.346  0.3110  0.2317 -1.8763
17612TIP3    H274252   0.697   3.975  16.390  0.8802 -0.5496 -1.2218
17613TIP3   OH274253   1.045   3.851  12.122 -0.1950  0.2235 -0.3245
17613TIP3    H174254   1.032   3.757  12.117 -0.2730  0.2800 -1.2369
17613TIP3    H274255   1.115   3.870  12.060  0.6365  0.6250  0.6926
17614TIP3   OH274256   0.614   0.160   3.245  0.0102 -0.4318  0.7337
17614TIP3    H174257   0.610   0.079   3.296 -0.2496  0.1528  1.6786
17614TIP3    H274258   0.522   0.183   3.228  0.0812 -0.3500  0.4542
17615TIP3   OH274259   4.666   5.366   0.021 -0.0783 -0.0462  0.0338
17615TIP3    H174260   4.716   5.445   0.039  0.5349 -0.3972 -0.0908
17615TIP3    H274261   4.608   5.356   0.096 -0.9452  1.1114 -0.4562
17616TIP3   OH274262   1.010   2.683  11.324 -0.2610 -0.0734  0.0716
17616TIP3    H174263   0.990   2.701  11.416  1.6342 -1.4854  0.8362
17616TIP3    H274264   0.974   2.596  11.309 -1.8723  0.7392 -1.0179
17617TIP3   OH274265   2.996   2.306   4.779  0.9639  0.2765 -0.3038
17617TIP3    H174266   3.052   2.381   4.759  0.4427  0.8520  0.3558
17617TIP3    H274267   2.948   2.331   4.857 -2.0772  0.8370 -2.1693
17618TIP3   OH274268   3.785   1.290  15.856  0.1280 -0.1942  0.1908
17618TIP3    H174269   3.698   1.327  15.839  0.4544  1.2299  1.3932
17618TIP3    H274270   3.844   1.365  15.849  1.5040 -1.3959 -2.0880
17619TIP3   OH274271   0.196   4.666  15.102 -0.2227 -0.0742  0.1969
17619TIP3    H174272   0.265   4.635  15.043 -1.1502  2.5064 -2.4681
17619TIP3    H274273   0.190   4.760  15.084 -2.1170  0.4308  2.8720
17620TIP3   OH274274   5.320   5.653  14.035  0.2612 -1.3563 -0.4021
17620TIP3    H174275   5.233   5.621  14.009  0.2130 -1.8689  0.3407
17620TIP3    H274276   5.356   5.692  13.956 -0.7182 -0.9868 -0.6845
17621TIP3   OH274277   6.525   3.957  12.972  0.2785 -0.0493 -0.1586
17621TIP3    H174278   6.544   3.864  12.984 -2.5721 -0.5695  1.2864
17621TIP3    H274279   6.468   3.960  12.895 -1.0227  0.2241  0.7795
17622TIP3   OH274280   5.271   2.885  16.568  0.7324  0.2001 -0.0904
17622TIP3    H174281   5.346   2.930  16.530  0.4220  0.3600 -0.5200
17622TIP3    H274282   5.249   2.936  16.646  0.8997  0.3058 -0.1129
17623TIP3   OH274283   2.282   1.960   6.288  0.0719  0.3059 -0.2979
17623TIP3    H174284   2.213   1.962   6.354 -0.2416  2.3936 -0.6134
17623TIP3    H274285   2.241   1.919   6.212  0.8474 -3.4369  1.0979
17624TIP3   OH274286   1.203   3.773  16.416 -0.7100 -0.5591  0.0691
17624TIP3    H174287   1.170   3.729  16.338 -1.8853  1.4019 -0.6201
17624TIP3    H274288   1.298   3.772  16.406 -0.7903 -1.3934 -0.7631
17625TIP3   OH274289   5.079   6.754  14.627 -0.4660 -0.2610 -0.1730
17625TIP3    H174290   5.107   6.756  14.535 -0.8350 -0.6508 -0.2966
17625TIP3    H274291   5.008   6.818  14.632 -1.7298 -1.5807 -0.5983
17626TIP3   OH274292   3.983   5.345  10.723  0.1877 -0.0452  0.1068
17626TIP3    H174293   4.066   5.315  10.760 -0.1830 -0.6988  0.4305
17626TIP3    H274294   3.917   5.285  10.760 -0.4881  0.7445  0.2128
17627TIP3   OH274295   6.490   2.588   4.337 -0.2907 -0.4155 -0.4328
17627TIP3    H174296   6.549   2.547   4.400  0.1537  0.0327 -0.5500
17627TIP3    H274297   6.438   2.515   4.302 -0.6084 -0.6500  0.5183
17628TIP3   OH274298   5.134   5.917  13.812  0.8672  0.2989  0.4217
17628TIP3    H174299   5.039   5.913  13.806  0.8540  1.5108 -0.4594
17628TIP3    H274300   5.159   5.990  13.756  2.3493 -0.2140  0.3609
17629TIP3   OH274301   5.614   4.928   0.083  0.4379 -0.3840  0.1412
17629TIP3    H174302   5.690   4.940   0.026  0.3951 -3.1450 -0.6355
17629TIP3    H274303   5.602   5.013   0.125  3.7273  0.2610  0.0439
17630TIP3   OH274304   0.153   4.470  15.572  0.0029  0.2880  0.2769
17630TIP3    H174305   0.200   4.545  15.536 -0.4484  0.4343 -0.0114
17630TIP3    H274306   0.181   4.396  15.518 -1.7700  0.7471 -1.3436
17631TIP3   OH274307   6.250   1.538  11.723 -0.0075 -0.3891  0.7796
17631TIP3    H174308   6.228   1.549  11.631  0.1805 -1.2657  0.6189
17631TIP3    H274309   6.327   1.481  11.723 -0.1444 -0.5927  1.4812
17632TIP3   OH274310   5.379   6.715  16.507  0.3286  0.1344  0.1732
17632TIP3    H174311   5.427   6.789  16.469  0.4856  0.3094  0.7038
17632TIP3    H274312   5.431   6.638  16.486  1.0614  0.3662  1.0997
17633TIP3   OH274313   2.375   4.439   0.471  0.0894 -0.0274 -1.0565
17633TIP3    H174314   2.331   4.408   0.550 -0.5253  0.8903 -1.0335
17633TIP3    H274315   2.388   4.533   0.485 -1.0672  0.3868 -2.5049
17634TIP3   OH274316   0.908   5.726  14.813 -0.5138  0.2298 -0.2874
17634TIP3    H174317   0.908   5.789  14.741  0.6869 -0.2617 -0.7335
17634TIP3    H274318   0.816   5.703  14.824 -0.6592 -0.2424 -2.1607
17635TIP3   OH274319   0.556   3.869  14.982 -0.1152  0.0722  0.1707
17635TIP3    H174320   0.495   3.941  14.999  1.6506  1.5820  0.4368
17635TIP3    H274321   0.508   3.790  15.008 -2.1792  1.1137 -0.3074
17636TIP3   OH274322   0.602   6.569  14.032  0.4047  0.1569 -0.1680
17636TIP3    H174323   0.517   6.561  13.991  0.3728  0.7777 -0.2423
17636TIP3    H274324   0.653   6.623  13.972  0.8372 -0.1717 -0.1034
17637TIP3   OH274325   4.737   3.645   5.401 -0.2175  0.2997  0.2155
17637TIP3    H174326   4.783   3.697   5.336  1.6401  0.1568  1.3557
17637TIP3    H274327   4.727   3.559   5.360  1.6710 -0.0324  0.3763
17638TIP3   OH274328   6.743   1.035   3.781 -0.0270  0.2410 -0.6376
17638TIP3    H174329   6.824   0.991   3.807 -0.5079  1.2085  3.1111
17638TIP3    H274330   6.690   0.965   3.743  1.4568 -1.0882 -0.3843
17639TIP3   OH274331   3.271   0.015  11.598 -0.0488  0.2656  0.1852
17639TIP3    H174332   3.249  -0.066  11.552  2.4351 -0.3439 -0.0841
17639TIP3    H274333   3.329   0.062  11.538 -0.0524  1.4243  1.0500
17640TIP3   OH274334   6.726   1.582   3.018  0.3134 -0.0524 -0.8220
17640TIP3    H174335   6.780   1.535   2.955 -0.0573 -0.7340 -0.6474
17640TIP3    H274336   6.644   1.533   3.020  0.5695 -0.4674  0.7109
17641TIP3   OH274337   1.734   5.841   1.940  0.3002 -0.0475 -0.0796
17641TIP3    H174338   1.823   5.862   1.969  0.6300  0.6710 -1.5255
17641TIP3    H274339   1.678   5.901   1.990  0.8128  0.8310 -0.5359
17642TIP3   OH274340   3.039   2.743  13.775 -0.7852 -0.5807 -0.5186
17642TIP3    H174341   3.133   2.759  13.769 -0.6520 -1.2915 -0.4170
17642TIP3    H274342   2.998   2.822  13.739 -0.1708  0.2063  0.4834
17643TIP3   OH274343   5.243   3.126   3.878 -0.1437  0.0321  0.3260
17643TIP3    H174344   5.324   3.107   3.831 -0.6103  0.2902 -0.6187
17643TIP3    H274345   5.264   3.203   3.931  0.2007  0.1573  0.0145
17644TIP3   OH274346   4.291   1.097  15.933  0.3275 -0.0226  0.3462
17644TIP3    H174347   4.197   1.085  15.924  0.2744 -0.0972  0.9295
17644TIP3    H274348   4.330   1.038  15.868 -0.0099 -0.6880  0.7408
17645TIP3   OH274349   2.577   0.558  15.834 -0.2748  0.0781  0.3488
17645TIP3    H174350   2.552   0.533  15.745 -0.6736  0.6607  0.2875
17645TIP3    H274351   2.495   0.587  15.875 -0.1969 -0.7159  1.0883
17646TIP3   OH274352   6.137   0.044  13.332  0.2234 -0.4520 -0.3514
17646TIP3    H174353   6.172   0.129  13.360 -0.5413  0.4076 -1.8193
17646TIP3    H274354   6.092   0.010  13.409  0.3326  0.5959  0.2049
17647TIP3   OH274355   1.455   2.660  15.778 -0.3028 -0.4544  0.4755
17647TIP3    H174356   1.549   2.648  15.772 -0.2561  0.3348 -0.4519
17647TIP3    H274357   1.422   2.644  15.690 -0.7355  1.6396  0.1895
17648TIP3   OH274358   5.506   0.382   4.730 -0.0432 -0.3554  0.0555
17648TIP3    H174359   5.563   0.339   4.794  1.7625  0.4455 -0.9110
17648TIP3    H274360   5.504   0.321   4.656  1.7190  0.6989 -0.9252
17649TIP3   OH274361   2.840   5.116  13.499 -0.6797 -0.2601  0.3538
17649TIP3    H174362   2.899   5.142  13.570  1.2579  1.4699 -1.7383
17649TIP3    H274363   2.887   5.047  13.453 -0.4726  0.7565 -1.0127
17650TIP3   OH274364   4.509   3.572   1.555  0.0136  0.0910 -0.9624
17650TIP3    H174365   4.432   3.517   1.569  0.7718 -1.0639 -1.0807
17650TIP3    H274366   4.483   3.633   1.487 -1.4688  1.1603  0.4918
17651TIP3   OH274367   5.756   1.727  14.002  0.1858 -0.3889  0.5147
17651TIP3    H174368   5.664   1.707  13.987 -0.5094  2.4691  0.5465
17651TIP3    H274369   5.793   1.742  13.915  0.7113 -1.6068  0.4932
17652TIP3   OH274370   4.761   2.010   2.186  0.3960 -0.5959  1.0839
17652TIP3    H174371   4.729   1.949   2.253 -0.2877 -0.8953  0.4871
17652TIP3    H274372   4.815   1.957   2.128 -0.8821 -0.8263  0.0780
17653TIP3   OH274373   3.499   2.300  16.146  0.3006 -0.5833 -0.7668
17653TIP3    H174374   3.506   2.370  16.082 -1.3489 -0.1921 -0.5647
17653TIP3    H274375   3.568   2.318  16.210  0.6043  0.2170 -1.3164
17654TIP3   OH274376   0.896   4.984   1.016  0.2433 -0.1684  0.1421
17654TIP3    H174377   0.815   5.011   1.059  1.2100  0.5496  1.6089
17654TIP3    H274378   0.925   4.908   1.066  0.6020 -0.2587 -0.2062
17655TIP3   OH274379   2.723   3.357  12.281  0.1895  0.0004  0.3436
17655TIP3    H174380   2.736   3.418  12.354 -1.4961  0.3377  0.3882
17655TIP3    H274381   2.646   3.306  12.305 -1.4192  1.2390 -1.8973
17656TIP3   OH274382   0.546   2.991   5.026  0.1855 -0.4393 -0.0399
17656TIP3    H174383   0.466   3.020   4.984  0.7562  1.6744  0.2300
17656TIP3    H274384   0.534   3.013   5.119 -0.0081 -2.6609  0.5220
17657TIP3   OH274385   3.101   3.385  11.360  0.5703  0.2072  0.0971
17657TIP3    H174386   3.039   3.344  11.421  0.8930  0.4043  0.5688
17657TIP3    H274387   3.047   3.443  11.307  0.5472  1.7705  1.7096
17658TIP3   OH274388   2.825   0.370   1.569  0.3748 -0.4400  0.3072
17658TIP3    H174389   2.905   0.394   1.521 -0.3212  1.1777 -0.1156
17658TIP3    H274390   2.820   0.274   1.561  1.2886 -0.3969 -1.2564
17659TIP3   OH274391   6.494   1.447  15.187 -0.1068 -0.1824  0.4920
17659TIP3    H174392   6.497   1.394  15.267 -1.4079 -1.0815 -0.0146
17659TIP3    H274393   6.405   1.434  15.153 -0.3581  2.0849  0.1402
17660TIP3   OH274394   1.045   6.396  12.656 -0.3208  0.2435 -0.0578
17660TIP3    H174395   1.047   6.301  12.655 -0.7594  0.1317  2.5969
17660TIP3    H274396   0.976   6.419  12.718  1.9004  2.1773  1.9681
17661TIP3   OH274397   4.238   3.580   0.768  0.0883  0.2304 -1.2107
17661TIP3    H174398   4.321   3.533   0.762  0.5045  0.7154  0.2652
17661TIP3    H274399   4.240   3.621   0.854 -1.3439  0.9152 -1.4716
17662TIP3   OH274400   0.900   6.224  13.337  0.2568  0.1704 -0.2368
17662TIP3    H174401   0.906   6.266  13.423  1.1507 -0.4394  0.0141
17662TIP3    H274402   0.874   6.295  13.278  0.1741  0.7207  0.4436
17663TIP3   OH274403   4.970   0.126   2.543 -0.5951 -0.0079  0.9247
17663TIP3    H174404   5.025   0.175   2.482  1.0258 -1.5293  1.1084
17663TIP3    H274405   4.961   0.184   2.619  0.2044  0.5205  0.6228
17664TIP3   OH274406   4.859   1.437  16.747  0.3732 -0.1895  0.4372
17664TIP3    H174407   4.897   1.354  16.774  1.2642 -0.5767 -1.8346
17664TIP3    H274408   4.932   1.484  16.706 -0.5315  1.0069  0.1576
17665TIP3   OH274409   2.477   6.535   1.435  0.0660  0.3515  0.0609
17665TIP3    H174410   2.468   6.605   1.500  1.1084  0.6483 -0.0952
17665TIP3    H274411   2.391   6.492   1.434  0.5049 -0.8216  2.9646
17666TIP3   OH274412   5.889   1.436  11.134  0.0045  0.2324  0.3705
17666TIP3    H174413   5.891   1.526  11.102  0.0753 -0.2597 -1.0849
17666TIP3    H274414   5.812   1.397  11.093  0.5362 -0.6479  0.1680
17667TIP3   OH274415   2.698   3.254   3.808 -0.9477 -0.1709 -0.1071
17667TIP3    H174416   2.632   3.186   3.798 -0.0187 -1.3438  1.3096
17667TIP3    H274417   2.779   3.214   3.777 -0.5565  0.6289 -0.1562
17668TIP3   OH274418   2.920   0.887   2.463  0.1251  0.2751  0.1500
17668TIP3    H174419   2.856   0.824   2.431  1.1091  0.6072 -2.8203
17668TIP3    H274420   2.883   0.973   2.441  1.5895  0.4674 -1.8955
17669TIP3   OH274421   5.253   0.812   3.757 -0.2149  0.5837 -0.3866
17669TIP3    H174422   5.331   0.865   3.737 -0.5540  0.9516 -0.7415
17669TIP3    H274423   5.217   0.851   3.837  1.4517 -1.2235  1.3575
17670TIP3   OH274424   4.350   5.250  15.534 -0.2733 -0.4073  0.2186
17670TIP3    H174425   4.273   5.253  15.591  1.4593 -2.1495  2.8629
17670TIP3    H274426   4.314   5.247  15.446 -3.1258  2.7574  1.0268
17671TIP3   OH274427   1.868   1.302   1.236 -0.0025 -0.3602 -0.2580
17671TIP3    H174428   1.849   1.332   1.325 -1.2455 -0.4238 -0.4845
17671TIP3    H274429   1.932   1.365   1.202  0.4403 -0.3043  0.6495
17672TIP3   OH274430   2.492   6.508  15.086 -0.5114  0.4429 -0.0327
17672TIP3    H174431   2.533   6.520  15.001 -2.6443 -0.2511 -1.2500
17672TIP3    H274432   2.460   6.595  15.110  0.3880  0.7047  0.2307
17673TIP3   OH274433   3.650   3.136   0.168  0.1449  0.1916 -0.0977
17673TIP3    H174434   3.653   3.041   0.158 -1.8542  0.0716  0.0505
17673TIP3    H274435   3.723   3.168   0.115  0.6189 -1.4024 -0.4603
17674TIP3   OH274436   4.034   1.225   5.598 -0.2899  0.2942 -0.1861
17674TIP3    H174437   4.043   1.303   5.651 -1.2646  1.6953 -1.9622
17674TIP3    H274438   3.939   1.208   5.596 -0.1325 -0.6643 -0.2067
17675TIP3   OH274439   5.315   5.271  13.468  0.1857 -0.1012  0.4716
17675TIP3    H174440   5.381   5.239  13.407  2.0935  0.2093  2.2641
17675TIP3    H274441   5.240   5.214  13.455  1.2173 -1.2133 -0.8379
17676TIP3   OH274442   5.208   1.328  12.226 -0.8984  0.1500  0.1531
17676TIP3    H174443   5.259   1.248  12.241 -0.4356  0.1159 -1.4576
17676TIP3    H274444   5.212   1.342  12.132 -2.2883  1.2252  0.2210
17677TIP3   OH274445   6.732   2.416  15.037 -0.3421  0.2962  0.1250
17677TIP3    H174446   6.780   2.490  15.074  1.9516  0.3002 -2.5273
17677TIP3    H274447   6.797   2.346  15.030 -1.6613 -0.9429 -0.3034
17678TIP3   OH274448   3.040   6.580  14.241 -0.0369 -0.3503  0.2934
17678TIP3    H174449   3.128   6.577  14.277  0.2261 -0.5111 -0.3491
17678TIP3    H274450   2.990   6.518  14.293  0.3951 -0.7606  0.2249
17679TIP3   OH274451   2.010   6.016   0.454  0.2655 -0.0862 -0.7381
17679TIP3    H174452   1.989   6.015   0.547 -2.9462 -2.5567 -1.3084
17679TIP3    H274453   2.042   6.104   0.437  0.0624  0.7278  2.5045
17680TIP3   OH274454   0.055   6.659  14.226  0.1816  0.2189 -0.1512
17680TIP3    H174455   0.072   6.578  14.274 -1.8108 -1.3180 -1.8134
17680TIP3    H274456  -0.040   6.659  14.213 -0.0793  3.5272  0.8654
17681TIP3   OH274457   4.554   6.329  16.056 -0.4088 -0.0171  0.5748
17681TIP3    H174458   4.603   6.270  15.999 -0.7854  0.0608  0.1712
17681TIP3    H274459   4.596   6.319  16.142  0.7788  0.5799  0.0880
17682TIP3   OH274460   1.790   6.168   0.967 -0.2060 -0.1339  0.5354
17682TIP3    H174461   1.699   6.148   0.944 -0.4400  0.2355  1.1192
17682TIP3    H274462   1.801   6.130   1.054  0.4875 -0.9931  0.0850
17683TIP3   OH274463   1.599   5.847  13.970 -0.5895  0.1535 -0.1701
17683TIP3    H174464   1.559   5.767  13.937 -0.6352 -0.6349  1.6513
17683TIP3    H274465   1.531   5.888  14.024  0.9802 -1.5109  3.4632
17684TIP3   OH274466   2.548   5.613  11.662  0.4622  0.0947 -0.1730
17684TIP3    H174467   2.496   5.541  11.696 -0.9855  1.1385 -0.0718
17684TIP3    H274468   2.524   5.688  11.716 -0.3708  1.3252 -2.1324
17685TIP3   OH274469   4.736   2.374  12.257 -0.3039  0.6273  0.3606
17685TIP3    H174470   4.827   2.349  12.275 -0.2283  0.9244  0.4080
17685TIP3    H274471   4.686   2.293  12.267  0.2676 -0.1332 -2.1390
17686TIP3   OH274472   1.895   1.367  15.545  0.3548 -0.3822 -0.0852
17686TIP3    H174473   1.818   1.401  15.590  0.7127 -1.5308  1.4779
17686TIP3    H274474   1.968   1.387  15.603  1.0202 -0.7629 -0.7617
17687TIP3   OH274475   2.716   3.195  11.587  0.0059 -0.0429  0.2580
17687TIP3    H174476   2.705   3.282  11.549 -1.0103 -0.4793 -0.4873
17687TIP3    H274477   2.645   3.187  11.650 -1.2578 -1.1300 -1.2368
17688TIP3   OH274478   2.975   2.431  16.271 -0.1666  0.0566 -0.0261
17688TIP3    H174479   2.923   2.505  16.301  0.3454  0.4165 -0.0250
17688TIP3    H274480   3.042   2.420  16.338 -0.3965 -0.5710  0.1059
17689TIP3   OH274481   0.585   0.475  15.168 -0.1391  0.3451 -0.3080
17689TIP3    H174482   0.561   0.421  15.243 -0.9364  1.7773  0.5218
17689TIP3    H274483   0.653   0.533  15.202  0.4738  0.0988 -1.0888
17690TIP3   OH274484   5.464   2.482   2.667 -0.1362 -0.2713 -0.5405
17690TIP3    H174485   5.487   2.572   2.647 -2.0224  0.0749 -1.3858
17690TIP3    H274486   5.547   2.434   2.668  0.7944  1.3004 -0.9116
17691TIP3   OH274487   2.551   0.021   2.535  0.0964  0.5059 -0.1167
17691TIP3    H174488   2.602   0.095   2.570  1.4216 -0.4453  0.0354
17691TIP3    H274489   2.602  -0.010   2.460  0.4649 -1.2706  0.8111
17692TIP3   OH274490   5.687   4.026   3.728  0.2211  0.6735  0.1202
17692TIP3    H174491   5.778   4.000   3.737  0.4405  0.8188 -1.4550
17692TIP3    H274492   5.637   3.947   3.747  0.6519  0.6213  1.0976
17693TIP3   OH274493   3.187   1.456  12.103  0.4423 -0.1585  0.4601
17693TIP3    H174494   3.192   1.505  12.185 -0.6198 -0.9841  1.0487
17693TIP3    H274495   3.145   1.516  12.041  1.6634  0.6333  0.3614
17694TIP3   OH274496   4.313   0.699  10.631 -0.1662 -0.9416  0.4571
17694TIP3    H174497   4.260   0.703  10.711  0.2094  0.7716  0.6564
17694TIP3    H274498   4.274   0.766  10.574  0.5610 -1.0476 -0.1741
17695TIP3   OH274499   1.314   2.455  11.163  0.3059 -0.3626  0.4386
17695TIP3    H174500   1.340   2.430  11.074 -1.1639 -0.2521 -0.0644
17695TIP3    H274501   1.275   2.375  11.199 -0.4713 -0.0144  0.4058
17696TIP3   OH274502   3.120   5.657  13.363 -0.3954  0.2305  0.3909
17696TIP3    H174503   3.100   5.565  13.345 -3.2275  0.8785 -0.2497
17696TIP3    H274504   3.058   5.682  13.432 -1.0235  2.1276 -0.7897
17697TIP3   OH274505   5.071   0.660  13.189  0.4277  0.1076 -0.1651
17697TIP3    H174506   5.131   0.704  13.249  0.4926  0.7643 -0.6915
17697TIP3    H274507   5.019   0.731  13.151  0.6558 -0.2449 -1.1726
17698TIP3   OH274508   5.724   4.483  15.419 -0.2972  0.2233 -0.3607
17698TIP3    H174509   5.770   4.472  15.336  0.7529 -0.4923  0.2924
17698TIP3    H274510   5.694   4.394  15.440 -1.7978  0.6362 -0.6548
17699TIP3   OH274511   0.920   6.411  11.884  0.6137  0.5116  0.2154
17699TIP3    H174512   0.837   6.413  11.835 -0.2675 -0.2512  1.5877
17699TIP3    H274513   0.987   6.433  11.820 -0.4988 -0.3006 -1.2804
17700TIP3   OH274514   6.515   0.209  12.553  0.3025  0.7553 -0.3512
17700TIP3    H174515   6.582   0.166  12.606 -0.4489 -0.1896 -0.1267
17700TIP3    H274516   6.462   0.137  12.520  0.4539  1.3596 -1.9887
17701TIP3   OH274517   5.922   4.490  16.393  0.0304 -0.2880 -0.1744
17701TIP3    H174518   5.832   4.457  16.396 -0.5102  1.1561  0.6989
17701TIP3    H274519   5.947   4.501  16.484  0.8206  0.0387 -0.4220
17702TIP3   OH274520   1.837   4.336   2.905  0.0785  0.1373 -0.0186
17702TIP3    H174521   1.888   4.386   2.970  0.0793 -0.0006  0.0875
17702TIP3    H274522   1.751   4.378   2.907 -0.0818 -0.2025  0.4617
17703TIP3   OH274523   0.958   2.215   3.297  0.0309  0.3064  0.3003
17703TIP3    H174524   1.012   2.189   3.372 -1.1990 -0.9286  0.8006
17703TIP3    H274525   1.002   2.292   3.262  1.2561  0.2570  1.6200
17704TIP3   OH274526   4.237   6.757   4.153 -0.4816 -0.4493  0.1890
17704TIP3    H174527   4.298   6.703   4.203 -0.5838 -0.4239  0.3420
17704TIP3    H274528   4.159   6.702   4.142 -0.4818 -0.4331  0.1090
17705TIP3   OH274529   1.184   6.572  12.088 -0.4631  0.0531 -0.2489
17705TIP3    H174530   1.229   6.559  12.172  0.2612  0.0113 -0.6379
17705TIP3    H274531   1.103   6.521  12.097 -1.2543  1.4688  1.0858
17706TIP3   OH274532   2.118   1.918   2.353 -0.3035 -0.7590 -0.9058
17706TIP3    H174533   2.164   1.884   2.429  1.1439 -0.4292 -1.5988
17706TIP3    H274534   2.026   1.906   2.374  0.0856 -1.7571  0.3847
17707TIP3   OH274535   2.276   2.965  10.948  0.1031 -0.0837  0.5003
17707TIP3    H174536   2.288   2.974  11.043  1.0868 -1.6415  0.5652
17707TIP3    H274537   2.220   2.888  10.938  0.6725 -0.4203 -0.1991
17708TIP3   OH274538   4.154   3.528  14.118 -0.6301  0.9441 -0.0699
17708TIP3    H174539   4.201   3.510  14.199  0.4221 -0.9199 -1.0299
17708TIP3    H274540   4.212   3.586  14.069 -0.4807  0.7105 -0.1746
17709TIP3   OH274541   6.770   6.041   1.855 -0.0223 -0.0347 -0.6578
17709TIP3    H174542   6.837   6.006   1.796 -1.0779 -0.6515 -1.5446
17709TIP3    H274543   6.724   5.964   1.888 -0.8758  0.4071 -0.7798
17710TIP3   OH274544   5.632   3.627  11.521  0.5686  0.5554 -0.0093
17710TIP3    H174545   5.572   3.610  11.448  1.1297  0.3060 -0.4233
17710TIP3    H274546   5.578   3.620  11.599 -0.0075  0.6503 -0.3939
17711TIP3   OH274547   5.372   5.859  13.323 -0.2229  0.1092  0.0620
17711TIP3    H174548   5.352   5.770  13.293 -1.1674  0.3196  0.0354
17711TIP3    H274549   5.364   5.913  13.245 -0.6298  0.3595  0.2741
17712TIP3   OH274550   4.276   1.080   5.656 -0.1882 -1.3413 -0.3034
17712TIP3    H174551   4.260   1.023   5.731 -0.8764  2.1248  2.4946
17712TIP3    H274552   4.194   1.128   5.645  0.9809  0.6110 -0.9973
17713TIP3   OH274553   0.214   5.734  13.336 -0.1217  0.5470 -0.1114
17713TIP3    H174554   0.234   5.658  13.391 -0.3829  0.4395 -0.1624
17713TIP3    H274555   0.136   5.708  13.287  0.1957  0.5786 -0.6505
17714TIP3   OH274556   2.146   1.766  16.053 -0.3603 -0.3699  0.3757
17714TIP3    H174557   2.180   1.836  16.109 -1.9893  0.4592  0.3881
17714TIP3    H274558   2.197   1.772  15.973 -0.8881  1.2815  0.1339
17715TIP3   OH274559   0.123   4.022   6.616 -0.1569 -0.8241 -0.1258
17715TIP3    H174560   0.051   3.965   6.642 -0.9773  0.2176 -0.0558
17715TIP3    H274561   0.099   4.054   6.529 -0.9812  1.3552  0.8149
17716TIP3   OH274562   0.196   5.361   3.404  0.1710 -0.2665 -0.2736
17716TIP3    H174563   0.220   5.278   3.364  0.7884  0.1371 -0.7705
17716TIP3    H274564   0.114   5.385   3.362 -0.2359 -0.8336  0.1898
17717TIP3   OH274565   3.177   1.299  15.157 -0.4724  0.3022 -0.0024
17717TIP3    H174566   3.206   1.330  15.243  3.2785  0.3394 -1.0780
17717TIP3    H274567   3.190   1.374  15.099 -2.4431  0.1216 -0.7418
17718TIP3   OH274568   3.139   3.023  15.352 -0.1943  0.2817  1.0552
17718TIP3    H174569   3.153   2.929  15.335 -0.9194 -0.0499  2.1925
17718TIP3    H274570   3.045   3.031  15.364  0.0437  0.8559  2.6862
17719TIP3   OH274571   6.198   1.852  15.263 -1.0456 -0.1313  0.1048
17719TIP3    H174572   6.130   1.786  15.247 -2.0551  0.8117  0.4425
17719TIP3    H274573   6.213   1.849  15.357 -0.4174 -0.5139  0.0001
17720TIP3   OH274574   0.481   4.783  12.814 -0.2391  0.4966  0.7319
17720TIP3    H174575   0.504   4.797  12.906 -0.9626  1.1068  0.8249
17720TIP3    H274576   0.418   4.711  12.816  0.2962  0.0151  0.6364
17721TIP3   OH274577   5.454   3.016   5.688  0.0373 -0.0270 -0.0054
17721TIP3    H174578   5.460   3.052   5.776 -0.9796 -1.8450  0.8701
17721TIP3    H274579   5.360   3.015   5.669  0.1454 -0.7935 -0.5721
17722TIP3   OH274580   1.444   0.072  15.701  0.5731  0.0729 -0.1820
17722TIP3    H174581   1.479   0.042  15.617 -1.4114  1.3836 -1.5663
17722TIP3    H274582   1.407  -0.006  15.741 -0.4590 -0.2294 -1.6136
17723TIP3   OH274583   5.715   3.438  16.801  0.0977 -0.0648  0.0397
17723TIP3    H174584   5.802   3.420  16.838  0.3363  1.0754  0.0602
17723TIP3    H274585   5.662   3.464  16.876 -0.3751 -1.0632  0.0777
17724TIP3   OH274586   2.712   6.042  14.084 -0.6732 -0.5405 -0.5901
17724TIP3    H174587   2.778   6.102  14.119 -1.3508 -0.7230  1.0983
17724TIP3    H274588   2.699   6.071  13.994 -0.2068  1.1884 -0.1490
17725TIP3   OH274589   4.789   1.341  13.849 -0.2046  0.7641  0.2294
17725TIP3    H174590   4.776   1.288  13.770  0.3600  0.8426  0.0762
17725TIP3    H274591   4.818   1.278  13.915  2.1168  1.0615 -0.3898
17726TIP3   OH274592   5.055   0.948   3.300  0.2324 -0.6567  0.0735
17726TIP3    H174593   4.996   0.873   3.295  0.7921 -1.1346  0.5485
17726TIP3    H274594   5.051   0.976   3.391  1.5390 -1.3623  0.3697
17727TIP3   OH274595   6.172   3.546  13.813 -0.1559  0.5894  0.5646
17727TIP3    H174596   6.091   3.559  13.862  0.6952  3.5886  1.4580
17727TIP3    H274597   6.202   3.635  13.794  1.6794 -0.4387 -1.9080
17728TIP3   OH274598   4.152   5.515   5.194  0.1310  0.1978 -0.2919
17728TIP3    H174599   4.174   5.445   5.254 -0.1005  0.4398  0.0799
17728TIP3    H274600   4.164   5.477   5.106  0.4338 -0.1638 -0.0961
17729TIP3   OH274601   4.619   5.188   3.225 -0.0603  0.3254 -0.5338
17729TIP3    H174602   4.704   5.144   3.218  0.0311  0.4652 -0.3141
17729TIP3    H274603   4.571   5.159   3.147 -0.8120 -1.8865  0.6704
17730TIP3   OH274604   1.425   5.328   4.375  0.0712  0.3054  0.8352
17730TIP3    H174605   1.333   5.336   4.398  0.2464 -2.3712  2.9241
17730TIP3    H274606   1.426   5.281   4.292 -0.3935  1.5451  0.0914
17731TIP3   OH274607   2.870   5.576  13.164 -0.1253 -0.1810 -0.3659
17731TIP3    H174608   2.957   5.559  13.128  0.1995  1.6277 -0.5602
17731TIP3    H274609   2.852   5.502  13.222  2.4981  0.4187  1.3674
17732TIP3   OH274610   1.388   1.268  16.390 -0.6610 -0.8470 -0.5153
17732TIP3    H174611   1.323   1.206  16.357 -0.3736 -1.6878  0.4377
17732TIP3    H274612   1.353   1.354  16.366 -0.9413 -1.3638 -2.0866
17733TIP3   OH274613   1.915   0.591   0.216  0.1437 -0.1078 -0.1521
17733TIP3    H174614   2.003   0.627   0.228 -0.4028  0.6944  2.1312
17733TIP3    H274615   1.865   0.664   0.179  0.6476 -0.9440 -2.6395
17734TIP3   OH274616   2.379   4.606   1.310 -0.6158  0.2898  0.1178
17734TIP3    H174617   2.445   4.557   1.359  0.2385  2.7561  1.6535
17734TIP3    H274618   2.297   4.557   1.323  0.0692 -0.4290  2.0474
17735TIP3   OH274619   4.325   4.758  16.942 -0.1345  0.2100 -0.3025
17735TIP3    H174620   4.267   4.775  16.867  0.3860  0.1190 -0.7360
17735TIP3    H274621   4.309   4.667  16.965 -0.9319  0.4827  0.2632
17736TIP3   OH274622   5.768   3.020   6.429 -0.0422  0.4422 -0.7510
17736TIP3    H174623   5.856   3.027   6.467 -0.1015 -0.1689 -0.4880
17736TIP3    H274624   5.711   3.060   6.494 -0.1445 -0.6125 -0.1697
17737TIP3   OH274625   1.347   4.023  16.202 -0.1863 -0.1377 -0.3787
17737TIP3    H174626   1.285   4.054  16.268 -0.5888 -2.9758  0.7663
17737TIP3    H274627   1.322   3.931  16.188  2.9016 -1.0211 -0.8741
17738TIP3   OH274628   4.800   5.259  14.817 -0.0219  0.8194 -0.8502
17738TIP3    H174629   4.851   5.232  14.893 -1.1780 -0.8740 -0.6222
17738TIP3    H274630   4.864   5.263  14.746  0.6158 -0.2356 -0.3533
17739TIP3   OH274631   3.829   3.892  15.063 -0.4834 -0.0128  0.1105
17739TIP3    H174632   3.791   3.808  15.089 -0.2587  0.0199  0.5498
17739TIP3    H274633   3.772   3.957  15.104 -1.4968  0.0882 -1.3771
17740TIP3   OH274634   4.069   6.090   5.277 -0.3841 -0.2469  0.4611
17740TIP3    H174635   4.075   6.141   5.196 -0.4621  1.1402  1.2970
17740TIP3    H274636   4.158   6.088   5.311 -0.4649 -0.2600  0.6755
17741TIP3   OH274637   6.234   5.378  14.629 -0.0241 -0.3882 -0.2172
17741TIP3    H174638   6.295   5.451  14.615  0.5348  0.4664  4.9767
17741TIP3    H274639   6.266   5.309  14.570  3.2033  1.5386 -0.9520
17742TIP3   OH274640   4.482   1.084  12.877 -0.5139 -0.2600 -0.0900
17742TIP3    H174641   4.493   0.999  12.918 -0.6007 -0.5614 -0.6736
17742TIP3    H274642   4.524   1.075  12.791 -0.4917  0.2963 -0.1440
17743TIP3   OH274643   2.277   6.651   2.084  0.1864 -0.4432 -0.2378
17743TIP3    H174644   2.362   6.638   2.125 -0.3934 -0.7810  0.9024
17743TIP3    H274645   2.225   6.697   2.150 -0.6502 -0.6081 -0.7533
17744TIP3   OH274646   0.949   2.502  17.214  0.3447 -0.0488 -0.3636
17744TIP3    H174647   1.038   2.520  17.246  0.7185 -0.4489 -1.1376
17744TIP3    H274648   0.893   2.562  17.262  0.9688 -0.1704  0.5353
17745TIP3   OH274649   5.356   5.182  12.431  0.0208  0.5003 -0.4434
17745TIP3    H174650   5.407   5.101  12.440  0.0791  0.3390 -1.9720
17745TIP3    H274651   5.346   5.193  12.336 -0.8518  1.7507 -0.2201
17746TIP3   OH274652   0.045   3.206   5.125  0.1186  0.6348 -0.1106
17746TIP3    H174653   0.118   3.147   5.142  0.9632  1.7559  0.3447
17746TIP3    H274654  -0.023   3.180   5.188  0.8536  0.7669  0.7519
17747TIP3   OH274655   5.577   5.450   0.455  0.2312  0.1141  0.1178
17747TIP3    H174656   5.654   5.419   0.502  0.5729 -0.5712 -0.8445
17747TIP3    H274657   5.519   5.375   0.451 -0.1630  0.4113  0.1874
17748TIP3   OH274658   4.174   3.060  10.578 -0.5109  0.3128  0.4603
17748TIP3    H174659   4.092   3.031  10.617  0.4810 -0.7495  1.8513
17748TIP3    H274660   4.152   3.141  10.533 -2.5493 -0.5316 -0.1623
17749TIP3   OH274661   3.061   2.732   0.809  0.0243  0.0781  0.2040
17749TIP3    H174662   3.085   2.813   0.853 -1.7189  1.7807 -1.8174
17749TIP3    H274663   3.022   2.678   0.878  0.2029  1.3717  1.3665
17750TIP3   OH274664   0.517   3.861  13.881 -0.4390 -0.3526 -0.7310
17750TIP3    H174665   0.556   3.877  13.967  0.3029 -1.8607 -0.7654
17750TIP3    H274666   0.446   3.926  13.875 -0.8661 -0.5642  1.2374
17751TIP3   OH274667   1.941   4.627  17.107  0.4704  0.0547 -0.1723
17751TIP3    H174668   2.024   4.667  17.134  0.7382 -1.0946  0.8027
17751TIP3    H274669   1.881   4.700  17.097  1.3608  0.8256  0.0191
17752TIP3   OH274670   3.244   2.145  11.227  0.7632  0.5679 -0.4475
17752TIP3    H174671   3.323   2.176  11.183  0.0949  1.5327 -0.9948
17752TIP3    H274672   3.171   2.177  11.172  0.0095 -1.5748 -0.7942
17753TIP3   OH274673   6.629   3.618   5.595  0.0546  0.2947 -0.6739
17753TIP3    H174674   6.706   3.580   5.553 -0.0051  0.5474 -1.0170
17753TIP3    H274675   6.647   3.712   5.596  0.3201  0.2487  0.4042
17754TIP3   OH274676   1.031   5.629   1.807  0.1108 -0.3460 -0.1370
17754TIP3    H174677   1.083   5.576   1.747  0.4342  0.3645 -0.4940
17754TIP3    H274678   0.968   5.567   1.844  1.2735 -1.2652  0.4081
17755TIP3   OH274679   1.470   6.143  13.715 -0.2565  0.2561  0.2886
17755TIP3    H174680   1.557   6.105  13.726  0.8424  2.0432 -1.5289
17755TIP3    H274681   1.425   6.085  13.654  0.2238  0.1397  0.0448
17756TIP3   OH274682   1.043   0.621  15.649 -0.4037 -0.2727 -0.1438
17756TIP3    H174683   0.985   0.665  15.711 -0.2483 -0.4934  0.1634
17756TIP3    H274684   1.058   0.686  15.580 -0.4945  0.0141  0.1047
17757TIP3   OH274685   1.908   1.177   1.823 -0.3234 -0.3674  0.4719
17757TIP3    H174686   1.964   1.235   1.875  0.2054 -0.1376 -0.3307
17757TIP3    H274687   1.827   1.226   1.812  1.0913  1.6239 -2.6718
17758TIP3   OH274688   6.694   6.432  11.999 -0.2375  0.4722  0.3496
17758TIP3    H174689   6.774   6.414  11.950 -0.9031  2.9543 -1.8364
17758TIP3    H274690   6.725   6.469  12.082  0.8621  0.5047 -0.0587
17759TIP3   OH274691   3.023   4.010   4.959  0.1741 -0.3818 -0.1939
17759TIP3    H174692   3.061   4.086   5.004 -0.2043 -0.7705  0.8044
17759TIP3    H274693   3.089   3.941   4.968  0.2498 -0.3573 -0.5515
17760TIP3   OH274694   2.514   1.526   5.018 -0.2556  0.1507  0.2040
17760TIP3    H174695   2.426   1.557   5.040 -0.7124 -1.5418  0.9787
17760TIP3    H274696   2.573   1.580   5.070 -0.8039  1.4477 -0.4789
17761TIP3   OH274697   5.691   3.709   6.067  0.3378  0.4480 -0.8130
17761TIP3    H174698   5.787   3.713   6.064  0.4230 -0.1986  0.4642
17761TIP3    H274699   5.668   3.746   6.153 -0.4090 -1.2897 -0.2142
17762TIP3   OH274700   4.412   6.503   4.596 -0.1699  0.3924 -0.4205
17762TIP3    H174701   4.339   6.519   4.656 -1.3561  0.3192 -1.7988
17762TIP3    H274702   4.474   6.452   4.647 -1.6858 -0.7124  0.4008
17763TIP3   OH274703   2.156   0.151   5.302 -0.4705 -0.7227 -0.0076
17763TIP3    H174704   2.136   0.179   5.392  2.5312 -0.3383  0.6419
17763TIP3    H274705   2.162   0.056   5.308 -0.8523 -0.7454  0.0542
17764TIP3   OH274706   1.512   4.724   3.392  0.2529 -0.2779 -0.2438
17764TIP3    H174707   1.456   4.755   3.321  1.2437 -0.2133 -1.0207
17764TIP3    H274708   1.574   4.664   3.349  0.4445 -0.7608  0.6799
17765TIP3   OH274709   4.577   4.060   1.717 -0.3541  0.0692  0.3810
17765TIP3    H174710   4.620   4.002   1.654 -1.3563 -1.0340  0.6734
17765TIP3    H274711   4.485   4.034   1.715 -1.1521  2.6257 -0.5150
17766TIP3   OH274712   3.749   2.343   1.711  0.2696 -0.2972  0.4765
17766TIP3    H174713   3.698   2.378   1.638 -0.8094 -2.1595  0.2806
17766TIP3    H274714   3.834   2.386   1.704 -0.3710  0.8046 -0.8603
17767TIP3   OH274715   1.860   3.050  13.061 -0.1689 -0.1142  0.0958
17767TIP3    H174716   1.808   2.970  13.054  1.7906 -1.5925  1.4770
17767TIP3    H274717   1.877   3.076  12.970  2.8835 -3.8868 -0.6745
17768TIP3   OH274718   1.053   2.292  16.689  0.5235  0.1379  0.2523
17768TIP3    H174719   0.975   2.324  16.645  1.0083  0.2473 -0.5503
17768TIP3    H274720   1.047   2.327  16.778  0.2743  1.1906 -0.1587
17769TIP3   OH274721   1.193   3.896   2.972  0.6341 -0.0409  0.3595
17769TIP3    H174722   1.114   3.844   2.958 -0.8125  0.1380  5.8840
17769TIP3    H274723   1.167   3.985   2.948 -1.1248  0.0903  2.4857
17770TIP3   OH274724   5.352   3.059  10.879  0.1826  0.2070 -0.2748
17770TIP3    H174725   5.256   3.053  10.886  0.2284  0.7558  1.0336
17770TIP3    H274726   5.379   2.975  10.842 -0.6940 -0.4585  0.5688
17771TIP3   OH274727   5.328   3.533   3.258 -0.0387  0.4734  0.1985
17771TIP3    H174728   5.236   3.514   3.240 -0.3596 -0.0119  2.2005
17771TIP3    H274729   5.328   3.621   3.296  0.1723 -0.0090  1.3415
17772TIP3   OH274730   4.602   2.664  10.787  0.3896 -0.0329 -0.0646
17772TIP3    H174731   4.636   2.750  10.811  1.6208 -1.0575  2.1914
17772TIP3    H274732   4.631   2.651  10.697 -0.8528  2.3477 -0.8739
17773TIP3   OH274733   5.763   2.600  16.097  0.0394 -0.3028 -0.1520
17773TIP3    H174734   5.683   2.615  16.146  0.3495  0.9935  0.0034
17773TIP3    H274735   5.760   2.665  16.026  1.0529 -0.0637  0.0053
17774TIP3   OH274736   0.318   1.209  12.051  0.1504  0.9207  0.0876
17774TIP3    H174737   0.285   1.283  12.001  0.6493  0.3464 -1.1236
17774TIP3    H274738   0.376   1.163  11.991  0.9414  0.3236  1.2652
17775TIP3   OH274739   3.838   2.527  15.764  0.0202 -0.2921  0.0826
17775TIP3    H174740   3.870   2.491  15.681 -1.1233 -0.4517 -0.3096
17775TIP3    H274741   3.750   2.560  15.743 -0.3357 -0.4513  1.2623
17776TIP3   OH274742   2.489   4.411  15.982 -0.1588  0.4867 -0.1051
17776TIP3    H174743   2.540   4.416  15.901 -0.8016 -1.5856 -0.7025
17776TIP3    H274744   2.443   4.328  15.976 -0.7549  0.5944  2.1079
17777TIP3   OH274745   1.751   3.222   6.477  0.0388  0.7734  0.3301
17777TIP3    H174746   1.748   3.314   6.502 -0.6852  0.6070  0.9008
17777TIP3    H274747   1.827   3.214   6.419  0.2207  1.6827  0.4436
17778TIP3   OH274748   2.159   0.643  12.503 -0.1615  0.3357 -0.3452
17778TIP3    H174749   2.097   0.635  12.576 -0.6031  3.2780 -0.2524
17778TIP3    H274750   2.124   0.585  12.435 -2.2100  0.7924  0.2474
17779TIP3   OH274751   2.310   1.357  16.015  0.3040  0.4199 -0.0809
17779TIP3    H174752   2.300   1.332  16.107 -1.1561 -0.9894 -0.5828
17779TIP3    H274753   2.242   1.308  15.969  1.7123  0.2125 -2.0786
17780TIP3   OH274754   1.969   6.262  12.695 -0.6231 -0.1323 -0.8209
17780TIP3    H174755   2.014   6.340  12.725 -0.1460 -0.4327 -0.7440
17780TIP3    H274756   1.973   6.267  12.600 -1.6960  0.5664 -0.8374
17781TIP3   OH274757   5.402   5.968   0.947 -0.5797 -0.0735  0.3684
17781TIP3    H174758   5.497   5.973   0.945 -0.6014  0.2020 -0.0593
17781TIP3    H274759   5.372   6.047   0.903 -1.0727  1.8835  3.8521
17782TIP3   OH274760   0.879   3.764  15.946  0.2970  0.0557  0.0020
17782TIP3    H174761   0.954   3.754  15.888 -0.4028  0.1242 -0.9446
17782TIP3    H274762   0.865   3.677  15.982 -0.5351 -0.5120 -1.5875
17783TIP3   OH274763   2.113   6.406  16.878  0.0772 -0.1421 -0.3108
17783TIP3    H174764   2.118   6.327  16.824  2.1276  1.2710 -2.3939
17783TIP3    H274765   2.105   6.478  16.815 -0.5784  1.4103  1.4445
17784TIP3   OH274766   4.295   1.026   5.312 -0.2658 -0.2139  0.1270
17784TIP3    H174767   4.348   1.083   5.257  1.3228 -0.4622  1.3103
17784TIP3    H274768   4.338   1.028   5.398 -0.4450 -2.7304  0.3690
17785TIP3   OH274769   0.605   4.573  17.144  0.2930  0.7515 -0.2652
17785TIP3    H174770   0.564   4.537  17.066  0.8701  2.5140 -1.4493
17785TIP3    H274771   0.547   4.644  17.172  0.1954  0.2654  0.8028
17786TIP3   OH274772   3.607   5.284  14.013  0.0526  0.0887  1.0396
17786TIP3    H174773   3.678   5.306  13.953 -3.4211 -1.7158 -4.4820
17786TIP3    H274774   3.558   5.366  14.025  0.4174  0.3351  0.8322
17787TIP3   OH274775   1.638   3.954   5.081 -0.1033 -0.2161 -0.3246
17787TIP3    H174776   1.711   3.954   5.019  0.7231  1.6891  0.5966
17787TIP3    H274777   1.633   3.863   5.112  3.3175 -0.0305  1.2344
17788TIP3   OH274778   2.369   5.811  13.838 -0.4330 -0.1246  0.4716
17788TIP3    H174779   2.310   5.769  13.776 -0.5318 -1.2392  1.2990
17788TIP3    H274780   2.400   5.890  13.792 -1.1769 -0.4618 -0.6399
17789TIP3   OH274781   4.103   6.585  15.864 -0.0262  0.1753  0.2453
17789TIP3    H174782   4.113   6.559  15.955  0.2178 -0.0530  0.1533
17789TIP3    H274783   4.016   6.554  15.840 -1.1348  2.3681  1.1145
17790TIP3   OH274784   6.569   5.518  13.651  0.5092  0.3613 -0.3479
17790TIP3    H174785   6.578   5.470  13.733  1.9059 -0.3956 -0.9141
17790TIP3    H274786   6.643   5.490  13.598 -0.3791  0.8051 -1.8936
17791TIP3   OH274787   1.408   0.832   6.214  0.4132  0.5099 -0.4743
17791TIP3    H174788   1.411   0.794   6.126 -2.1188  0.1075 -0.4397
17791TIP3    H274789   1.401   0.927   6.199  2.5313  0.6968 -0.6088
17792TIP3   OH274790   0.943   0.179  12.559  0.0241 -0.0084  0.2066
17792TIP3    H174791   0.957   0.245  12.627  0.3141 -0.3044  0.4372
17792TIP3    H274792   0.909   0.103  12.606 -2.4723  0.6671 -0.3159
17793TIP3   OH274793   0.900   4.915   0.228 -0.3609  0.3829  0.2750
17793TIP3    H174794   0.975   4.971   0.208  0.6198 -0.6146  1.0390
17793TIP3    H274795   0.909   4.841   0.168 -0.6437  0.1844  0.4795
17794TIP3   OH274796   2.326   5.549   2.312  0.2483  0.0569 -0.1174
17794TIP3    H174797   2.347   5.637   2.279 -1.2605  0.3261 -0.4614
17794TIP3    H274798   2.311   5.497   2.233  1.5739 -0.6621  0.0727
17795TIP3   OH274799   4.011   5.889  15.526 -0.6382  0.0002 -0.5409
17795TIP3    H174800   4.061   5.970  15.535  0.5217 -0.9278  2.8219
17795TIP3    H274801   3.927   5.907  15.569 -0.0104 -0.7579  1.1079
17796TIP3   OH274802   0.119   6.181   1.208 -0.7225 -0.3447 -0.0068
17796TIP3    H174803   0.175   6.127   1.153 -1.7582 -1.7498  0.2634
17796TIP3    H274804   0.065   6.230   1.146  0.8820  1.1870 -0.2741
17797TIP3   OH274805   4.061   5.432  15.526 -0.1256 -0.4152 -0.4892
17797TIP3    H174806   3.977   5.477  15.524 -0.3896 -0.8388 -3.2207
17797TIP3    H274807   4.051   5.360  15.463  3.0648  1.1411 -3.1394
17798TIP3   OH274808   5.994   3.494   4.062  0.2502  0.4401  0.0159
17798TIP3    H174809   5.938   3.418   4.045 -0.0411  0.7041 -0.1808
17798TIP3    H274810   5.939   3.555   4.110  0.0656  1.1163 -1.0220
17799TIP3   OH274811   3.722   2.103   1.491  0.2302 -0.0895  0.0489
17799TIP3    H174812   3.810   2.125   1.522 -0.1244  0.8836  0.4051
17799TIP3    H274813   3.695   2.179   1.440 -0.1419 -0.6689 -0.6376
17800TIP3   OH274814   0.557   3.378   4.576 -0.0409 -0.0724 -0.0983
17800TIP3    H174815   0.605   3.326   4.640 -0.1268  0.4590  0.4069
17800TIP3    H274816   0.472   3.393   4.616 -0.0643  0.3367 -0.2945
17801TIP3   OH274817   3.463   0.837   0.211 -0.0367  0.7372  0.1721
17801TIP3    H174818   3.376   0.824   0.250 -0.5808 -0.1733 -1.2581
17801TIP3    H274819   3.470   0.769   0.144  0.7640  2.3375 -1.4682
17802TIP3   OH274820   0.943   2.584   0.300  0.3574 -0.0575  0.1750
17802TIP3    H174821   0.989   2.503   0.321 -1.6451 -1.1863  0.4912
17802TIP3    H274822   0.997   2.653   0.338  0.7869 -1.4558  2.2820
17803TIP3   OH274823   2.138   1.948   6.518 -0.6221 -0.0762  0.5134
17803TIP3    H174824   2.069   1.889   6.487 -0.5974  0.3983 -0.4745
17803TIP3    H274825   2.173   1.904   6.596  1.0196 -2.6230 -1.4722
17804TIP3   OH274826   0.397   6.157  13.828  0.3007  0.6558 -0.1372
17804TIP3    H174827   0.465   6.222  13.847  1.9480 -1.0877  0.2459
17804TIP3    H274828   0.346   6.151  13.908 -0.2762  1.8903 -0.3847
17805TIP3   OH274829   1.715   6.587  13.965 -0.3305 -0.8064 -0.0408
17805TIP3    H174830   1.726   6.527  13.892 -0.0118  0.9266 -1.4876
17805TIP3    H274831   1.726   6.674  13.927 -0.3603  0.1795  2.0343
17806TIP3   OH274832   5.661   0.734   6.184 -0.5077 -0.3197  0.0905
17806TIP3    H174833   5.628   0.646   6.200 -2.9598  0.1137 -1.9985
17806TIP3    H274834   5.668   0.774   6.271 -1.2410 -1.9031  0.9150
17807TIP3   OH274835   4.581   3.249  11.939 -0.4493  0.2997 -0.2957
17807TIP3    H174836   4.543   3.279  11.856  0.6941  2.2169 -0.2000
17807TIP3    H274837   4.672   3.277  11.936 -0.0609 -0.6646  1.1219
17808TIP3   OH274838   5.527   2.649  16.689 -0.2634  0.0474 -0.5268
17808TIP3    H174839   5.621   2.664  16.686 -0.4644  1.2364 -2.1949
17808TIP3    H274840   5.500   2.646  16.597 -2.2187  2.5403 -0.1496
17809TIP3   OH274841   4.381   6.429   0.031 -0.3620  0.0029 -0.5305
17809TIP3    H174842   4.363   6.405  -0.059  1.3630 -0.1689 -0.8510
17809TIP3    H274843   4.461   6.482   0.027 -1.1851  1.4579  0.7178
17810TIP3   OH274844   3.639   4.561   3.835  0.2651 -0.0740  0.0145
17810TIP3    H174845   3.648   4.506   3.757  0.7810 -0.1596  0.1255
17810TIP3    H274846   3.549   4.591   3.834 -0.2195 -1.4343  0.2839
17811TIP3   OH274847   3.254   3.328   5.353 -0.2264 -0.1618 -0.5251
17811TIP3    H174848   3.240   3.348   5.261 -0.3519  1.1729 -0.2440
17811TIP3    H274849   3.335   3.374   5.376 -1.3025  1.3254  0.5201
17812TIP3   OH274850   1.070   5.873  15.210 -0.4980  0.5568  0.6758
17812TIP3    H174851   1.077   5.931  15.286  1.5940  0.3491  0.6974
17812TIP3    H274852   1.059   5.932  15.136  0.7844  0.9636  0.7885
17813TIP3   OH274853   4.382   4.329  16.235 -0.4503 -0.5675  0.4087
17813TIP3    H174854   4.319   4.392  16.269  0.8325  0.2316  1.4038
17813TIP3    H274855   4.459   4.340  16.290  0.3078 -2.0315 -0.3058
17814TIP3   OH274856   2.233   3.650  14.457 -0.0589  0.1800  0.3997
17814TIP3    H174857   2.244   3.704  14.536  1.0935  0.3639  0.1255
17814TIP3    H274858   2.189   3.571  14.489  2.5484 -0.8418  1.7181
17815TIP3   OH274859   1.018   1.492  12.243 -0.4905 -0.4917 -0.4161
17815TIP3    H174860   1.059   1.504  12.329 -0.9799 -0.1033 -0.2287
17815TIP3    H274861   1.013   1.581  12.207  0.4366 -0.7466 -1.1899
17816TIP3   OH274862   5.369   2.532  14.206 -0.0905  0.2634 -0.0441
17816TIP3    H174863   5.281   2.536  14.168 -0.9838  1.0102  1.9665
17816TIP3    H274864   5.371   2.449  14.254 -1.3243  2.0384  3.4001
17817TIP3   OH274865   4.509   1.433  10.128 -0.2537 -0.1970  0.4642
17817TIP3    H174866   4.435   1.372  10.127 -0.8471  0.5112  0.0887
17817TIP3    H274867   4.587   1.376  10.130 -0.8020 -0.9480  2.2004
17818TIP3   OH274868   4.585   0.305   1.157 -0.1608 -0.2129 -0.3920
17818TIP3    H174869   4.672   0.332   1.184 -0.6152  0.3518  0.5351
17818TIP3    H274870   4.551   0.255   1.231 -0.9947  0.4012 -0.3472
17819TIP3   OH274871   5.768   2.079  10.870 -0.1030 -0.5177  0.3032
17819TIP3    H174872   5.765   2.167  10.909  0.2081 -0.3263 -0.0899
17819TIP3    H274873   5.726   2.089  10.785  1.7901 -0.2317 -0.6702
17820TIP3   OH274874   0.357   1.885   4.856  0.2764  0.5217 -0.1325
17820TIP3    H174875   0.430   1.824   4.846  0.4968  0.8944 -0.8925
17820TIP3    H274876   0.283   1.830   4.882  1.0338  0.2590  1.6216
17821TIP3   OH274877   2.647   1.749   1.312  0.3203 -0.1968  0.0497
17821TIP3    H174878   2.669   1.838   1.340 -0.9234 -0.2555  1.3073
17821TIP3    H274879   2.655   1.696   1.391 -2.5626 -0.5052  0.2293
17822TIP3   OH274880   0.151   2.531   4.563 -0.0578 -0.5882  0.3414
17822TIP3    H174881   0.179   2.622   4.566  0.3469 -0.5992 -1.8608
17822TIP3    H274882   0.065   2.533   4.521  0.2912 -1.2660 -0.4360
17823TIP3   OH274883   2.461   5.234   5.712  0.1157 -0.4720  0.2794
17823TIP3    H174884   2.532   5.220   5.649 -0.3397 -1.1741 -0.0860
17823TIP3    H274885   2.482   5.318   5.753  1.6996 -1.1249  0.8852
17824TIP3   OH274886   0.486   5.779   1.108  0.4404  0.3119 -0.1253
17824TIP3    H174887   0.516   5.768   1.198  1.0847  0.8678 -0.2682
17824TIP3    H274888   0.391   5.793   1.116  0.0236 -2.1591  0.2780
17825TIP3   OH274889   1.919   5.011  15.881  0.3948 -0.1580 -0.1448
17825TIP3    H174890   1.861   4.977  15.813  0.9677 -0.7353 -0.3530
17825TIP3    H274891   1.944   4.933  15.932  0.1046  0.2385  0.6296
17826TIP3   OH274892   5.746   3.245  17.079  0.1268  0.5314  0.6347
17826TIP3    H174893   5.769   3.152  17.083 -1.7985 -0.0495 -0.5938
17826TIP3    H274894   5.829   3.291  17.092  1.4039 -1.3624 -0.4041
17827TIP3   OH274895   1.214   3.048   0.007  0.3752  0.0516 -0.1928
17827TIP3    H174896   1.140   3.074  -0.048  0.7041  0.9070 -0.2422
17827TIP3    H274897   1.240   3.128   0.052  1.6453 -0.1033 -0.6084
17828TIP3   OH274898   2.235   1.015   1.444  0.2347 -0.1222  0.2339
17828TIP3    H174899   2.141   1.018   1.429  0.2979  3.3626 -0.2694
17828TIP3    H274900   2.274   1.029   1.358  1.4874 -4.6046 -0.1865
17829TIP3   OH274901   4.914   2.311  11.106  0.3056  0.0433  0.5081
17829TIP3    H174902   4.871   2.315  11.020  0.5705 -0.1594  0.3672
17829TIP3    H274903   5.007   2.302  11.087  0.5735  1.7916  0.8004
17830TIP3   OH274904   1.770   1.427   1.471  0.0670  0.3036 -0.4279
17830TIP3    H174905   1.791   1.512   1.512  0.3922 -0.3631  0.8453
17830TIP3    H274906   1.680   1.409   1.497 -0.2075  0.5270 -1.2001
17831TIP3   OH274907   6.259   1.890  15.527  0.6614 -0.0098  0.1228
17831TIP3    H174908   6.340   1.842  15.545  1.2835  0.9118 -0.1463
17831TIP3    H274909   6.265   1.967  15.583 -0.6485 -0.5651  1.0645
17832TIP3   OH274910   2.680   3.327   2.494  0.1072  0.3633 -0.4763
17832TIP3    H174911   2.748   3.265   2.520 -0.5051 -0.1116  0.0482
17832TIP3    H274912   2.721   3.414   2.504  0.5582  0.0958  0.0713
17833TIP3   OH274913   1.613   6.022   1.373  0.1852  0.2660 -0.8166
17833TIP3    H174914   1.617   6.017   1.469  1.8725 -0.3691 -0.8828
17833TIP3    H274915   1.602   5.931   1.345  0.8246  0.3155 -1.2468
17834TIP3   OH274916   0.640   2.595  17.134 -0.4629 -0.3325 -0.2277
17834TIP3    H174917   0.689   2.637  17.204 -0.1563  0.5125 -0.9408
17834TIP3    H274918   0.565   2.555  17.178 -0.6697  0.8147  0.4912
17835TIP3   OH274919   4.426   6.294  13.436 -0.1350 -0.0056  0.2925
17835TIP3    H174920   4.498   6.333  13.385  0.6353 -3.5298 -1.6242
17835TIP3    H274921   4.394   6.222  13.382 -2.4483 -1.1057  2.8745
17836TIP3   OH274922   4.705   3.729   3.307 -0.5674  0.2187 -0.0064
17836TIP3    H174923   4.616   3.704   3.329 -0.6303  0.4267 -0.0270
17836TIP3    H274924   4.697   3.780   3.226 -0.2413 -1.4607 -1.1466
17837TIP3   OH274925   1.201   4.194  13.387 -0.0074 -0.2370 -0.2028
17837TIP3    H174926   1.260   4.221  13.457  0.9211 -1.5487 -0.4345
17837TIP3    H274927   1.209   4.262  13.320  0.0907  0.3579  0.4093
17838TIP3   OH274928   2.090   4.809   2.648  0.0289 -0.3669 -0.2295
17838TIP3    H174929   2.082   4.896   2.609  0.5949 -0.3479 -0.3081
17838TIP3    H274930   2.000   4.783   2.668 -0.2139 -0.1098 -0.9591
17839TIP3   OH274931   1.384   4.234   0.327  0.5914 -0.2572  0.0940
17839TIP3    H174932   1.398   4.306   0.389  1.7391 -1.1027  0.8657
17839TIP3    H274933   1.415   4.156   0.374 -0.5104 -1.2504 -0.7566
17840TIP3   OH274934   3.054   2.335   0.703 -0.6582 -0.3294 -0.6651
17840TIP3    H174935   3.029   2.261   0.647 -0.0999 -0.5225 -0.6583
17840TIP3    H274936   3.052   2.411   0.645 -0.5155 -0.4608 -0.8410
17841TIP3   OH274937   3.616   3.655  10.968 -0.4997  0.1236  0.1236
17841TIP3    H174938   3.550   3.637  11.036 -0.4977 -1.4007 -0.2404
17841TIP3    H274939   3.669   3.575  10.965  1.1648  1.1859  0.1568
17842TIP3   OH274940   3.990   3.842   0.687 -0.1150  0.1769 -0.3244
17842TIP3    H174941   3.996   3.888   0.771 -2.0944 -0.0445 -0.0285
17842TIP3    H274942   3.936   3.765   0.706 -0.0344 -0.2236 -1.6652
17843TIP3   OH274943   0.243   2.068   0.157  0.0587 -0.2913  0.7235
17843TIP3    H174944   0.235   2.086   0.063  0.2572 -1.1368  0.5351
17843TIP3    H274945   0.156   2.038   0.183  0.1359 -0.5341  0.7021
17844TIP3   OH274946   1.721   4.095  16.149 -0.2276 -0.9003 -0.5872
17844TIP3    H174947   1.652   4.036  16.120 -1.7963  0.6974 -0.2519
17844TIP3    H274948   1.677   4.157  16.208  1.9703 -1.3249  1.6670
17845TIP3   OH274949   5.304   2.879   2.503 -0.2102 -0.4077 -0.0012
17845TIP3    H174950   5.278   2.853   2.415 -1.5005 -2.2227  0.8438
17845TIP3    H274951   5.368   2.813   2.530 -1.3530 -1.1360  1.1148
17846TIP3   OH274952   4.888   6.068  11.879 -0.1716  0.6043 -0.2342
17846TIP3    H174953   4.821   6.000  11.876  0.3420  0.0551  0.4654
17846TIP3    H274954   4.946   6.042  11.951  0.2258  1.6017 -0.1743
17847TIP3   OH274955   6.573   5.752  15.408 -0.0595  0.3146 -0.0762
17847TIP3    H174956   6.485   5.791  15.406  0.6545  2.0808  0.8546
17847TIP3    H274957   6.611   5.777  15.324 -0.0380  0.5893  0.0122
17848TIP3   OH274958   0.582   1.833  13.703  0.0129  0.0690 -0.2075
17848TIP3    H174959   0.651   1.791  13.755 -1.2590 -0.1087  1.4259
17848TIP3    H274960   0.581   1.924  13.735 -0.0697  0.2417 -0.6960
17849TIP3   OH274961   3.165   6.344   1.957 -0.2880  0.4312 -0.6168
17849TIP3    H174962   3.211   6.412   2.006 -1.7334  1.4295 -0.6110
17849TIP3    H274963   3.073   6.358   1.976 -0.7286 -0.5292 -1.8938
17850TIP3   OH274964   6.142   6.617  14.155  0.0748 -0.0100 -0.0670
17850TIP3    H174965   6.127   6.539  14.207 -3.0415 -0.6498 -1.6574
17850TIP3    H274966   6.062   6.669  14.166  0.5804  1.2328 -1.8193
17851TIP3   OH274967   1.463   1.897  15.763 -0.2744  0.1637  0.5091
17851TIP3    H174968   1.427   1.881  15.851 -1.9830 -0.4266 -0.2635
17851TIP3    H274969   1.410   1.968  15.728  1.5619  1.6473  0.5688
17852TIP3   OH274970   0.383   5.106  12.604  0.1245  0.1463 -0.0842
17852TIP3    H174971   0.328   5.028  12.605 -0.2675  0.2385 -3.0087
17852TIP3    H274972   0.468   5.075  12.573 -0.0818  0.8157 -1.4489
17853TIP3   OH274973   5.429   3.917  14.100 -0.4167  0.2669  0.4321
17853TIP3    H174974   5.430   3.979  14.028  0.1991  0.3428  0.4987
17853TIP3    H274975   5.419   3.971  14.178  0.2174  0.3062  0.4982
17854TIP3   OH274976   4.517   4.754   5.999 -0.0611 -0.0400  0.4705
17854TIP3    H174977   4.573   4.729   5.926  0.7428  0.9365  0.7395
17854TIP3    H274978   4.577   4.789   6.065 -1.0256  1.6540  0.5084
17855TIP3   OH274979   5.284   5.079  11.537  0.5846  0.8822  0.4428
17855TIP3    H174980   5.262   5.171  11.524  0.3702  1.0403  1.8390
17855TIP3    H274981   5.372   5.080  11.573  1.2492  0.4387 -1.0718
17856TIP3   OH274982   3.499   3.834  12.689 -0.1409 -0.6902  0.3099
17856TIP3    H174983   3.521   3.823  12.596  0.8153 -0.3411  0.4851
17856TIP3    H274984   3.444   3.758  12.709  0.9327 -1.6133 -0.1469
17857TIP3   OH274985   2.309   6.185  16.936 -0.3584 -0.0199  0.2589
17857TIP3    H174986   2.319   6.166  16.842  0.3187 -0.5833  0.4348
17857TIP3    H274987   2.376   6.250  16.955 -0.5642  0.1717  0.3323
17858TIP3   OH274988   6.048   0.621  14.832 -0.1189  0.7220  0.3139
17858TIP3    H174989   6.107   0.680  14.785  0.4602  2.7847  3.3349
17858TIP3    H274990   6.103   0.582  14.900 -1.0364 -1.6718 -0.2280
17859TIP3   OH274991   0.299   4.657   4.725 -0.1170 -0.2009 -0.5686
17859TIP3    H174992   0.282   4.686   4.815  0.6339  0.5219 -0.6513
17859TIP3    H274993   0.212   4.652   4.685 -0.9582 -4.3632  1.2644
17860TIP3   OH274994   3.028   0.100   0.137 -0.2817 -0.7798 -0.8080
17860TIP3    H174995   2.972   0.172   0.167  0.5849 -1.2548  2.3545
17860TIP3    H274996   3.031   0.110   0.042 -2.0522  1.9505 -0.7012
17861TIP3   OH274997   6.607   5.198   5.223 -0.5895  0.4468 -0.1866
17861TIP3    H174998   6.546   5.136   5.261 -1.8444  1.9935  0.4453
17861TIP3    H274999   6.554   5.252   5.165  0.4389  0.9862 -0.6596
17862TIP3   OH275000   5.125   4.046  13.657 -0.7890  0.3791  0.3563
17862TIP3    H175001   5.098   4.006  13.740 -1.0218  2.3451  1.2977
17862TIP3    H275002   5.219   4.028  13.651 -1.1743 -1.7573 -0.1621
17863TIP3   OH275003   4.615   6.562  16.690  0.6380 -0.0991 -0.2864
17863TIP3    H175004   4.566   6.480  16.691  2.3719 -1.2198 -1.4017
17863TIP3    H275005   4.549   6.631  16.684 -0.8098 -1.4672 -0.3847
17864TIP3   OH275006   3.497   6.351   4.945  0.4241  0.3945 -0.4168
17864TIP3    H175007   3.582   6.361   4.903  0.2176  0.3197 -0.8628
17864TIP3    H275008   3.512   6.374   5.036  1.1452 -0.6047 -0.2723
17865TIP3   OH275009   0.566   2.237   1.633 -0.1494  0.0088 -0.0180
17865TIP3    H175010   0.473   2.250   1.613 -0.3314  1.6813  1.6537
17865TIP3    H275011   0.582   2.293   1.709  1.8879 -1.3974  0.6591
17866TIP3   OH275012   1.220   3.894  13.397  0.8036  0.4961 -0.6958
17866TIP3    H175013   1.305   3.934  13.414  0.4123  0.5251  1.4695
17866TIP3    H275014   1.157   3.964  13.417  0.2133 -0.2812  0.2315
17867TIP3   OH275015   6.535   1.216   5.121  0.8004  0.1575 -0.1639
17867TIP3    H175016   6.574   1.137   5.158  0.5162  0.3477  0.5633
17867TIP3    H275017   6.507   1.191   5.033  1.7979 -0.2105 -0.3855
17868TIP3   OH275018   1.920   5.763  10.821  0.1016  0.0895  0.0335
17868TIP3    H175019   1.926   5.848  10.865  1.7702  0.2909 -0.5120
17868TIP3    H275020   1.984   5.708  10.866 -1.1940 -1.0243  0.6017
17869TIP3   OH275021   5.422   2.095   5.741 -0.0092 -0.6239  0.3800
17869TIP3    H175022   5.476   2.068   5.667  0.9627 -0.5267  1.0306
17869TIP3    H275023   5.485   2.111   5.812 -1.0407 -2.8605  1.9186
17870TIP3   OH275024   4.850   0.904   4.328  0.1066  0.3393  0.3703
17870TIP3    H175025   4.858   0.836   4.260 -3.8879  0.4006 -0.4391
17870TIP3    H275026   4.869   0.986   4.282  0.2972  0.1420  0.0917
17871TIP3   OH275027   6.172   4.576   4.553  0.7064  0.4149 -0.0861
17871TIP3    H175028   6.194   4.660   4.592 -0.1090 -0.5501  2.6633
17871TIP3    H275029   6.076   4.578   4.544  0.4618 -0.8125  1.7045
17872TIP3   OH275030   1.760   0.584   5.836  0.1666 -0.6916  0.1224
17872TIP3    H175031   1.766   0.610   5.928  0.1468 -0.3731  0.0350
17872TIP3    H275032   1.786   0.492   5.835 -0.5284 -0.9027  0.5517
17873TIP3   OH275033   4.694   3.818  17.149  0.0585  0.3660  0.5443
17873TIP3    H175034   4.701   3.729  17.183  0.6242  0.3209  0.3155
17873TIP3    H275035   4.703   3.875  17.225  0.0220  0.2347  0.6456
17874TIP3   OH275036   4.184   4.915  13.908 -0.2131  0.0225 -0.1725
17874TIP3    H175037   4.242   4.838  13.906  0.1853  0.2790  0.9327
17874TIP3    H275038   4.244   4.990  13.903 -0.6286  0.2859 -1.7748
17875TIP3   OH275039   2.504   4.027  15.749  0.0285  0.0365  0.1674
17875TIP3    H175040   2.528   4.066  15.833  0.1679  1.3519 -0.4480
17875TIP3    H275041   2.567   4.064  15.687  0.1749 -1.2117 -0.4663
17876TIP3   OH275042   1.568   1.268  15.261  0.3799  0.0628 -0.0194
17876TIP3    H175043   1.513   1.230  15.330 -0.7031  3.0026  0.9135
17876TIP3    H275044   1.518   1.254  15.180 -0.3251  0.0954  0.4009
17877TIP3   OH275045   4.585   0.299   1.535 -0.0854  0.5973 -0.2497
17877TIP3    H175046   4.517   0.358   1.567  0.4949  1.0554  0.1729
17877TIP3    H275047   4.653   0.358   1.501  0.2256  0.1534 -0.4026
17878TIP3   OH275048   0.899   3.915   3.407  0.2626  0.3103  0.1124
17878TIP3    H175049   0.808   3.884   3.401  0.5346 -0.4170 -0.4109
17878TIP3    H275050   0.950   3.849   3.360  1.0193  0.9174  0.0582
17879TIP3   OH275051   3.984   2.418   4.701 -0.0407  0.1435  0.1835
17879TIP3    H175052   4.008   2.326   4.696 -1.9979 -0.4557  0.8119
17879TIP3    H275053   4.011   2.445   4.789  1.9054  0.6476 -0.5148
17880TIP3   OH275054   3.328   4.876   2.654  0.3338  0.6043  0.1591
17880TIP3    H175055   3.240   4.910   2.639  0.7451  2.2092  1.1498
17880TIP3    H275056   3.333   4.863   2.749  0.5562 -1.3238 -0.0705
17881TIP3   OH275057   0.094   1.226  16.294 -0.2939 -0.3586 -0.8119
17881TIP3    H175058   0.047   1.161  16.242 -2.1742  0.6280 -0.4247
17881TIP3    H275059   0.108   1.183  16.379  1.0409 -1.2574 -1.4554
17882TIP3   OH275060   3.865   1.708  17.154 -0.1593  0.6107 -0.0407
17882TIP3    H175061   3.830   1.665  17.232 -2.0746  0.3745 -0.9587
17882TIP3    H275062   3.860   1.802  17.174 -1.0150  0.5674 -0.0109
17883TIP3   OH275063   0.318   2.245   1.508 -0.1593 -0.2920  0.2081
17883TIP3    H175064   0.309   2.313   1.441  3.0585  1.2255  1.1168
17883TIP3    H275065   0.302   2.163   1.462  2.1871  0.6675 -2.6170
17884TIP3   OH275066   6.103   6.689   4.102  0.1695  0.1930 -0.3582
17884TIP3    H175067   6.186   6.677   4.148  1.9008 -0.1414 -3.3288
17884TIP3    H275068   6.096   6.784   4.090  0.4129  0.1803 -0.6041
17885TIP3   OH275069   4.599   5.409   0.324  0.1653 -0.0301  0.2064
17885TIP3    H175070   4.539   5.366   0.385  0.2979 -1.3305 -0.5461
17885TIP3    H275071   4.683   5.366   0.339  0.4401  0.3792 -0.1548
17886TIP3   OH275072   2.584   3.575  13.063  0.4618 -0.2387 -0.1472
17886TIP3    H175073   2.657   3.629  13.091  2.3239 -2.2489 -0.8386
17886TIP3    H275074   2.532   3.632  13.007  1.6612  1.1593  0.1057
17887TIP3   OH275075   0.143   5.397  12.992  0.0552  0.4328 -0.3651
17887TIP3    H175076   0.052   5.418  12.972  0.0679  0.1206 -0.7674
17887TIP3    H275077   0.165   5.326  12.932 -0.2909 -1.4696  1.6532
17888TIP3   OH275078   0.899   0.776  12.425  0.0464 -0.3755 -0.0284
17888TIP3    H175079   0.886   0.868  12.403  2.5521 -0.3019 -1.5451
17888TIP3    H275080   0.859   0.728  12.353 -1.8272 -0.5770  1.0709
17889TIP3   OH275081   1.620   3.971  15.809 -0.0173  0.2731 -0.2234
17889TIP3    H175082   1.592   4.055  15.773  1.6909  0.7285 -0.5819
17889TIP3    H275083   1.579   3.906  15.751  1.4088  0.9639 -2.0886
17890TIP3   OH275084   0.979   5.624  16.002 -0.4781  0.1707  0.1631
17890TIP3    H175085   0.963   5.654  15.913  0.5020 -0.1489 -0.1272
17890TIP3    H275086   1.060   5.574  15.997  0.8311  2.0262  1.6689
17891TIP3   OH275087   1.314   2.576  11.857 -0.2730 -0.2435 -0.0495
17891TIP3    H175088   1.361   2.652  11.821 -0.0776 -1.0766 -1.6517
17891TIP3    H275089   1.224   2.586  11.826 -0.0769 -1.0297 -0.9279
17892TIP3   OH275090   5.886   1.351   1.500 -0.0417 -0.3829  0.4202
17892TIP3    H175091   5.953   1.325   1.436 -1.6857 -1.2981 -0.9972
17892TIP3    H275092   5.859   1.269   1.541 -3.0959 -0.7498 -1.9228
17893TIP3   OH275093   4.756   5.367   0.659 -0.1112  0.5563 -0.1577
17893TIP3    H175094   4.829   5.323   0.702  0.1590  0.1368 -1.0241
17893TIP3    H275095   4.772   5.354   0.565 -2.0728 -0.8196 -0.3526
17894TIP3   OH275096   2.759   0.067   6.731  0.2109 -0.1696  0.5381
17894TIP3    H175097   2.698   0.001   6.765  1.6045 -1.0404  1.4775
17894TIP3    H275098   2.715   0.150   6.746 -1.2512 -0.8203  0.0695
17895TIP3   OH275099   1.516   1.339   4.703 -0.0921  0.1018  0.5046
17895TIP3    H175100   1.558   1.334   4.789 -1.5975 -0.1369  1.2715
17895TIP3    H275101   1.466   1.420   4.706 -0.3258 -0.0188 -0.0598
17896TIP3   OH275102   4.619   6.562   5.424  0.1356  0.5392  0.0532
17896TIP3    H175103   4.525   6.543   5.431  0.2508  0.2808  1.0481
17896TIP3    H275104   4.643   6.597   5.509  1.1419 -0.3073  0.1414
17897TIP3   OH275105   6.206   2.854  14.689  0.1813  0.0052 -0.4662
17897TIP3    H175106   6.247   2.889  14.768  0.9031 -0.7307 -0.5041
17897TIP3    H275107   6.213   2.759  14.698 -1.6270 -0.1679 -0.4213
17898TIP3   OH275108   1.035   1.917   0.916 -0.3167  0.0734  0.3064
17898TIP3    H175109   1.074   1.836   0.883 -1.3773 -0.5168  0.4843
17898TIP3    H275110   1.110   1.965   0.953  0.1405 -1.4273  1.4507
17899TIP3   OH275111   5.394   2.201  15.454 -0.7048  0.7032 -0.0465
17899TIP3    H175112   5.437   2.117  15.441 -0.1260  0.7659  1.3013
17899TIP3    H275113   5.360   2.225  15.367 -0.6540 -0.7818 -0.4943
17900TIP3   OH275114   5.609   1.165  11.866 -0.1904 -0.1275 -0.2754
17900TIP3    H175115   5.631   1.185  11.775 -0.3881  0.5819 -0.1663
17900TIP3    H275116   5.635   1.073  11.877 -1.7958 -0.7851 -1.5664
17901TIP3   OH275117   4.614   4.221   3.009  0.3087  0.3357  0.1834
17901TIP3    H175118   4.611   4.259   2.921  1.0378  2.4875  1.0162
17901TIP3    H275119   4.654   4.289   3.063  2.2140 -1.8583  1.7412
17902TIP3   OH275120   0.677   0.577   1.826  0.9765 -0.1407 -0.4946
17902TIP3    H175121   0.625   0.556   1.749 -2.0800 -2.5376  1.9075
17902TIP3    H275122   0.747   0.512   1.827  0.1730 -1.0347 -0.5922
17903TIP3   OH275123   3.545   5.058  10.920  0.1070  0.1543  0.8637
17903TIP3    H175124   3.498   4.982  10.885  0.4920 -0.0873  0.8675
17903TIP3    H275125   3.477   5.124  10.932 -0.0003  0.3447 -0.6086
17904TIP3   OH275126   2.177   4.942  15.248  0.0919  0.5851  0.2614
17904TIP3    H175127   2.166   4.900  15.333  0.4730  0.6749  0.3587
17904TIP3    H275128   2.159   5.035  15.265  0.4544  0.6501  0.3112
17905TIP3   OH275129   1.466   6.130   5.070  0.1476 -0.6041 -0.4249
17905TIP3    H175130   1.471   6.150   5.163  0.1507  2.1736 -0.9543
17905TIP3    H275131   1.546   6.168   5.033 -0.2710 -0.9146 -1.6847
17906TIP3   OH275132   1.112   5.677   5.425  0.0738  0.3583 -0.1625
17906TIP3    H175133   1.067   5.610   5.372  0.7487  0.6649 -1.1509
17906TIP3    H275134   1.134   5.632   5.506 -1.2799 -0.0330  0.0199
17907TIP3   OH275135   3.720   6.050   6.494  0.2925 -0.2911  0.0079
17907TIP3    H175136   3.674   6.086   6.570  2.6988  0.6667  1.1134
17907TIP3    H275137   3.745   6.127   6.442  1.9735 -0.6062  0.2835
17908TIP3   OH275138   1.579   3.877   6.234 -0.0783 -0.3874 -0.1107
17908TIP3    H175139   1.672   3.887   6.217  0.0815 -3.0417 -1.2552
17908TIP3    H275140   1.562   3.935   6.309  2.6641 -0.5258  0.7245
17909TIP3   OH275141   3.866   5.476   1.173 -0.1803 -0.3093  0.5426
17909TIP3    H175142   3.867   5.572   1.166  1.4569 -0.3726 -1.2688
17909TIP3    H275143   3.934   5.457   1.237  0.2357 -0.2592  0.1263
17910TIP3   OH275144   1.152   6.239   5.240  0.4877 -0.6775  0.1776
17910TIP3    H175145   1.194   6.239   5.154  0.3997 -1.1966  0.1341
17910TIP3    H275146   1.103   6.322   5.243 -1.5279 -1.7280 -1.2749
17911TIP3   OH275147   4.932   1.497   1.886  0.6520 -0.4037 -0.1005
17911TIP3    H175148   5.025   1.518   1.882  0.7477 -0.7362  0.3940
17911TIP3    H275149   4.929   1.405   1.911  0.1797 -0.2792  0.3071
17912TIP3   OH275150   0.413   3.176   5.229 -0.0358  0.3698  0.5834
17912TIP3    H175151   0.385   3.207   5.143 -0.8304 -2.0152 -0.0828
17912TIP3    H275152   0.337   3.131   5.265  0.4414  0.8823  2.3479
17913TIP3   OH275153   3.928   0.748   3.473 -0.6466 -0.3429 -0.2518
17913TIP3    H175154   3.944   0.739   3.379 -1.6627  1.3026 -0.6201
17913TIP3    H275155   3.936   0.841   3.490  0.4390 -0.7119  1.5126
17914TIP3   OH275156   0.520   3.860   2.728 -0.6698 -0.2816  0.2390
17914TIP3    H175157   0.445   3.912   2.756 -1.0558 -0.2585 -0.8275
17914TIP3    H275158   0.566   3.915   2.665 -1.7151 -1.6041 -1.7932
17915TIP3   OH275159   3.947   6.516  16.105 -0.4265  0.1511 -0.4214
17915TIP3    H175160   3.892   6.535  16.180 -0.3189 -0.5296 -0.1594
17915TIP3    H275161   3.919   6.429  16.077  1.6750 -0.9899  0.7947
17916TIP3   OH275162   0.890   4.942  15.590  0.3048  0.5281  0.2802
17916TIP3    H175163   0.834   4.900  15.525  0.3070 -0.8298  1.1168
17916TIP3    H275164   0.924   4.870  15.643 -0.6947  1.6165  2.5931
17917TIP3   OH275165   5.409   1.562   2.894  0.0894  0.5153  0.1922
17917TIP3    H175166   5.342   1.606   2.842 -0.6014  0.1272  0.7381
17917TIP3    H275167   5.456   1.634   2.937 -0.3670  0.7633  0.2789
17918TIP3   OH275168   5.053   1.253   0.981 -0.0602 -0.1162 -0.5321
17918TIP3    H175169   5.005   1.217   0.906  1.1624 -0.8831 -0.9754
17918TIP3    H275170   5.051   1.184   1.047  0.7091 -0.3088 -0.6917
17919TIP3   OH275171   4.980   0.801   2.684  0.0026  0.0638 -0.7091
17919TIP3    H175172   5.003   0.864   2.752  1.5598 -0.4440 -0.7286
17919TIP3    H275173   4.887   0.784   2.697 -0.0592  1.1061  0.3376
17920TIP3   OH275174   2.014   2.097   4.668  1.3953  0.1983 -0.2296
17920TIP3    H175175   1.945   2.162   4.655 -0.2932 -1.2662  0.7212
17920TIP3    H275176   2.028   2.096   4.763 -0.5371 -2.5040  0.1632
17921TIP3   OH275177   3.863   4.667  13.759  0.5530  0.2119  0.4592
17921TIP3    H175178   3.880   4.573  13.759 -0.0178  0.0928 -1.0032
17921TIP3    H275179   3.792   4.679  13.823 -1.2834 -0.7551 -1.2935
17922TIP3   OH275180   3.932   2.100  12.295  0.0160  0.0560 -0.1477
17922TIP3    H175181   3.913   2.008  12.315  0.0610  0.2364  0.7664
17922TIP3    H275182   3.998   2.096  12.227 -1.0928 -0.5866 -1.2369
17923TIP3   OH275183   5.013   6.302  13.846 -0.3325  0.1508 -0.0531
17923TIP3    H175184   4.935   6.331  13.893 -0.1237 -1.5622  1.4384
17923TIP3    H275185   5.040   6.222  13.891  2.2309  0.6283 -0.6072
17924TIP3   OH275186   4.983   6.662   2.623 -0.2054 -0.4295  0.4753
17924TIP3    H175187   4.988   6.757   2.613  1.3212 -0.3647  1.3958
17924TIP3    H275188   4.977   6.627   2.534  1.5225  0.4617 -0.0266
17925TIP3   OH275189   5.939   0.526   5.142 -0.2537 -0.4888  0.0694
17925TIP3    H175190   6.026   0.563   5.126 -0.2456 -0.3104  0.5038
17925TIP3    H275191   5.880   0.581   5.090 -0.3273  0.5947  1.2331
17926TIP3   OH275192   3.311   3.220  16.175 -0.3146 -0.4233  0.3251
17926TIP3    H175193   3.247   3.256  16.235 -0.1282  0.3597  0.0648
17926TIP3    H275194   3.315   3.127  16.197 -0.1713 -0.1281  1.5761
17927TIP3   OH275195   5.384   5.646   3.692 -0.0665  0.1669 -0.4684
17927TIP3    H175196   5.321   5.663   3.621 -1.9928 -0.1522  1.0618
17927TIP3    H275197   5.426   5.731   3.707  0.3087  0.2573 -1.8998
17928TIP3   OH275198   5.411   3.436  10.603 -0.2153  0.0622 -0.4867
17928TIP3    H175199   5.336   3.447  10.545 -0.5841 -0.0402 -0.0324
17928TIP3    H275200   5.400   3.349  10.642 -0.2899  0.3682  0.1885
17929TIP3   OH275201   6.520   4.994   4.500  0.2906  0.4952 -0.0577
17929TIP3    H175202   6.555   4.972   4.586 -0.5059 -0.0350  0.1449
17929TIP3    H275203   6.578   4.949   4.439 -0.7487 -1.4968  0.3212
17930TIP3   OH275204   1.368   3.691   4.077  0.0545  0.3049 -0.0037
17930TIP3    H175205   1.375   3.596   4.090 -1.1134  0.1576 -0.2989
17930TIP3    H275206   1.379   3.727   4.165  0.6181 -0.0973  0.0957
17931TIP3   OH275207   4.591   2.529   3.572  0.2973  0.3087 -0.8156
17931TIP3    H175208   4.569   2.568   3.487 -1.9678  1.7744  0.3357
17931TIP3    H275209   4.532   2.454   3.580  0.6094  0.0832 -0.5907
17932TIP3   OH275210   5.394   3.944   5.409  0.0217  0.1464  0.0422
17932TIP3    H175211   5.414   3.930   5.502 -0.2011  0.6372  0.1672
17932TIP3    H275212   5.345   3.865   5.384  1.1873 -0.5782 -0.0041
17933TIP3   OH275213   3.363   0.531   0.239  0.1027  0.3304 -0.2335
17933TIP3    H175214   3.414   0.522   0.158  0.5336 -2.6914  0.2460
17933TIP3    H275215   3.284   0.480   0.223 -0.2271  0.4494  0.9260
17934TIP3   OH275216   4.087   2.004   2.847 -0.0163 -0.3169 -0.0431
17934TIP3    H175217   4.067   2.038   2.760  1.3913  1.1809  0.1655
17934TIP3    H275218   4.181   1.984   2.844  0.6485  2.0150  1.7513
17935TIP3   OH275219   0.950   5.314   6.020  0.0480  0.2061 -0.5020
17935TIP3    H175220   0.928   5.329   5.928 -0.0920 -1.2322 -0.7264
17935TIP3    H275221   0.914   5.228   6.040 -0.1541  0.6113  0.9909
17936TIP3   OH275222   2.300   0.913   1.978  0.3849 -0.3751 -0.7362
17936TIP3    H175223   2.297   0.999   2.020 -1.8372 -0.6932 -0.1209
17936TIP3    H275224   2.254   0.925   1.895  2.4980 -0.3679 -1.9701
17937TIP3   OH275225   5.886   6.580   6.143  0.3285  0.5703 -0.2626
17937TIP3    H175226   5.843   6.584   6.228 -1.1688 -2.9821 -0.6508
17937TIP3    H275227   5.827   6.624   6.082 -2.1595 -2.6749 -0.4650
17938TIP3   OH275228   2.206   3.716  17.008 -0.7851 -0.4350 -0.3832
17938TIP3    H175229   2.205   3.803  16.969 -0.6517 -0.3787 -0.2613
17938TIP3    H275230   2.246   3.660  16.942  2.1150  0.1562  0.7049
17939TIP3   OH275231   4.777   5.127  10.867  0.1137 -0.2125 -0.1887
17939TIP3    H175232   4.829   5.133  10.947  0.8851  1.4273 -0.7626
17939TIP3    H275233   4.707   5.191  10.879  0.8960  0.9053 -1.2378
17940TIP3   OH275234   6.133   3.258  11.209  0.1063  0.6172 -0.0803
17940TIP3    H175235   6.045   3.234  11.182  1.5607 -3.9990 -1.6897
17940TIP3    H275236   6.171   3.299  11.131  1.0417 -3.0668 -1.8101
17941TIP3   OH275237   4.336   5.844   4.317  0.0722  0.8580  0.0734
17941TIP3    H175238   4.266   5.795   4.274  1.5582 -0.6319 -0.7622
17941TIP3    H275239   4.372   5.782   4.382 -0.6625  2.2900  1.9377
17942TIP3   OH275240   6.103   0.105  14.362  0.3039  0.3807  0.4302
17942TIP3    H175241   6.177   0.064  14.318  0.8478 -0.6847  2.2392
17942TIP3    H275242   6.131   0.195  14.380  0.1912  0.7330 -1.0443
17943TIP3   OH275243   2.504   1.880  13.159 -0.1700  0.3394  0.1619
17943TIP3    H175244   2.447   1.812  13.196 -1.4283 -0.2109 -2.5738
17943TIP3    H275245   2.444   1.952  13.137  0.7403  1.2034  0.4259
17944TIP3   OH275246   6.237   5.811   6.059  0.1149 -0.2804  0.3732
17944TIP3    H175247   6.311   5.858   6.020 -0.5621  0.7654  0.3015
17944TIP3    H275248   6.184   5.784   5.985  0.4636 -1.1241  0.4197
17945TIP3   OH275249   1.703   5.056  15.312 -0.8742  0.6165  0.1339
17945TIP3    H175250   1.779   5.078  15.258 -0.2504  0.2909  0.8742
17945TIP3    H275251   1.655   4.991  15.260  0.9460 -1.4747  0.9180
17946TIP3   OH275252   5.931   4.305   2.818 -0.7183 -0.3294  0.4375
17946TIP3    H175253   5.923   4.383   2.763 -0.3004  0.7600  1.8723
17946TIP3    H275254   5.841   4.277   2.834 -0.8736 -0.1231 -0.0592
17947TIP3   OH275255   0.924   0.513  13.453 -0.1526  0.3173  0.1310
17947TIP3    H175256   0.990   0.583  13.448  0.3375 -0.1270  0.2580
17947TIP3    H275257   0.937   0.462  13.373 -1.0489  0.8360 -0.3529
17948TIP3   OH275258   3.536   1.197   5.330 -0.0898 -0.0789  0.1969
17948TIP3    H175259   3.523   1.114   5.285  0.4617  0.5787 -1.2516
17948TIP3    H275260   3.578   1.254   5.264 -0.7309  1.4329  1.0372
17949TIP3   OH275261   4.681   0.132   0.978 -0.5474 -0.5874  0.3223
17949TIP3    H175262   4.677   0.163   0.887 -0.0764  1.1708  0.8500
17949TIP3    H275263   4.639   0.202   1.029 -1.3592 -1.8290  1.4127
17950TIP3   OH275264   0.889   3.628  16.430  0.0675 -0.1732 -0.4418
17950TIP3    H175265   0.884   3.723  16.434  0.3201 -0.0958 -1.5950
17950TIP3    H275266   0.800   3.599  16.413 -0.1743 -0.2209  0.7793
17951TIP3   OH275267   1.878   1.616  15.760 -0.4898 -0.1481  0.4357
17951TIP3    H175268   1.800   1.643  15.809 -0.2492  0.2692  0.5919
17951TIP3    H275269   1.931   1.569  15.824  0.1780  1.0514  0.7993
17952TIP3   OH275270   5.722   5.323   1.822  0.2442  0.0122 -0.0757
17952TIP3    H175271   5.723   5.355   1.732  0.3175 -1.1141 -0.4910
17952TIP3    H275272   5.644   5.268   1.827 -0.8261  1.5608  1.1091
17953TIP3   OH275273   1.848   6.122   3.085  0.4537  0.2104 -0.6194
17953TIP3    H175274   1.944   6.126   3.088  0.5868 -1.7526  1.9600
17953TIP3    H275275   1.824   6.074   3.164 -2.7457  1.2542 -0.8135
17954TIP3   OH275276   3.402   4.877   2.095 -0.0560 -0.2192 -0.7973
17954TIP3    H175277   3.461   4.935   2.047  0.7340  0.1172  0.5520
17954TIP3    H275278   3.363   4.822   2.027  0.6953  0.5415 -1.8726
17955TIP3   OH275279   2.266   0.964  16.426  0.2605 -0.0682  0.5829
17955TIP3    H175280   2.185   0.913  16.432 -1.0525  1.6829 -0.6756
17955TIP3    H275281   2.319   0.918  16.361  0.7812 -1.7877  2.1473
17956TIP3   OH275282   5.219   2.952   5.377 -0.0534  0.0505 -0.4773
17956TIP3    H175283   5.209   2.937   5.471 -0.0514  3.1700  0.1297
17956TIP3    H275284   5.133   2.982   5.348  0.0311 -0.5894 -1.4496
17957TIP3   OH275285   0.546   2.898   4.238  0.2789  0.3296 -0.2988
17957TIP3    H175286   0.560   2.891   4.144  2.0237 -1.8545  0.0499
17957TIP3    H275287   0.599   2.973   4.265  0.0284  0.7641 -0.9788
17958TIP3   OH275288   3.501   1.051   4.057 -0.1355  0.1212 -0.1726
17958TIP3    H175289   3.448   1.128   4.079 -1.2849 -0.2324 -1.5521
17958TIP3    H275290   3.571   1.086   4.002 -0.1719  0.2866 -0.1163
17959TIP3   OH275291   0.360   4.493  16.168 -0.3043  0.4584 -0.2578
17959TIP3    H175292   0.403   4.495  16.253  0.3837  1.0433 -0.6110
17959TIP3    H275293   0.325   4.581  16.155 -3.3948 -0.4524  0.8741
17960TIP3   OH275294   3.017   2.070  16.234 -0.5225  0.1214  0.2414
17960TIP3    H175295   3.073   2.011  16.283 -0.3824  1.9102  2.3775
17960TIP3    H275296   3.060   2.079  16.149  2.5358  1.4510  1.7809
17961TIP3   OH275297   1.701   1.125   0.320 -0.2136  0.7369  0.1556
17961TIP3    H175298   1.757   1.197   0.290  0.2145  0.4934  0.3500
17961TIP3    H275299   1.616   1.166   0.337 -0.3308  0.9601 -0.9170
17962TIP3   OH275300   4.709   0.554  13.907 -0.1141 -0.4581 -1.0279
17962TIP3    H175301   4.716   0.540  14.002  0.5750 -0.7322 -1.1149
17962TIP3    H275302   4.719   0.467  13.869  2.0392 -0.0630 -1.4680
17963TIP3   OH275303   3.937   5.917  11.707  0.1720  0.2069  0.9497
17963TIP3    H175304   3.954   5.823  11.706  0.3810  0.2258  1.8131
17963TIP3    H275305   3.971   5.947  11.792 -0.6179  0.9258  1.0261
17964TIP3   OH275306   4.685   2.650  14.791 -0.5135  0.3443 -0.7155
17964TIP3    H175307   4.630   2.576  14.766  0.5254 -0.0755 -1.8934
17964TIP3    H275308   4.718   2.684  14.708  0.0199  1.3467 -0.1086
17965TIP3   OH275309   5.304   1.726  16.714 -0.0233 -0.6404  0.7037
17965TIP3    H175310   5.383   1.763  16.755 -0.1299  0.2375  0.1249
17965TIP3    H275311   5.335   1.646  16.672  0.4991 -0.4741  0.7582
17966TIP3   OH275312   6.204   0.234  12.058 -0.2879 -0.0107 -0.1775
17966TIP3    H175313   6.190   0.231  12.153 -0.0365  0.5163 -0.1195
17966TIP3    H275314   6.205   0.327  12.037  0.1276 -0.1120 -0.6301
17967TIP3   OH275315   2.399   4.230   4.685  0.3225 -0.2417 -0.3141
17967TIP3    H175316   2.367   4.208   4.772  1.3432 -0.4435  0.0169
17967TIP3    H275317   2.438   4.149   4.652 -1.8984 -0.8151 -1.8499
17968TIP3   OH275318   5.508   4.541  12.726 -0.9381  0.1944 -0.1792
17968TIP3    H175319   5.428   4.493  12.746 -0.3497 -1.1224 -0.8630
17968TIP3    H275320   5.501   4.561  12.632 -0.9104  0.9393 -0.0263
17969TIP3   OH275321   0.329   4.612   5.820  0.1161  0.5865 -0.3058
17969TIP3    H175322   0.382   4.663   5.759  1.9828 -0.7435  0.1023
17969TIP3    H275323   0.388   4.594   5.893 -0.4108 -2.1127 -0.4405
17970TIP3   OH275324   2.147   3.513   0.995  0.3242  0.0638  0.4786
17970TIP3    H175325   2.191   3.597   1.010  1.0012 -0.2685  0.4096
17970TIP3    H275326   2.197   3.472   0.924 -0.4474 -0.0855  0.0121
17971TIP3   OH275327   5.826   3.646   4.185  0.1245  0.1740 -0.3288
17971TIP3    H175328   5.746   3.620   4.230 -0.0921 -1.6813 -1.6816
17971TIP3    H275329   5.877   3.692   4.252 -1.0700 -0.6047  1.1912
17972TIP3   OH275330   3.412   3.955   4.851 -0.2037  1.1389  0.3069
17972TIP3    H175331   3.349   3.925   4.916  0.5309 -0.0692  0.4911
17972TIP3    H275332   3.372   3.935   4.767  0.4362 -0.7946  0.4287
17973TIP3   OH275333   6.726   0.280   2.488  0.6206  0.0843  0.3446
17973TIP3    H175334   6.724   0.370   2.458 -0.1696  0.1746  0.6568
17973TIP3    H275335   6.636   0.249   2.480  0.5538 -0.1525  1.7743
17974TIP3   OH275336   1.706   5.184  10.994  0.1215 -0.0953  0.1528
17974TIP3    H175337   1.728   5.204  10.903 -1.9394 -0.5026 -0.4892
17974TIP3    H275338   1.720   5.090  11.002  1.7217  0.1699  0.7158
17975TIP3   OH275339   0.741   5.477  11.323 -0.5636  0.7046  1.0709
17975TIP3    H175340   0.750   5.383  11.338  0.9478  0.8572  1.2529
17975TIP3    H275341   0.811   5.498  11.261 -1.9921  1.4110 -0.3838
17976TIP3   OH275342   1.115   1.813  13.768 -0.0143  0.0536 -0.7401
17976TIP3    H175343   1.109   1.800  13.862  1.5105 -2.3192 -0.8802
17976TIP3    H275344   1.031   1.851  13.743 -1.5750 -1.8501  1.2307
17977TIP3   OH275345   2.034   4.315  11.944 -0.0602  0.0693 -0.4677
17977TIP3    H175346   1.953   4.353  11.911  0.1396  0.5908 -0.3632
17977TIP3    H275347   2.015   4.294  12.035 -0.2611 -0.3471 -0.6039
17978TIP3   OH275348   5.345   3.326   4.012  0.8794 -0.3982  0.4953
17978TIP3    H175349   5.406   3.388   3.973  0.8825 -2.2037 -2.7440
17978TIP3    H275350   5.401   3.259   4.052  0.9998 -0.7030 -0.1692
17979TIP3   OH275351   5.172   1.225   1.340  0.1278  0.0490  0.1399
17979TIP3    H175352   5.081   1.232   1.309  0.6060  0.5926 -1.2134
17979TIP3    H275353   5.219   1.185   1.267  1.0757  0.2416  0.6337
17980TIP3   OH275354   4.683   3.026   4.247  0.2722  0.1868 -0.2580
17980TIP3    H175355   4.725   2.979   4.175  1.8542  0.8202  0.1914
17980TIP3    H275356   4.695   2.969   4.323 -0.6137 -0.0851 -0.3112
17981TIP3   OH275357   1.934   0.110  14.005  0.3801 -0.8552  0.4062
17981TIP3    H175358   1.934   0.024  14.047 -1.1570 -0.9070  0.3593
17981TIP3    H275359   1.883   0.098  13.925  1.7635 -0.3328 -0.5890
17982TIP3   OH275360   5.756   0.781   4.286  0.0617  0.1525 -0.4872
17982TIP3    H175361   5.851   0.789   4.298  0.3171 -1.0848 -1.4037
17982TIP3    H275362   5.721   0.866   4.311  1.6166  1.3194 -1.9958
17983TIP3   OH275363   1.281   5.664   1.450 -0.1677 -0.1574 -0.1941
17983TIP3    H175364   1.375   5.678   1.445 -0.0461 -0.2978  1.2362
17983TIP3    H275365   1.243   5.742   1.409  0.5662  1.8382  2.5786
17984TIP3   OH275366   5.882   5.500   0.544  0.2815  0.2019  0.7180
17984TIP3    H175367   5.954   5.438   0.560  0.8865  0.1520 -1.8471
17984TIP3    H275368   5.915   5.584   0.577  1.1147 -0.0238  0.4773
17985TIP3   OH275369   1.940   1.364   4.027 -0.2705  0.1050  0.2517
17985TIP3    H175370   1.915   1.296   4.090 -0.7332 -0.5396 -0.5934
17985TIP3    H275371   1.947   1.444   4.079  1.1094 -0.7202  1.4337
17986TIP3   OH275372   1.202   1.712  15.385 -0.1708  0.3248 -0.1639
17986TIP3    H175373   1.232   1.766  15.312 -0.2516 -0.1637 -0.5624
17986TIP3    H275374   1.122   1.670  15.353  1.3406 -2.1908 -0.8802
17987TIP3   OH275375   3.474   3.526   5.294 -0.2319 -0.0730 -0.4832
17987TIP3    H175376   3.518   3.567   5.220  0.4504  2.0092  0.9896
17987TIP3    H275377   3.540   3.524   5.363 -1.6720  0.8144  0.9983
17988TIP3   OH275378   1.954   1.120  16.737 -0.5953 -0.2500  0.8177
17988TIP3    H175379   1.923   1.092  16.823  0.3056 -1.1812  0.8486
17988TIP3    H275380   1.892   1.081  16.675 -1.0632  0.1677  1.0158
17989TIP3   OH275381   6.763   1.620  11.656 -0.1405  0.1065  0.3976
17989TIP3    H175382   6.711   1.592  11.732  0.8309 -1.7014  0.4435
17989TIP3    H275383   6.784   1.711  11.675  1.3954 -0.6824  3.1345
17990TIP3   OH275384   5.411   5.783   2.317  0.5275 -0.3435 -0.1007
17990TIP3    H175385   5.494   5.824   2.340 -0.7032  1.4770  1.4545
17990TIP3    H275386   5.434   5.711   2.258  3.2428 -0.4696  1.0143
17991TIP3   OH275387   1.750   2.815  13.984  0.0419 -0.1558 -0.1877
17991TIP3    H175388   1.743   2.726  13.952  1.8162  0.0578 -1.3037
17991TIP3    H275389   1.661   2.850  13.980 -0.8450 -2.1029  1.1054
17992TIP3   OH275390   4.254   2.440  15.982 -0.2610 -0.2054  0.3891
17992TIP3    H175391   4.349   2.431  15.990 -0.3237 -0.9193  0.4340
17992TIP3    H275392   4.234   2.526  16.019  0.4204  0.1508 -0.0484
17993TIP3   OH275393   5.180   4.464   4.766  0.1066  0.4255 -0.3044
17993TIP3    H175394   5.153   4.440   4.677  0.2964  0.0669 -0.2682
17993TIP3    H275395   5.149   4.393   4.821  1.1963 -0.0511 -0.2792
17994TIP3   OH275396   2.435   4.608  15.328  0.0532  0.2077 -0.4599
17994TIP3    H175397   2.514   4.565  15.292  0.4023  0.6684 -0.2521
17994TIP3    H275398   2.437   4.696  15.291  0.5494  0.7776  0.8581
17995TIP3   OH275399   6.146   0.848   4.078  0.0226 -0.0280 -0.0190
17995TIP3    H175400   6.184   0.767   4.112  0.4947 -0.0583 -0.5881
17995TIP3    H275401   6.073   0.819   4.024 -0.5572  0.0042  0.7353
17996TIP3   OH275402   5.253   5.350   6.155 -0.0513 -0.8947 -0.1443
17996TIP3    H175403   5.229   5.297   6.079 -1.3225  0.8105 -1.0160
17996TIP3    H275404   5.247   5.440   6.123  0.8881 -0.1843  1.5909
17997TIP3   OH275405   4.817   4.567   1.243  0.4157  0.4147 -0.5306
17997TIP3    H175406   4.821   4.490   1.301  2.0255  1.1477  0.4034
17997TIP3    H275407   4.735   4.610   1.267  1.0216  0.6687  1.2040
17998TIP3   OH275408   5.625   3.347  15.945  0.6792  0.5323  0.2426
17998TIP3    H175409   5.680   3.313  16.016  1.5089  1.0359 -0.1367
17998TIP3    H275410   5.677   3.331  15.866  0.5093  1.4846 -0.0719
17999TIP3   OH275411   5.334   6.756  12.532  0.2757  0.3467  0.0554
17999TIP3    H175412   5.376   6.832  12.494  2.3168  0.2192  1.9023
17999TIP3    H275413   5.358   6.684  12.473  0.0951  0.7564 -0.5338
18000TIP3   OH275414   1.495   2.610  14.057  0.2398  0.1406 -0.1762
18000TIP3    H175415   1.523   2.683  14.112  1.8523 -1.3440  1.0773
18000TIP3    H275416   1.574   2.557  14.045 -1.0662 -1.8854 -0.2629
18001TIP3   OH275417   0.636   2.940  16.815 -1.2204  0.2885  0.1422
18001TIP3    H175418   0.552   2.953  16.771 -1.2516  0.2774  0.2003
18001TIP3    H275419   0.689   2.892  16.751 -0.9535  1.0755 -0.2479
18002TIP3   OH275420   6.470   1.588   1.216  0.3398  0.0801 -1.2192
18002TIP3    H175421   6.562   1.613   1.204  1.8632 -2.6181  2.6241
18002TIP3    H275422   6.459   1.511   1.160  1.3419 -1.1202  0.1513
18003TIP3   OH275423   1.401   5.146   2.141  0.3425 -0.1576  0.6092
18003TIP3    H175424   1.486   5.184   2.119 -0.4495  0.3446 -1.8373
18003TIP3    H275425   1.383   5.084   2.071 -2.2300  1.2812 -0.1297
18004TIP3   OH275426   0.679   6.149   6.624 -0.3256 -0.4323  0.3107
18004TIP3    H175427   0.611   6.153   6.556 -0.6821 -0.2432  0.6787
18004TIP3    H275428   0.659   6.070   6.673  1.3935 -2.0085 -1.3265
18005TIP3   OH275429   4.149   2.788   3.826  0.9454  0.3908 -0.6182
18005TIP3    H175430   4.245   2.788   3.820  0.8579  0.6923 -3.0389
18005TIP3    H275431   4.121   2.857   3.767 -0.8052 -0.6136 -1.0467
18006TIP3   OH275432   1.722   0.818  15.846 -0.2405 -0.0952 -0.6281
18006TIP3    H175433   1.791   0.815  15.911 -0.1725  3.1450 -0.3756
18006TIP3    H275434   1.649   0.771  15.886 -0.2482  1.8808  1.9469
18007TIP3   OH275435   1.968   5.085  14.209  0.3813  0.1820 -0.0492
18007TIP3    H175436   1.876   5.098  14.230  0.0964 -1.1095 -0.4026
18007TIP3    H275437   2.011   5.078  14.294 -0.0278 -0.3224  0.1228
18008TIP3   OH275438   1.204   5.586   4.396 -0.4744  0.2919 -0.7556
18008TIP3    H175439   1.233   5.516   4.453 -1.6671 -0.0898 -0.5887
18008TIP3    H275440   1.202   5.547   4.308 -1.5512 -0.0315 -0.6010
18009TIP3   OH275441   3.683   3.812   1.279  0.5118  0.1305 -0.6592
18009TIP3    H175442   3.693   3.900   1.314  1.2916 -0.0206 -0.4881
18009TIP3    H275443   3.681   3.755   1.355  0.7446 -0.0699 -0.8023
18010TIP3   OH275444   6.333   1.579   2.114 -0.2297  0.4541 -0.5576
18010TIP3    H175445   6.346   1.672   2.131  0.0180  0.8040 -2.4496
18010TIP3    H275446   6.351   1.568   2.021  2.4261 -1.9825  0.0982
18011TIP3   OH275447   1.293   5.954   1.374  0.1178  0.0024  0.6938
18011TIP3    H175448   1.259   6.013   1.307 -1.5152  1.0367  2.3517
18011TIP3    H275449   1.296   6.008   1.453  1.3018 -1.3866  1.6290
18012TIP3   OH275450   6.359   5.645  11.499  0.3634 -0.5603 -0.2789
18012TIP3    H175451   6.353   5.564  11.449  0.4182 -0.0219 -1.1812
18012TIP3    H275452   6.449   5.676  11.483  0.4849 -0.5374  0.4123
18013TIP3   OH275453   5.068   3.438  15.476 -0.2303 -0.0168  0.1429
18013TIP3    H175454   5.045   3.444  15.569  0.2069  1.6639  0.1580
18013TIP3    H275455   5.050   3.525  15.440 -1.7488 -1.0063 -1.6920
18014TIP3   OH275456   1.560   1.161  13.692 -0.0983  0.0551  0.4351
18014TIP3    H175457   1.523   1.227  13.633  0.6022 -0.8964 -1.1513
18014TIP3    H275458   1.647   1.143  13.657  0.0063 -1.1701  1.2550
18015TIP3   OH275459   0.607   5.560   5.308 -0.4630  0.4116  0.0736
18015TIP3    H175460   0.530   5.512   5.338  0.6548  0.1922  2.9588
18015TIP3    H275461   0.594   5.649   5.342 -0.3027  0.8820 -1.0647
18016TIP3   OH275462   3.656   0.294  12.943  0.3363 -0.7066 -0.2318
18016TIP3    H175463   3.677   0.388  12.949 -0.8329 -0.4967  1.4396
18016TIP3    H275464   3.737   0.253  12.915  0.8232  0.8185 -1.2214
18017TIP3   OH275465   4.219   4.492  16.956  0.5591 -0.7833 -0.3708
18017TIP3    H175466   4.295   4.434  16.967 -0.2248 -1.6265  0.8558
18017TIP3    H275467   4.173   4.455  16.880  1.2411 -0.3963 -0.9892
18018TIP3   OH275468   5.904   5.380  12.823 -0.2032  0.3666 -0.9228
18018TIP3    H175469   5.962   5.388  12.747  1.0039  2.2282  0.1120
18018TIP3    H275470   5.851   5.460  12.821 -0.2204  0.3991  0.1285
18019TIP3   OH275471   4.082   4.582   0.265  0.4940 -1.0023  0.7499
18019TIP3    H175472   4.162   4.588   0.318  0.5033 -1.8751  0.8495
18019TIP3    H275473   4.046   4.496   0.286 -0.7053 -0.4493  1.0219
18020TIP3   OH275474   3.477   6.039  16.023  0.4626  0.5273 -0.1702
18020TIP3    H175475   3.449   6.012  16.111 -1.7637 -3.0321 -1.7389
18020TIP3    H275476   3.401   6.084  15.987  0.0620 -1.0147 -1.3437
18021TIP3   OH275477   4.882   6.621  12.324  0.0610 -0.2141  0.1383
18021TIP3    H175478   4.835   6.547  12.362  0.5385 -1.5270 -1.7025
18021TIP3    H275479   4.944   6.648  12.392  0.1308 -1.7460  0.7069
18022TIP3   OH275480   2.256   2.841   2.819 -0.5156 -0.1246 -0.1833
18022TIP3    H175481   2.264   2.936   2.829  2.0428 -0.4729  2.5684
18022TIP3    H275482   2.346   2.809   2.824 -1.4220 -2.7896  0.5123
18023TIP3   OH275483   5.395   0.428  15.986 -0.7768  0.1885 -0.3622
18023TIP3    H175484   5.465   0.416  16.049 -1.8641 -0.9164  0.6939
18023TIP3    H275485   5.383   0.523  15.980  1.3090  0.4560 -1.1886
18024TIP3   OH275486   6.604   6.107   4.931  1.0417  0.0244 -0.1840
18024TIP3    H175487   6.559   6.107   5.016 -0.1038 -0.7718 -0.7660
18024TIP3    H275488   6.664   6.181   4.936  0.8157  0.1501  1.2265
18025TIP3   OH275489   3.884   3.494  14.037  0.0228 -0.3309 -0.3737
18025TIP3    H175490   3.854   3.421  14.091  1.8623 -2.0500 -1.5585
18025TIP3    H275491   3.978   3.502  14.055  0.7819 -1.1253 -3.3699
18026TIP3   OH275492   0.262   1.889  14.202 -0.5313 -0.6388  0.6895
18026TIP3    H175493   0.261   1.794  14.206  1.0284 -0.7629 -0.8532
18026TIP3    H275494   0.255   1.909  14.108 -2.6145  0.8408  1.0843
18027TIP3   OH275495   0.185   0.046   1.010 -0.0781 -0.0688 -0.5285
18027TIP3    H175496   0.280   0.044   1.024 -0.4427 -0.0805  2.9160
18027TIP3    H275497   0.155  -0.041   1.037 -1.2340  0.6875  0.7805
18028TIP3   OH275498   3.268   1.338   5.087 -0.1417 -0.1998 -0.2504
18028TIP3    H175499   3.208   1.390   5.033  0.4424  1.3057  0.4849
18028TIP3    H275500   3.336   1.400   5.113  0.9869 -1.5335  0.0745
18029TIP3   OH275501   6.456   0.088  17.126  0.2182 -0.8364 -0.0035
18029TIP3    H175502   6.530   0.149  17.126 -0.8389  0.4999 -0.4109
18029TIP3    H275503   6.475   0.027  17.055  0.2957  0.3268 -1.0104
18030TIP3   OH275504   1.812   5.632   0.095  0.4615  0.6065 -0.6420
18030TIP3    H175505   1.875   5.570   0.132 -0.4009 -0.1314 -0.3669
18030TIP3    H275506   1.738   5.577   0.068 -0.1012  1.4632 -0.8733
18031TIP3   OH275507   4.796   4.520  13.097  0.6399 -0.3290  0.5666
18031TIP3    H175508   4.771   4.536  13.188 -1.2870 -0.2088  0.0576
18031TIP3    H275509   4.837   4.433  13.098 -0.5476 -0.9013  1.3717
18032TIP3   OH275510   0.627   0.862  14.413 -0.0015 -0.0244 -0.1189
18032TIP3    H175511   0.555   0.819  14.366 -0.7864  0.8954  0.2367
18032TIP3    H275512   0.608   0.847  14.505  1.6575 -2.0221 -0.0052
18033TIP3   OH275513   2.056   4.410   4.721  0.2242 -0.1208  0.1969
18033TIP3    H175514   2.066   4.503   4.700  4.3091 -0.3129  0.3535
18033TIP3    H275515   2.088   4.364   4.644 -2.0856 -1.5055 -0.0281
18034TIP3   OH275516   3.883   6.133  15.194 -0.1232 -0.1505  0.0948
18034TIP3    H175517   3.948   6.136  15.264  0.3519  0.6418 -0.3636
18034TIP3    H275518   3.910   6.058  15.140  0.5807  0.3299 -0.2392
18035TIP3   OH275519   2.448   1.140  13.824 -0.6519 -0.0503 -0.4877
18035TIP3    H175520   2.415   1.050  13.833 -1.1615  0.1758 -0.0221
18035TIP3    H275521   2.536   1.130  13.787 -1.9475 -0.5840 -3.7030
18036TIP3   OH275522   2.678   5.389  14.558  0.2682  0.4353 -0.1057
18036TIP3    H175523   2.747   5.328  14.533  0.2335 -0.0967  1.0221
18036TIP3    H275524   2.724   5.459  14.606 -0.0054 -0.2399  1.2074
18037TIP3   OH275525   3.467   0.060  14.862 -0.0579  0.2914 -0.7178
18037TIP3    H175526   3.548   0.039  14.907 -0.2380  0.3321 -0.3679
18037TIP3    H275527   3.452  -0.013  14.803  0.5889  0.6052 -1.2848
18038TIP3   OH275528   4.672   1.538  12.090 -0.2083 -0.5197  0.1543
18038TIP3    H175529   4.622   1.538  12.172  0.3903  1.5633  0.5675
18038TIP3    H275530   4.708   1.626  12.083  0.4511 -0.8908 -1.9549
18039TIP3   OH275531   4.364   2.063   3.033  0.0409  0.2289  0.6628
18039TIP3    H175532   4.426   2.005   2.990 -0.8392 -0.2624  0.0199
18039TIP3    H275533   4.387   2.151   3.002  1.5548  0.2950  1.8560
18040TIP3   OH275534   3.080   4.254  14.846 -0.2130 -0.1959 -0.7168
18040TIP3    H175535   3.098   4.348  14.844 -0.0910 -0.2317 -1.8279
18040TIP3    H275536   3.106   4.222  14.760  0.5139 -1.4059 -0.0811
18041TIP3   OH275537   3.337   6.262   2.270  0.2546  0.5737  0.0753
18041TIP3    H175538   3.267   6.327   2.265  1.8121  2.3505  0.0382
18041TIP3    H275539   3.392   6.292   2.342  0.5705 -1.2242  0.6210
18042TIP3   OH275540   1.716   5.651   5.636 -0.2669 -0.2244 -0.0286
18042TIP3    H175541   1.709   5.739   5.599 -0.6375 -0.6296 -0.9521
18042TIP3    H275542   1.810   5.630   5.631 -0.0446  0.4733  1.0594
18043TIP3   OH275543   6.548   3.226  12.376  0.7216 -0.0295  0.0289
18043TIP3    H175544   6.621   3.244  12.435  0.3863 -1.3615  0.8904
18043TIP3    H275545   6.590   3.197  12.295  1.1759  1.4103 -0.2663
18044TIP3   OH275546   2.451   3.355   0.235  0.2693 -0.3180 -0.2113
18044TIP3    H175547   2.545   3.370   0.228  0.0177  1.2147 -0.8715
18044TIP3    H275548   2.425   3.397   0.317  0.0326  0.1723 -0.5245
18045TIP3   OH275549   6.750   0.688  12.950 -0.4897  0.0193  0.4360
18045TIP3    H175550   6.769   0.669  13.042 -1.5724  0.2270  0.7146
18045TIP3    H275551   6.828   0.735  12.919 -0.7839  1.4558  1.7305
18046TIP3   OH275552   0.714   3.562   4.429  0.5945  1.0124  0.4429
18046TIP3    H175553   0.656   3.501   4.474  0.5239 -1.5110 -2.6795
18046TIP3    H275554   0.799   3.519   4.428  0.3714  0.4039 -2.4772
18047TIP3   OH275555   6.112   4.272  16.264  0.2877  0.0887  0.3191
18047TIP3    H175556   6.046   4.219  16.218  1.0226  0.5814 -1.3764
18047TIP3    H275557   6.083   4.362  16.252  1.9189  0.4294 -1.6849
18048TIP3   OH275558   5.651   0.861  16.161  0.0341  0.9071 -0.6080
18048TIP3    H175559   5.686   0.829  16.079 -0.1722 -0.7764 -0.0676
18048TIP3    H275560   5.579   0.919  16.136 -0.2726  0.1132 -1.6120
18049TIP3   OH275561   1.694   2.732   3.707 -0.2511 -0.6175 -0.0144
18049TIP3    H175562   1.614   2.734   3.655 -0.1875  1.7149 -0.1015
18049TIP3    H275563   1.763   2.709   3.645 -0.6453 -1.3120 -0.2061
18050TIP3   OH275564   3.670   6.611  16.506  0.0287  0.0417  0.3515
18050TIP3    H175565   3.588   6.656  16.527 -1.0864 -2.0795  0.8208
18050TIP3    H275566   3.719   6.610  16.589 -0.9598 -1.5203  0.9734
18051TIP3   OH275567   0.124   2.324   3.652 -0.5651  0.9110  0.1478
18051TIP3    H175568   0.136   2.417   3.635  0.4562  1.2535  2.4589
18051TIP3    H275569   0.208   2.284   3.631 -0.0611  0.9874  1.8888
18052TIP3   OH275570   3.358   6.773   0.366  0.3891  0.6765 -0.1216
18052TIP3    H175571   3.367   6.708   0.296 -1.3746  0.5906 -0.3131
18052TIP3    H275572   3.407   6.736   0.440  1.0651  0.0838 -0.8467
18053TIP3   OH275573   2.724   4.367  12.872 -0.2516  0.5154 -0.5165
18053TIP3    H175574   2.693   4.440  12.926 -0.6693 -0.3385  0.4013
18053TIP3    H275575   2.814   4.392  12.848  0.0884  0.7246  0.8969
18054TIP3   OH275576   5.985   2.710  12.084  0.2778  0.6890 -0.2907
18054TIP3    H175577   5.952   2.652  12.015  0.1524  0.4014  0.0084
18054TIP3    H275578   6.019   2.650  12.151  0.8264  0.9686 -0.3096
18055TIP3   OH275579   0.516   0.690   2.005 -0.8215  0.4824 -0.1735
18055TIP3    H175580   0.559   0.674   1.921 -2.0325  2.0850 -1.1801
18055TIP3    H275581   0.588   0.699   2.067  0.1725  0.4586 -1.2728
18056TIP3   OH275582   0.469   3.413  16.744 -0.2322  0.1993  0.4882
18056TIP3    H175583   0.380   3.438  16.720  0.1089  0.8821 -0.0986
18056TIP3    H275584   0.488   3.337  16.689 -0.5490 -0.1224  0.8199
18057TIP3   OH275585   0.524   3.856   4.649  0.4846 -0.3513 -0.0610
18057TIP3    H175586   0.466   3.932   4.648  0.9597  0.0138 -0.3759
18057TIP3    H275587   0.535   3.833   4.557  0.9869 -0.3005 -0.0147
18058TIP3   OH275588   1.133   2.680  15.248  0.1176 -0.0058 -0.1862
18058TIP3    H175589   1.227   2.668  15.261  0.2370  0.4577 -0.6072
18058TIP3    H275590   1.124   2.767  15.210 -0.4398 -0.2486 -0.6365
18059TIP3   OH275591   5.894   2.193  13.429 -0.4638  0.6658  0.2493
18059TIP3    H175592   5.863   2.117  13.478  0.6301  0.5913  0.8477
18059TIP3    H275593   5.869   2.268  13.483  0.2887  0.6108  0.6852
18060TIP3   OH275594   4.688   2.852   5.885 -0.8996  0.3750  0.0602
18060TIP3    H175595   4.711   2.759   5.882 -2.0221  0.0323  1.1943
18060TIP3    H275596   4.712   2.885   5.799  1.6782 -0.4313  0.3790
18061TIP3   OH275597   5.174   6.247   3.853 -0.3642  0.0725  0.0296
18061TIP3    H175598   5.148   6.197   3.930 -2.2437  2.1032  0.8391
18061TIP3    H275599   5.120   6.213   3.782 -1.6786  0.8923  0.5893
18062TIP3   OH275600   2.610   0.239   2.308  0.7063  0.4035 -0.5821
18062TIP3    H175601   2.559   0.295   2.250 -0.1389 -0.0900 -0.3320
18062TIP3    H275602   2.547   0.206   2.372  1.5445  0.6247  0.3905
18063TIP3   OH275603   5.760   3.195   1.967  0.1390 -0.0263  0.0380
18063TIP3    H175604   5.677   3.233   1.994 -0.4620 -0.2902 -1.3644
18063TIP3    H275605   5.798   3.258   1.906  0.7527 -0.1302  0.2977
18064TIP3   OH275606   0.828   1.799   3.190  0.1982 -0.0438 -0.5889
18064TIP3    H175607   0.771   1.722   3.194  0.0121  0.1479  2.7798
18064TIP3    H275608   0.769   1.872   3.175 -0.0603 -0.1548 -0.0957
18065TIP3   OH275609   6.051   5.009   5.179  0.2202 -0.1150  0.1864
18065TIP3    H175610   6.040   4.917   5.204 -0.8476  0.2557  1.1506
18065TIP3    H275611   5.976   5.028   5.123  1.2877 -0.2442 -1.3525
18066TIP3   OH275612   5.416   2.903   6.211  0.1649 -0.1322  0.5397
18066TIP3    H175613   5.393   2.872   6.123  0.2912  1.5609 -0.1320
18066TIP3    H275614   5.384   2.835   6.270 -1.9365 -0.2766 -0.6792
18067TIP3   OH275615   5.344   4.270  13.618 -0.3687  0.1827 -0.8516
18067TIP3    H175616   5.356   4.227  13.533 -0.3161  1.1266 -1.3267
18067TIP3    H275617   5.418   4.330  13.626  0.7414 -1.3077  0.7692
18068TIP3   OH275618   6.744   6.398  13.987  0.7980  0.0847 -0.4662
18068TIP3    H175619   6.827   6.421  14.028  1.6513  0.5378 -2.3332
18068TIP3    H275620   6.723   6.474  13.932  0.6091 -1.1284 -2.1473
18069TIP3   OH275621   6.666   6.369   3.439 -0.3743 -0.6145 -0.7847
18069TIP3    H175622   6.756   6.341   3.422 -0.5195 -0.2003 -2.3464
18069TIP3    H275623   6.643   6.324   3.521  0.8477 -1.6336 -0.9561
18070TIP3   OH275624   6.490   5.800   1.511  0.1787 -0.2461 -0.6767
18070TIP3    H175625   6.577   5.770   1.538 -0.9936 -1.9382  1.6135
18070TIP3    H275626   6.465   5.740   1.440  0.5975 -0.2266 -0.8407
18071TIP3   OH275627   0.800   4.112   4.946  0.0746 -0.0759 -0.2821
18071TIP3    H175628   0.822   4.110   4.853  3.0259  0.5697  0.3109
18071TIP3    H275629   0.796   4.020   4.972  3.9760 -0.3775 -0.1796
18072TIP3   OH275630   3.240   5.719  14.357  0.7754  0.0939 -0.2558
18072TIP3    H175631   3.259   5.805  14.318  0.2886 -0.1060 -0.9571
18072TIP3    H275632   3.188   5.674  14.290  1.5632 -0.9939 -0.1602
18073TIP3   OH275633   5.393   1.786  12.992 -0.2410  0.0883 -0.0938
18073TIP3    H175634   5.324   1.853  13.000  0.8630  2.0455 -4.0877
18073TIP3    H275635   5.347   1.707  12.967 -1.3266  0.1567  1.5462
18074TIP3   OH275636   1.564   5.161  11.564  0.2922  0.2420  0.1869
18074TIP3    H175637   1.593   5.210  11.641  3.8254  1.8224 -1.8965
18074TIP3    H275638   1.516   5.225  11.512 -2.0419 -0.8059  0.9316
18075TIP3   OH275639   4.837   4.412  15.211 -0.0794 -0.1851  0.3074
18075TIP3    H175640   4.909   4.369  15.166 -0.4686 -0.6355  0.1168
18075TIP3    H275641   4.792   4.463  15.144  0.7474  1.0445  0.6423
18076TIP3   OH275642   4.751   0.527  14.775 -0.4391 -0.5870  0.0310
18076TIP3    H175643   4.796   0.524  14.860 -0.9930 -0.8545  0.3225
18076TIP3    H275644   4.780   0.609  14.735 -0.7620 -0.0722  0.8180
18077TIP3   OH275645   0.609   4.744   6.016  0.1114  0.1536  0.0695
18077TIP3    H175646   0.552   4.676   6.052  0.5162  0.2727  0.9812
18077TIP3    H275647   0.688   4.739   6.070  0.8293  0.2181 -0.9516
18078TIP3   OH275648   1.733   0.267   5.207 -0.6825 -0.1612 -1.2031
18078TIP3    H175649   1.732   0.211   5.285  0.9495  0.0003 -1.0365
18078TIP3    H275650   1.641   0.271   5.180 -0.9516 -2.4314 -0.8804
18079TIP3   OH275651   4.957   0.758   5.008 -0.4049  0.2710  0.0313
18079TIP3    H175652   4.907   0.726   4.933  1.4843 -1.0385 -0.7770
18079TIP3    H275653   5.046   0.726   4.992  0.1363  0.1788  2.7011
18080TIP3   OH275654   1.440   3.506   0.830  0.0977  0.0690 -0.1533
18080TIP3    H175655   1.458   3.435   0.893 -1.1729 -0.8899 -0.8391
18080TIP3    H275656   1.409   3.462   0.751 -2.3653  1.4217 -0.0521
18081TIP3   OH275657   5.770   2.927  15.573  0.1166  0.3808 -0.0546
18081TIP3    H175658   5.728   2.854  15.528 -0.1223  0.2194  0.4216
18081TIP3    H275659   5.707   2.999  15.567  0.2626  0.4848 -0.3422
18082TIP3   OH275660   3.622   0.476  12.431  0.0693  0.1900 -0.1020
18082TIP3    H175661   3.571   0.554  12.410  1.1722  0.9860  0.0848
18082TIP3    H275662   3.619   0.423  12.351 -1.3541  0.0220  0.0338
18083TIP3   OH275663   6.371   2.302  12.889  0.2966 -0.1993  0.0355
18083TIP3    H175664   6.428   2.285  12.964 -0.0131 -0.8865  0.1152
18083TIP3    H275665   6.430   2.301  12.814  0.3722 -1.0671  0.0997
18084TIP3   OH275666   0.304   5.644  14.343  0.4237  0.4180 -0.4163
18084TIP3    H175667   0.330   5.552  14.329 -0.4056  0.3544 -1.6149
18084TIP3    H275668   0.209   5.643  14.335  0.4485  1.4642 -0.8723
18085TIP3   OH275669   4.143   6.128   5.652 -0.0369  0.3569  0.2991
18085TIP3    H175670   4.207   6.180   5.603  0.8413  0.1326  1.1688
18085TIP3    H275671   4.069   6.187   5.665  1.9681  2.4776  3.6047
18086TIP3   OH275672   2.780   3.658   3.951  0.1110  0.0221  0.0849
18086TIP3    H175673   2.761   3.583   4.008  1.0557 -0.4977 -0.2521
18086TIP3    H275674   2.869   3.642   3.920  1.3964  2.5906  2.0681
18087TIP3   OH275675   3.245   1.120  14.828  0.5514  0.4081  0.0082
18087TIP3    H175676   3.164   1.092  14.869  2.0828 -1.7823  1.7931
18087TIP3    H275677   3.233   1.101  14.735 -2.4020  3.9781 -0.5631
18088TIP3   OH275678   3.544   2.467  11.725 -0.3523 -0.0026 -0.1833
18088TIP3    H175679   3.463   2.518  11.717 -2.0536 -2.5397 -0.3279
18088TIP3    H275680   3.555   2.455  11.819 -0.3590  0.0240 -0.1791
18089TIP3   OH275681   6.142   0.185  13.687  0.1583  0.6178 -0.8441
18089TIP3    H175682   6.066   0.192  13.630 -1.1092 -0.9385  0.5665
18089TIP3    H275683   6.146   0.270  13.731  0.1102  1.2119 -1.9578
18090TIP3   OH275684   6.273   0.239  11.124 -0.2992 -0.3732  0.1966
18090TIP3    H175685   6.351   0.211  11.077  1.2766  0.8153  1.9362
18090TIP3    H275686   6.289   0.212  11.215 -1.4916  0.6940  0.7573
18091TIP3   OH275687   2.110   1.059  14.148 -0.5902  0.1396  0.6756
18091TIP3    H175688   2.123   0.982  14.204  3.1814 -0.3102 -0.5130
18091TIP3    H275689   2.185   1.116  14.169 -0.2893  0.9660 -2.2202
18092TIP3   OH275690   0.863   1.334   2.823  0.2576  0.0345 -0.1130
18092TIP3    H175691   0.924   1.273   2.865  2.3061  2.8300  1.3393
18092TIP3    H275692   0.786   1.333   2.880 -0.0572 -1.6679 -0.5245
18093TIP3   OH275693   1.890   5.111   3.726 -0.2997  0.2642  0.5524
18093TIP3    H175694   1.869   5.190   3.776 -0.3404  1.4035 -1.1808
18093TIP3    H275695   1.817   5.100   3.666  1.1738  0.8310 -1.4603
18094TIP3   OH275696   4.938   2.452  10.351  0.3751 -0.0689 -0.5123
18094TIP3    H175697   4.875   2.380  10.341  1.0670 -0.9821  1.1761
18094TIP3    H275698   4.986   2.430  10.430 -0.5637  3.1851  1.1435
18095TIP3   OH275699   1.828   0.898   1.121  0.0304  0.2126 -0.0008
18095TIP3    H175700   1.784   0.905   1.206 -0.2970  0.5270 -0.1908
18095TIP3    H275701   1.909   0.947   1.131 -0.6023  1.3564 -0.2456
18096TIP3   OH275702   3.853   0.306  11.214 -0.2718  0.1828  0.7031
18096TIP3    H175703   3.853   0.325  11.308 -1.3001  0.1248  0.7259
18096TIP3    H275704   3.767   0.334  11.184 -0.0479 -0.0444 -0.1746
18097TIP3   OH275705   1.382   6.670   1.650  0.0962 -0.4240 -0.1457
18097TIP3    H175706   1.419   6.584   1.631  0.8122 -0.2123  0.2809
18097TIP3    H275707   1.326   6.689   1.575 -1.7460 -2.1773  0.6748
18098TIP3   OH275708   2.878   3.606  12.204  0.4224  0.4058  0.6546
18098TIP3    H175709   2.965   3.577  12.232  1.2426  1.0497 -1.1196
18098TIP3    H275710   2.818   3.548  12.251  1.8850 -1.5520  0.2309
18099TIP3   OH275711   4.896   3.589   4.451  0.0811  0.2209  0.2458
18099TIP3    H175712   4.888   3.495   4.434 -1.7729  0.3886 -0.0942
18099TIP3    H275713   4.983   3.613   4.418  0.1481 -1.1794 -0.6660
18100TIP3   OH275714   1.265   2.562  14.560 -0.4973 -0.2506  0.3450
18100TIP3    H175715   1.327   2.489  14.568  0.6534  0.6574  0.0789
18100TIP3    H275716   1.243   2.584  14.650  1.8426  1.2380  0.6353
18101TIP3   OH275717   1.456   6.613   5.515  0.1597  0.3975 -0.2274
18101TIP3    H175718   1.456   6.673   5.590 -1.3154  0.0259  0.1068
18101TIP3    H275719   1.464   6.670   5.439 -0.1294  0.9393  0.1381
18102TIP3   OH275720   1.858   3.760  17.263 -0.0100 -0.0194  0.0441
18102TIP3    H175721   1.953   3.748  17.262  0.2007  1.2899  1.2206
18102TIP3    H275722   1.834   3.770  17.170  0.8709 -1.0827 -0.3209
18103TIP3   OH275723   1.799   3.310   2.850  0.3854  0.2247  0.1164
18103TIP3    H175724   1.870   3.374   2.863  1.4054 -0.5753 -1.2652
18103TIP3    H275725   1.839   3.226   2.871  0.1121 -0.3308 -1.4785
18104TIP3   OH275726   3.098   2.852   4.617  0.5596 -1.0078  0.7177
18104TIP3    H175727   3.101   2.935   4.569 -1.3038 -0.5092  1.3700
18104TIP3    H275728   3.188   2.821   4.617  0.8888 -0.2975 -1.8173
18105TIP3   OH275729   3.296   4.154  14.628 -0.1487 -0.1663 -0.5657
18105TIP3    H175730   3.284   4.162  14.533  0.9039  1.8284 -0.5760
18105TIP3    H275731   3.368   4.213  14.648  0.1197 -1.0936  1.4012
18106TIP3   OH275732   2.924   5.238   2.969  0.2187 -0.7701  0.6488
18106TIP3    H175733   2.865   5.182   2.918  0.7808 -1.3486  0.6298
18106TIP3    H275734   2.997   5.182   2.992  1.6385  0.3965 -0.8056
18107TIP3   OH275735   4.575   3.655   0.530 -0.6813  0.1793 -0.1130
18107TIP3    H175736   4.654   3.708   0.541  0.7427 -1.8932  0.3007
18107TIP3    H275737   4.542   3.678   0.444  0.0808  1.4499 -0.0891
18108TIP3   OH275738   6.560   0.475  12.911 -0.2578 -1.1011 -0.2148
18108TIP3    H175739   6.532   0.432  12.992  0.1580  0.3698  0.7637
18108TIP3    H275740   6.624   0.540  12.940 -0.4076 -0.2458 -1.6902
18109TIP3   OH275741   5.135   0.324   1.423  0.6228 -0.3656 -0.0367
18109TIP3    H175742   5.109   0.413   1.401  1.5011 -0.1690 -0.3302
18109TIP3    H275743   5.183   0.332   1.506 -0.2562 -0.7234  0.5161
18110TIP3   OH275744   1.606   4.476   4.166  0.7095 -0.1576  0.0135
18110TIP3    H175745   1.654   4.552   4.134  1.2156 -0.2127  0.6050
18110TIP3    H275746   1.579   4.501   4.255 -2.2633  0.7107 -1.0322
18111TIP3   OH275747   3.307   0.212  16.569  0.1940 -0.2203 -0.2746
18111TIP3    H175748   3.235   0.149  16.568 -1.0596  1.1220  1.1602
18111TIP3    H275749   3.329   0.222  16.661  1.8140 -0.0987 -0.6354
18112TIP3   OH275750   0.392   6.382  16.244 -0.2110  0.2667  0.5293
18112TIP3    H175751   0.349   6.434  16.177  1.3889  0.4888 -0.3708
18112TIP3    H275752   0.372   6.428  16.326  1.1451  2.3726 -0.2276
18113TIP3   OH275753   6.268   4.960   0.835  0.3905 -1.0426  0.0149
18113TIP3    H175754   6.285   5.033   0.775 -1.0075  0.2887  1.1530
18113TIP3    H275755   6.192   4.914   0.797 -1.9402  1.1037  1.7144
18114TIP3   OH275756   5.341   4.248   4.923 -0.3002 -0.2984 -0.2854
18114TIP3    H175757   5.376   4.200   4.998 -0.4481 -1.6599 -1.0643
18114TIP3    H275758   5.326   4.337   4.957  0.2157 -0.7188  1.1184
18115TIP3   OH275759   5.739   5.523   2.015 -0.2855  0.5588 -0.1360
18115TIP3    H175760   5.716   5.469   1.939 -0.5611  1.0491 -0.4080
18115TIP3    H275761   5.835   5.530   2.011 -0.4348  2.9944 -2.1696
18116TIP3   OH275762   1.488   6.753  13.637  0.2625  0.2698 -0.5365
18116TIP3    H175763   1.476   6.843  13.665  0.4500  0.9258 -2.4021
18116TIP3    H275764   1.407   6.709  13.660 -0.0459  1.0536 -0.0955
18117TIP3   OH275765   5.285   1.063  16.423 -0.3917 -0.7640 -0.0006
18117TIP3    H175766   5.343   0.987  16.428  1.6094  0.6249 -1.0261
18117TIP3    H275767   5.265   1.073  16.330  0.2314  0.5723 -0.0059
18118TIP3   OH275768   1.908   1.813   4.501 -0.0352 -0.3619  0.4205
18118TIP3    H175769   1.996   1.844   4.482 -0.3346 -0.0644 -0.5501
18118TIP3    H275770   1.884   1.760   4.424 -0.4155 -1.0720  1.0123
18119TIP3   OH275771   0.667   6.140   1.716  1.2415  0.3362 -0.8264
18119TIP3    H175772   0.754   6.127   1.753  1.4820 -0.9522 -1.7934
18119TIP3    H275773   0.678   6.208   1.650  1.5501  0.0668 -1.0537
18120TIP3   OH275774   3.839   1.811   5.093  0.0340 -0.4263 -0.1268
18120TIP3    H175775   3.932   1.827   5.084 -0.4727  2.1313 -1.6087
18120TIP3    H275776   3.822   1.736   5.035  1.1424 -1.0623  0.3328
18121TIP3   OH275777   6.118   5.063   1.491  0.3821  0.2532  0.2069
18121TIP3    H175778   6.096   4.988   1.435 -0.2114 -0.5293  1.4468
18121TIP3    H275779   6.038   5.116   1.492  0.5556  0.5245 -0.0661
18122TIP3   OH275780   4.421   0.382   3.133 -0.2818  0.3205 -0.1877
18122TIP3    H175781   4.495   0.323   3.124  1.6303  2.6052 -0.4218
18122TIP3    H275782   4.354   0.347   3.074  1.0926 -1.1139 -0.9478
18123TIP3   OH275783   4.921   4.211   6.129 -0.0152  0.1554 -0.6921
18123TIP3    H175784   5.013   4.196   6.148 -0.2679  0.0667  0.5071
18123TIP3    H275785   4.877   4.201   6.213 -1.0857  0.4839 -1.1990
18124TIP3   OH275786   5.127   6.477   4.526 -0.1549 -0.6124 -0.2469
18124TIP3    H175787   5.220   6.487   4.543 -0.3007  0.2052  0.1442
18124TIP3    H275788   5.112   6.527   4.445 -0.7179  1.7142  1.1869
18125TIP3   OH275789   5.870   5.881   4.252 -0.9275 -0.1434 -0.1003
18125TIP3    H175790   5.957   5.891   4.213 -0.8369  1.0257  0.3726
18125TIP3    H275791   5.837   5.970   4.262 -1.1023 -0.3867  2.1331
18126TIP3   OH275792   6.575   4.926  12.001  0.2278  0.1493 -0.2076
18126TIP3    H175793   6.578   5.005  11.947 -0.0500  0.5527  0.3618
18126TIP3    H275794   6.583   4.957  12.091 -1.1300 -0.3469  0.1212
18127TIP3   OH275795   1.944   5.346   5.236  0.0017 -0.1348  0.3379
18127TIP3    H175796   1.876   5.325   5.172 -0.5021  1.5641  0.2743
18127TIP3    H275797   2.012   5.391   5.186  0.0607  0.3225  0.8200
18128TIP3   OH275798   5.597   1.424  15.507  0.2781  0.1263  0.7630
18128TIP3    H175799   5.524   1.481  15.486  0.5598  1.1121  2.2398
18128TIP3    H275800   5.657   1.431  15.433 -0.6366  0.1338  0.0222
18129TIP3   OH275801   6.229   3.913  14.281  0.1152  0.6022  0.1015
18129TIP3    H175802   6.175   3.849  14.235  1.1513  1.0913 -1.9048
18129TIP3    H275803   6.168   3.959  14.339 -1.5629  0.8769 -1.7915
18130TIP3   OH275804   5.532   6.229   5.391 -0.7335  0.5526 -0.3571
18130TIP3    H175805   5.618   6.225   5.348  0.2625  0.1680  1.5644
18130TIP3    H275806   5.513   6.138   5.413 -0.6602  0.8477  1.0022
18131TIP3   OH275807   1.522   4.637  16.781  0.0240 -0.3458  0.0120
18131TIP3    H175808   1.606   4.593  16.790  1.4975  2.1818 -0.4155
18131TIP3    H275809   1.505   4.674  16.868  1.0230  1.7951 -0.6218
18132TIP3   OH275810   4.994   3.460  16.990  0.0668  0.0217 -0.1304
18132TIP3    H175811   4.936   3.385  17.001  0.7148 -0.4268  0.2624
18132TIP3    H275812   4.998   3.500  17.077 -0.8425  0.9440 -0.4919
18133TIP3   OH275813   5.486   4.177  11.957 -0.2406 -0.0823  1.2160
18133TIP3    H175814   5.395   4.194  11.982 -0.6485  0.1426 -0.2838
18133TIP3    H275815   5.482   4.162  11.862  1.3811  0.6579  0.9944
18134TIP3   OH275816   5.751   5.828  13.760 -0.3016 -0.0173  0.0023
18134TIP3    H175817   5.695   5.905  13.769  0.8846  1.1964 -2.2521
18134TIP3    H275818   5.709   5.774  13.693  0.0438 -0.2332 -0.0464
18135TIP3   OH275819   4.370   4.172  12.883  0.2136  0.3862 -0.3154
18135TIP3    H175820   4.461   4.159  12.910 -0.2249 -2.1486  0.1899
18135TIP3    H275821   4.353   4.265  12.899  2.0525  0.4587  1.6708
18136TIP3   OH275822   2.047   0.583  11.396  0.6796  0.1207 -0.5370
18136TIP3    H175823   2.129   0.578  11.444  1.2543 -0.6207 -1.5554
18136TIP3    H275824   2.073   0.597  11.305 -0.4102  3.6760 -0.4531
18137TIP3   OH275825   0.642   4.161  11.722  0.1156  0.3462 -0.5728
18137TIP3    H175826   0.677   4.195  11.804  1.5287  1.5123 -1.6303
18137TIP3    H275827   0.613   4.072  11.744  0.4060  0.6554  1.1925
18138TIP3   OH275828   3.341   5.786   2.296 -0.0789 -0.5114  0.3227
18138TIP3    H175829   3.343   5.763   2.203 -1.8124 -0.2003  0.1788
18138TIP3    H275830   3.373   5.876   2.299  0.4832 -0.6971  0.1027
18139TIP3   OH275831   5.595   0.876   0.175  0.0626  0.2331 -0.3707
18139TIP3    H175832   5.581   0.970   0.163 -1.1476  0.4901  2.3302
18139TIP3    H275833   5.579   0.838   0.089 -1.4019  2.2987 -1.0940
18140TIP3   OH275834   4.166   1.773   4.803 -0.1731 -0.0531  0.0253
18140TIP3    H175835   4.209   1.858   4.810  1.2266 -0.6618 -0.7886
18140TIP3    H275836   4.140   1.751   4.893  1.5897  0.1790  0.6249
18141TIP3   OH275837   1.721   6.681   5.266 -0.4136  0.3862  0.0557
18141TIP3    H175838   1.726   6.754   5.328  1.3581  1.0376 -0.7863
18141TIP3    H275839   1.633   6.689   5.228 -0.2685  2.0895  0.0034
18142TIP3   OH275840   4.167   4.832  11.643 -0.2374 -0.2208 -0.0289
18142TIP3    H175841   4.225   4.827  11.719 -0.5696 -2.3082  0.1347
18142TIP3    H275842   4.093   4.884  11.672 -0.6466 -1.5059  1.2993
18143TIP3   OH275843   5.599   2.492  17.199 -0.2336 -0.2203 -0.0155
18143TIP3    H175844   5.523   2.447  17.235 -0.2784 -0.5581 -0.5344
18143TIP3    H275845   5.570   2.525  17.114 -0.2121  0.8145  0.3644
18144TIP3   OH275846   4.210   3.154   2.095 -0.3913 -0.1383 -0.2690
18144TIP3    H175847   4.297   3.168   2.058 -0.2086  0.9865  0.5226
18144TIP3    H275848   4.217   3.187   2.184 -1.1422 -1.7113  0.4066
18145TIP3   OH275849   2.564   5.912  13.606  0.3843  0.1046  0.2995
18145TIP3    H175850   2.599   5.897  13.518  1.3203 -0.1785  0.7020
18145TIP3    H275851   2.619   5.858  13.663  0.1561  0.7214  1.1262
18146TIP3   OH275852   1.816   0.761  17.231 -0.3216 -0.5554  0.3184
18146TIP3    H175853   1.905   0.763  17.197 -1.0244  1.7296 -1.7040
18146TIP3    H275854   1.814   0.829  17.298 -0.6340 -0.2428 -0.0010
18147TIP3   OH275855   1.704   3.954  13.676  0.7141  0.8445  0.0271
18147TIP3    H175856   1.682   3.882  13.735  1.0289 -0.4225 -1.3294
18147TIP3    H275857   1.734   4.024  13.733  0.1507 -0.0093  1.4156
18148TIP3   OH275858   1.994   2.378  11.146 -0.6254 -0.8872  0.1543
18148TIP3    H175859   1.931   2.314  11.113 -1.1295 -0.1453 -0.3731
18148TIP3    H275860   2.011   2.436  11.071 -0.3967 -0.2445  0.6883
18149TIP3   OH275861   1.366   3.124   2.597 -0.4809 -0.4362 -0.0288
18149TIP3    H175862   1.430   3.162   2.656  0.3222 -3.3288  1.1699
18149TIP3    H275863   1.418   3.086   2.527 -1.1619 -0.1070 -0.7244
18150TIP3   OH275864   2.236   4.356   4.484 -0.1962  0.6531 -0.1921
18150TIP3    H175865   2.330   4.366   4.497  0.3692  1.0730 -3.7381
18150TIP3    H275866   2.221   4.261   4.488  0.3639  0.5842  0.3212
18151TIP3   OH275867   6.612   2.946  16.072 -0.2855 -0.2874  0.1518
18151TIP3    H175868   6.654   2.925  16.156 -1.0144 -1.2283  0.2901
18151TIP3    H275869   6.545   3.010  16.095 -1.1402 -1.2702  0.4571
18152TIP3   OH275870   5.513   4.388   0.775 -0.4337 -0.1950  0.2090
18152TIP3    H175871   5.590   4.341   0.808  0.4455 -0.3957 -1.9648
18152TIP3    H275872   5.442   4.323   0.778 -1.0106  0.4002  3.5996
18153TIP3   OH275873   1.612   2.675  15.517  0.3075 -0.0491  0.0897
18153TIP3    H175874   1.524   2.640  15.505 -0.5302  2.2123 -0.8186
18153TIP3    H275875   1.630   2.662  15.610 -1.7852  1.1143  0.7184
18154TIP3   OH275876   5.727   6.213  16.849 -0.2080  0.2937  0.0142
18154TIP3    H175877   5.637   6.185  16.833  0.6202 -2.7336  0.1020
18154TIP3    H275878   5.735   6.211  16.945 -0.5829  2.7732  0.1859
18155TIP3   OH275879   0.076   5.633   1.723 -0.1638 -0.3224 -0.7763
18155TIP3    H175880   0.048   5.626   1.814  1.1788  0.2882 -0.2919
18155TIP3    H275881   0.115   5.720   1.717  1.9700 -1.2714 -1.2938
18156TIP3   OH275882   1.677   5.377  11.256 -0.5826  0.3534  0.1593
18156TIP3    H175883   1.676   5.470  11.234 -0.8498  0.2375 -0.3484
18156TIP3    H275884   1.770   5.355  11.264 -0.4779  0.4439 -0.7081
18157TIP3   OH275885   4.458   2.864   5.186 -0.0446 -0.1940  0.3807
18157TIP3    H175886   4.429   2.882   5.097 -2.0076 -1.9980  0.5731
18157TIP3    H275887   4.426   2.938   5.237  1.6613  1.1812 -0.4467
18158TIP3   OH275888   0.311   1.427   5.923 -0.6284 -0.0374 -0.4942
18158TIP3    H175889   0.233   1.419   5.979  0.6592 -1.6695  1.1760
18158TIP3    H275890   0.352   1.508   5.951 -0.0951 -0.7449  0.8776
18159TIP3   OH275891   6.366   3.485   3.405 -0.5230  0.2397 -0.1727
18159TIP3    H175892   6.333   3.568   3.441 -0.9320  0.1110 -0.2534
18159TIP3    H275893   6.291   3.446   3.361 -0.4154 -0.3308  0.1447
18160TIP3   OH275894   0.726   0.762   4.422 -0.2877 -0.0286 -0.3462
18160TIP3    H175895   0.655   0.820   4.447 -1.4524 -0.4434 -2.4076
18160TIP3    H275896   0.723   0.760   4.326  1.2853 -1.5633 -0.4297
18161TIP3   OH275897   4.050   3.232  12.753 -0.4895  0.7607  0.4606
18161TIP3    H175898   4.011   3.213  12.839  0.0147 -0.4932  0.4375
18161TIP3    H275899   3.991   3.189  12.691  1.3279 -2.0705  0.4779
18162TIP3   OH275900   2.992   1.612  12.633 -0.4665 -0.1514 -0.3983
18162TIP3    H175901   3.064   1.671  12.610 -0.1824 -0.2056  0.3304
18162TIP3    H275902   2.981   1.556  12.556  2.3500 -2.2271  0.5507
18163TIP3   OH275903   4.350   3.805  12.870 -0.5080 -0.1392 -0.2175
18163TIP3    H175904   4.313   3.859  12.940 -0.9885 -0.6548 -0.0716
18163TIP3    H275905   4.359   3.864  12.796 -0.8476  0.1888  0.0025
18164TIP3   OH275906   4.719   0.192  11.077 -0.3182 -0.1017  0.2630
18164TIP3    H175907   4.751   0.140  11.003  0.7487  2.7628 -1.4609
18164TIP3    H275908   4.624   0.186  11.072 -0.2519 -0.2218 -1.1688
18165TIP3   OH275909   5.371   1.294   3.228  0.1288  0.3272 -0.3600
18165TIP3    H175910   5.328   1.218   3.268 -1.2368  2.1799  1.9653
18165TIP3    H275911   5.464   1.272   3.228 -0.2272 -1.3025  0.3328
18166TIP3   OH275912   1.362   6.489  16.310 -0.0288  0.3518  0.0843
18166TIP3    H175913   1.438   6.528  16.267  0.6067  0.5681  1.3674
18166TIP3    H275914   1.369   6.395  16.290 -0.6510  0.6250 -1.6130
18167TIP3   OH275915   3.083   3.388  15.815 -0.3581  0.2687  0.2253
18167TIP3    H175916   3.152   3.383  15.749 -0.9209  1.4947 -0.4894
18167TIP3    H275917   3.108   3.322  15.880  0.4155 -0.7102 -0.9993
18168TIP3   OH275918   0.608   2.153   0.576  0.2081  0.1403 -0.2236
18168TIP3    H175919   0.570   2.118   0.657  0.8097 -2.3269 -0.9195
18168TIP3    H275920   0.534   2.155   0.515  0.5215 -2.0869 -0.7839
18169TIP3   OH275921   0.664   0.381  16.785 -0.1670 -0.5388  0.0502
18169TIP3    H175922   0.613   0.461  16.798  1.0413  0.3126 -0.3548
18169TIP3    H275923   0.713   0.396  16.705  2.0803 -0.5935  1.3493
18170TIP3   OH275924   2.617   6.513  16.790 -0.7105 -0.2543  0.4270
18170TIP3    H175925   2.617   6.594  16.839 -1.8443  0.8547 -1.2964
18170TIP3    H275926   2.690   6.522  16.728 -1.5876  0.0317 -0.6001
18171TIP3   OH275927   6.146   2.991   3.721 -0.4260  0.0246  0.0325
18171TIP3    H175928   6.052   2.976   3.733 -0.3726  0.1326  0.6060
18171TIP3    H275929   6.188   2.942   3.792  0.0916 -1.7506 -1.4147
18172TIP3   OH275930   4.333   1.981   0.279  0.2872  0.0392  0.4114
18172TIP3    H175931   4.344   2.046   0.209 -0.7863  0.0391  0.2289
18172TIP3    H275932   4.405   1.918   0.264 -1.6002 -1.6867 -2.6526
18173TIP3   OH275933   3.118   4.120  13.791 -0.3528 -0.2079 -0.0959
18173TIP3    H175934   3.129   4.148  13.700  2.5039  3.3610  1.0845
18173TIP3    H275935   3.064   4.189  13.831 -2.4909 -2.2596  0.8323
18174TIP3   OH275936   1.552   4.293  15.067  0.8372 -0.0664  0.4126
18174TIP3    H175937   1.603   4.303  14.987  0.0515  0.5228 -0.0170
18174TIP3    H275938   1.598   4.347  15.132  0.2418  1.2430 -0.2221
18175TIP3   OH275939   4.216   3.899  13.409  0.4123  0.4929  0.3272
18175TIP3    H175940   4.147   3.964  13.401 -0.5060 -0.5183 -0.2168
18175TIP3    H275941   4.279   3.939  13.469  1.0584  2.8518 -1.7574
18176TIP3   OH275942   5.301   4.926  12.993 -0.3659 -0.4594 -0.2804
18176TIP3    H175943   5.301   4.831  13.006  2.4069 -0.4933  0.0835
18176TIP3    H275944   5.290   4.938  12.899  1.1929 -1.2903 -0.6037
18177TIP3   OH275945   4.126   6.426   5.755  0.8029  0.4265  0.1722
18177TIP3    H175946   4.063   6.392   5.819  0.4915 -0.6207 -0.6542
18177TIP3    H275947   4.125   6.521   5.768  2.0818  0.1403  2.9177
18178TIP3   OH275948   0.497   1.975  16.482  0.3259 -0.2059 -0.3746
18178TIP3    H175949   0.553   1.899  16.497  0.4527  0.1977  1.4110
18178TIP3    H275950   0.541   2.046  16.527 -1.3186  0.2407  0.6019
18179TIP3   OH275951   2.959   0.390   2.826 -0.0058  0.2483 -0.3460
18179TIP3    H175952   3.043   0.410   2.868  1.0344  0.2003 -2.2583
18179TIP3    H275953   2.946   0.461   2.763 -0.6178 -0.5537 -1.1572
18180TIP3   OH275954   1.090   1.946  12.862 -0.2184  0.4020  0.2112
18180TIP3    H175955   1.007   1.925  12.818 -0.3859  1.7462 -0.1805
18180TIP3    H275956   1.084   1.904  12.948 -1.8406  1.4481  0.6549
18181TIP3   OH275957   3.524   0.852  13.388  0.0473  0.2380  0.1015
18181TIP3    H175958   3.440   0.874  13.429  0.2086  1.2668 -0.0794
18181TIP3    H275959   3.589   0.869  13.456  0.2483  1.1918 -0.3077
18182TIP3   OH275960   4.509   3.155   5.856  0.5235  0.0030  0.4585
18182TIP3    H175961   4.465   3.185   5.936 -0.8906 -2.6196  0.7725
18182TIP3    H275962   4.515   3.060   5.866  1.3468 -0.2767 -2.0653
18183TIP3   OH275963   0.536   2.646  12.421  0.1037 -0.2662  0.4697
18183TIP3    H175964   0.534   2.561  12.379 -1.1435  0.1703 -0.4134
18183TIP3    H275965   0.464   2.644  12.484  0.5508 -0.1267  0.9957
18184TIP3   OH275966   0.610   4.687   4.283  0.2493 -0.2132  0.0391
18184TIP3    H175967   0.693   4.651   4.316  2.6903  1.9636 -3.1342
18184TIP3    H275968   0.593   4.638   4.203  0.0352  1.1727 -0.7994
18185TIP3   OH275969   1.951   2.216   3.857 -0.0092  0.0489 -0.2304
18185TIP3    H175970   1.924   2.169   3.778  1.2412 -0.8731 -0.1389
18185TIP3    H275971   2.021   2.163   3.894  1.4687  1.9654 -0.1067
18186TIP3   OH275972   6.543   5.320  15.454  0.3293  0.3274  0.3813
18186TIP3    H175973   6.639   5.319  15.453  0.3423 -1.3488 -0.8397
18186TIP3    H275974   6.518   5.230  15.435 -1.5124  0.8436  0.1535
18187TIP3   OH275975   1.578   5.471   5.226 -0.2967 -0.2113  0.7443
18187TIP3    H175976   1.568   5.410   5.153  2.9896 -1.5497  1.2722
18187TIP3    H275977   1.508   5.447   5.287 -1.5567 -0.6988 -0.8298
18188TIP3   OH275978   6.594   3.102  14.612  0.2809 -0.2976  0.2508
18188TIP3    H175979   6.688   3.119  14.620  0.1699 -0.5449  2.9468
18188TIP3    H275980   6.587   3.007  14.618 -0.0784 -0.3598 -1.0302
18189TIP3   OH275981   6.182   4.708  13.875 -0.0480  0.1870 -0.4475
18189TIP3    H175982   6.141   4.745  13.796 -0.1656  3.8783  1.1484
18189TIP3    H275983   6.260   4.761  13.889  2.5378 -3.2264 -0.3466
18190TIP3   OH275984   4.195   4.660   6.098  0.5224  0.3335 -0.3463
18190TIP3    H175985   4.272   4.622   6.057  1.1662 -0.4423  1.4722
18190TIP3    H275986   4.185   4.746   6.056  1.2251 -0.3343 -1.9347
18191TIP3   OH275987   4.563   4.241  14.089 -0.6079 -0.0745 -0.1796
18191TIP3    H175988   4.469   4.224  14.091 -0.6579  0.2363  0.3339
18191TIP3    H275989   4.596   4.205  14.171 -0.4642  0.8483  0.1797
18192TIP3   OH275990   5.874   2.439   0.696 -0.0445  0.5935  0.1271
18192TIP3    H175991   5.859   2.456   0.789  0.0999  0.7460  0.1238
18192TIP3    H275992   5.903   2.348   0.693  0.3988  0.7251  0.2849
18193TIP3   OH275993   2.620   0.374   4.263  0.0469  0.2667  0.0432
18193TIP3    H175994   2.624   0.350   4.170  3.0102  2.0496 -0.4106
18193TIP3    H275995   2.695   0.330   4.302 -1.0104 -0.2353  1.5963
18194TIP3   OH275996   1.814   6.541   2.917  0.2895 -0.1792  0.2570
18194TIP3    H175997   1.722   6.519   2.930  0.7004 -1.2738  1.5697
18194TIP3    H275998   1.841   6.488   2.841 -0.0129 -0.3013  0.2330
18195TIP3   OH275999   0.942   4.124  14.536  0.3920 -0.2759  0.4173
18195TIP3    H176000   0.895   4.177  14.601 -0.9896  0.0140 -0.7659
18195TIP3    H276001   0.945   4.179  14.458  0.3269 -1.3247 -0.3513
18196TIP3   OH276002   1.665   6.432  14.199 -0.0793  0.0794  0.1978
18196TIP3    H176003   1.664   6.510  14.143 -2.3656  0.2753  0.4193
18196TIP3    H276004   1.670   6.467  14.288  1.2449 -0.1451  0.2273
18197TIP3   OH276005   4.105   3.916  15.870 -0.3142  0.5250  0.2570
18197TIP3    H176006   4.057   3.930  15.789 -0.3531 -0.3554  0.1115
18197TIP3    H276007   4.197   3.916  15.843 -0.3401 -0.0943  0.1481
18198TIP3   OH276008   5.546   1.877  12.596 -0.0253  0.5940  0.3233
18198TIP3    H176009   5.464   1.877  12.646 -1.1341 -1.5108 -1.3262
18198TIP3    H276010   5.589   1.795  12.620  2.1733  2.1300  1.9170
18199TIP3   OH276011   1.607   6.459  15.298  0.1996 -0.1482 -0.2907
18199TIP3    H176012   1.588   6.424  15.210 -1.2675  2.0369 -0.9174
18199TIP3    H276013   1.682   6.517  15.284 -0.7490  1.1006 -0.3898
18200TIP3   OH276014   5.880   4.177  15.801 -0.0250  0.3516 -0.0784
18200TIP3    H176015   5.893   4.120  15.726 -1.6579 -0.2294  0.0350
18200TIP3    H276016   5.796   4.220  15.785  1.1714  2.8382 -0.1951
18201TIP3   OH276017   3.465   2.065   2.508 -0.3062  0.2755  0.4144
18201TIP3    H176018   3.429   2.059   2.596  1.5589 -0.9536  1.1630
18201TIP3    H276019   3.405   2.013   2.454 -0.1316 -1.0683  1.4591
18202TIP3   OH276020   3.282   2.269  10.605 -0.2465  0.0116 -0.6086
18202TIP3    H176021   3.318   2.318  10.530  1.8585 -0.8310 -0.2149
18202TIP3    H276022   3.335   2.297  10.679 -1.2204 -0.4078  0.2665
18203TIP3   OH276023   2.192   4.973  13.851 -0.1523  0.0202 -0.0057
18203TIP3    H176024   2.152   4.978  13.764  0.9414  1.8428 -0.4453
18203TIP3    H276025   2.286   4.985  13.835  0.1334 -0.2379  1.3718
18204TIP3   OH276026   0.189   5.626  15.567 -0.6762  0.5015  0.0807
18204TIP3    H176027   0.112   5.683  15.564 -0.9420  0.1660  0.3974
18204TIP3    H276028   0.250   5.672  15.623 -0.7265  0.6730 -0.0032
18205TIP3   OH276029   4.145   6.024   3.355 -0.5195 -0.6045 -0.4941
18205TIP3    H176030   4.119   6.080   3.428 -2.4994 -1.0834 -0.7626
18205TIP3    H276031   4.101   6.062   3.279  0.4219 -0.8891 -1.2006
18206TIP3   OH276032   3.095   5.406  17.132  0.6465 -0.1635  0.2396
18206TIP3    H176033   3.181   5.366  17.146 -0.2638 -1.8264  1.4419
18206TIP3    H276034   3.098   5.487  17.183  1.1378 -0.7685  1.2063
18207TIP3   OH276035   6.630   4.782   0.201 -0.0537  0.2165  0.1594
18207TIP3    H176036   6.641   4.699   0.248 -1.5817 -1.3065 -2.0153
18207TIP3    H276037   6.681   4.771   0.121 -1.9553  0.5079 -1.1361
18208TIP3   OH276038   1.373   2.372   5.735  0.0030  0.4273  0.0058
18208TIP3    H176039   1.396   2.318   5.811  2.1943  2.1696  0.6945
18208TIP3    H276040   1.308   2.434   5.769  0.6784  0.9404  0.3994
18209TIP3   OH276041   1.878   1.575  14.625  0.0371 -0.3445  0.4441
18209TIP3    H176042   1.784   1.571  14.642 -0.5199  0.6678 -1.9523
18209TIP3    H276043   1.901   1.487  14.594  0.1010 -0.8562  1.8969
18210TIP3   OH276044   0.404   2.632   1.651 -0.4296  0.1094 -0.1447
18210TIP3    H176045   0.480   2.681   1.618  0.6649 -2.6672 -2.2486
18210TIP3    H276046   0.384   2.570   1.581 -3.0915 -0.9629  1.4100
18211TIP3   OH276047   5.614   2.373  16.187  0.2337 -0.7189  0.7739
18211TIP3    H176048   5.699   2.358  16.146  0.3799  0.5874  0.5437
18211TIP3    H276049   5.550   2.341  16.123  0.3585  2.9463 -1.4621
18212TIP3   OH276050   0.138   3.042   0.448 -0.3802 -0.1194 -0.8093
18212TIP3    H176051   0.120   3.101   0.521 -1.4971 -0.7293 -0.5589
18212TIP3    H276052   0.052   3.010   0.422 -0.1334  0.9473 -3.1700
18213TIP3   OH276053   1.975   3.066   3.626 -0.0416  0.4207 -0.0086
18213TIP3    H176054   1.996   3.160   3.624 -0.8275  0.6067  0.1385
18213TIP3    H276055   1.917   3.053   3.552  0.4507 -0.0576 -0.3193
18214TIP3   OH276056   1.495   3.438  12.883  0.1976 -0.1417  0.1925
18214TIP3    H176057   1.406   3.424  12.852 -0.0400  0.2008  0.7006
18214TIP3    H276058   1.522   3.521  12.845 -0.8049  1.2819  2.3667
18215TIP3   OH276059   4.692   5.189  14.392 -0.0985  0.0128 -0.6196
18215TIP3    H176060   4.664   5.280  14.397  1.2231  0.4111  0.0978
18215TIP3    H276061   4.664   5.151  14.475 -1.9821 -0.6793 -1.5155
18216TIP3   OH276062   3.528   0.518   1.767 -0.0948 -0.1869  0.0645
18216TIP3    H176063   3.611   0.491   1.728  0.0980  0.6524 -0.1469
18216TIP3    H276064   3.535   0.493   1.859  0.3014 -0.3331 -0.0044
18217TIP3   OH276065   6.242   4.497   0.977  0.2822  0.1088 -0.2307
18217TIP3    H176066   6.271   4.560   1.043 -0.5355 -0.0405  0.2850
18217TIP3    H276067   6.322   4.473   0.930  0.6360  1.4205 -0.3508
18218TIP3   OH276068   3.553   4.087   6.106 -0.3969 -0.5083  0.0139
18218TIP3    H176069   3.611   4.016   6.135  0.4150  0.1771  0.0929
18218TIP3    H276070   3.550   4.147   6.180  0.3656  0.4353 -0.6916
18219TIP3   OH276071   5.654   1.171   5.480  0.0692 -0.2103 -0.4543
18219TIP3    H176072   5.591   1.239   5.503  1.1720  0.6088  0.2968
18219TIP3    H276073   5.665   1.120   5.561  0.0433 -0.6238 -0.7067
18220TIP3   OH276074   0.978   4.231   4.253 -0.8838 -0.6072 -0.0734
18220TIP3    H176075   0.957   4.197   4.166 -0.5491 -1.1175  0.0431
18220TIP3    H276076   0.961   4.158   4.312 -0.3933 -0.5014  0.2046
18221TIP3   OH276077   5.369   0.312  13.033  0.1554  0.0140 -0.4858
18221TIP3    H176078   5.449   0.358  13.057 -0.1027  0.0422  0.3755
18221TIP3    H276079   5.382   0.286  12.942  0.6441  1.0679 -0.7327
18222TIP3   OH276080   5.200   6.325   5.313  0.0252 -0.3584 -0.2610
18222TIP3    H176081   5.215   6.240   5.272  1.3888  0.0375 -0.6498
18222TIP3    H276082   5.138   6.370   5.256 -1.3682 -1.3895  0.3967
18223TIP3   OH276083   1.385   1.252   4.114  0.0916  0.5432 -0.0451
18223TIP3    H176084   1.441   1.209   4.049  1.4493  0.7132  0.9717
18223TIP3    H276085   1.332   1.313   4.063  1.1483  0.6930 -1.0000
18224TIP3   OH276086   1.417   2.517   3.558  0.1794  0.3924 -0.0610
18224TIP3    H176087   1.348   2.558   3.611  1.4968  0.2555  1.8434
18224TIP3    H276088   1.463   2.591   3.519 -0.8715  0.4903 -1.1952
18225TIP3   OH276089   4.913   6.397  13.023  0.5650  0.0164 -0.3000
18225TIP3    H176090   5.003   6.393  13.058  0.4725 -1.2700 -0.1339
18225TIP3    H276091   4.858   6.380  13.099  0.0201  2.9004  0.0412
18226TIP3   OH276092   4.147   6.338   0.713  0.9602  0.2129  0.8964
18226TIP3    H176093   4.194   6.255   0.710  0.3831 -0.1150  0.8077
18226TIP3    H276094   4.166   6.380   0.630 -1.2395 -1.2312 -0.4544
18227TIP3   OH276095   5.044   5.026   4.897  0.5784  0.5882 -0.6405
18227TIP3    H176096   5.023   4.933   4.889  0.0863  0.8380 -2.7853
18227TIP3    H276097   5.126   5.028   4.946  1.0893 -1.0392 -1.3630
18228TIP3   OH276098   0.513   2.517   2.413  0.1187 -0.0489 -0.5677
18228TIP3    H176099   0.432   2.547   2.372  0.5359  1.7867 -0.1467
18228TIP3    H276100   0.507   2.549   2.503  1.2272 -0.0822 -0.4754
18229TIP3   OH276101   4.696   3.416  16.771  0.1003  0.3330 -0.4781
18229TIP3    H176102   4.732   3.393  16.686  1.7414 -1.8802  0.7069
18229TIP3    H276103   4.685   3.511  16.768  0.1600  0.3183 -3.0950
18230TIP3   OH276104   4.646   4.656   2.433 -0.0289 -0.4412 -0.1206
18230TIP3    H176105   4.609   4.732   2.477  0.3128 -0.4382  0.1652
18230TIP3    H276106   4.691   4.608   2.502 -0.5315 -1.0833 -0.2298
18231TIP3   OH276107   0.860   0.989   2.818 -0.1228  0.1239 -0.2526
18231TIP3    H176108   0.809   1.019   2.893 -1.2820  1.0040 -1.3531
18231TIP3    H276109   0.940   0.954   2.857  0.1319  2.1993  1.3019
18232TIP3   OH276110   0.774   1.125   1.747 -0.3725  0.3291 -0.0101
18232TIP3    H176111   0.720   1.083   1.814  0.8360 -0.1180  0.6978
18232TIP3    H276112   0.781   1.216   1.776 -2.4402  0.9538 -1.2029
18233TIP3   OH276113   4.303   3.933  13.881  0.1692 -0.0978 -0.7676
18233TIP3    H176114   4.268   3.880  13.810 -2.7552  0.7872 -0.1363
18233TIP3    H276115   4.308   3.873  13.956 -3.0999  0.3204 -0.0613
18234TIP3   OH276116   5.637   0.581  12.428  0.7967  0.3475  0.0606
18234TIP3    H176117   5.547   0.596  12.399  0.3624  1.1541  1.7204
18234TIP3    H276118   5.680   0.542  12.352 -0.6948  0.8342 -1.0853
18235TIP3   OH276119   6.471   4.523  12.852  0.1083  0.9277 -0.3115
18235TIP3    H176120   6.422   4.520  12.934 -0.0474  0.2065 -0.4224
18235TIP3    H276121   6.479   4.616  12.832 -2.6940  1.0893 -1.1445
18236TIP3   OH276122   5.797   5.605  14.191  0.2051 -0.2190 -0.7129
18236TIP3    H176123   5.732   5.594  14.122 -0.8836  0.7872  0.0997
18236TIP3    H276124   5.866   5.542  14.170 -1.5374 -2.1333 -0.9954
18237TIP3   OH276125   4.444   2.284   3.486 -0.4229  0.1788 -0.1267
18237TIP3    H176126   4.447   2.203   3.434  1.2514  0.1488 -0.0407
18237TIP3    H276127   4.377   2.267   3.553 -0.4049 -0.9701 -0.3736
18238TIP3   OH276128   6.182   0.716  12.452  0.2489  0.4996  0.7098
18238TIP3    H176129   6.194   0.771  12.530  0.2797  1.5886 -0.0345
18238TIP3    H276130   6.266   0.719  12.407 -0.7327  2.9530 -1.2372
18239TIP3   OH276131   4.401   4.010   2.613  0.2108  0.2989 -0.1317
18239TIP3    H176132   4.351   3.975   2.539  0.0072  0.1902  0.0558
18239TIP3    H276133   4.344   3.997   2.689  0.5297  0.1603  0.0881
18240TIP3   OH276134   5.625   3.539  14.524  0.1468 -0.0050 -0.4131
18240TIP3    H176135   5.533   3.539  14.549 -0.0567 -1.4806 -1.0173
18240TIP3    H276136   5.645   3.446  14.510  2.5399 -0.0973  2.5924
18241TIP3   OH276137   0.284   3.450   2.459  0.3703 -0.6999 -0.0941
18241TIP3    H176138   0.339   3.522   2.430 -0.6180 -0.6135 -1.9091
18241TIP3    H276139   0.346   3.383   2.488  1.3740 -0.0016 -0.5506
18242TIP3   OH276140   0.138   2.284  16.472 -0.2554  0.2132  0.3646
18242TIP3    H176141   0.104   2.302  16.560 -0.2830  0.3495  0.3268
18242TIP3    H276142   0.170   2.194  16.477 -1.1941 -0.1395  0.2253
18243TIP3   OH276143   2.548   1.884   6.361  0.2084 -0.5515  0.4089
18243TIP3    H176144   2.512   1.919   6.280  1.6528  0.6032  0.2184
18243TIP3    H276145   2.477   1.833   6.400 -0.7580 -0.4534 -1.1753
18244TIP3   OH276146   1.567   1.829   2.468  0.3440 -0.1877  0.7997
18244TIP3    H176147   1.496   1.885   2.499 -0.5484 -0.4033 -0.7530
18244TIP3    H276148   1.523   1.763   2.415  1.7604  0.0329 -0.7035
18245TIP3   OH276149   5.229   3.786   3.054 -0.2533 -0.2748  0.0134
18245TIP3    H176150   5.186   3.721   2.999  0.9668  0.9470 -2.5886
18245TIP3    H276151   5.195   3.870   3.024 -0.1962  0.4400  1.8019
18246TIP3   OH276152   1.228   2.781   0.210  0.0760  0.2217 -0.2585
18246TIP3    H176153   1.238   2.862   0.160  0.9413  0.5763  0.4633
18246TIP3    H276154   1.168   2.803   0.281  0.4596  0.2904  0.0486
18247TIP3   OH276155   0.674   2.347  13.175 -0.1069 -0.0890 -0.1259
18247TIP3    H176156   0.655   2.430  13.132 -2.5243 -0.5728 -0.1301
18247TIP3    H276157   0.620   2.348  13.254 -0.9589 -2.0473 -0.6411
18248TIP3   OH276158   5.863   0.305  14.276  0.1908 -0.0833 -0.4980
18248TIP3    H176159   5.785   0.280  14.325 -0.2250 -0.0966 -1.1513
18248TIP3    H276160   5.914   0.359  14.337  0.5500 -1.5474  0.5488
18249TIP3   OH276161   3.646   0.413  14.795  0.3006 -0.2950  0.2407
18249TIP3    H176162   3.705   0.389  14.723  1.1274 -0.4062  0.9399
18249TIP3    H276163   3.623   0.504  14.777  0.3940 -0.3626 -0.2419
18250TIP3   OH276164   3.837   0.017  16.869  0.5689  0.0705  0.1204
18250TIP3    H176165   3.907   0.008  16.934 -0.0049 -0.3276  0.7147
18250TIP3    H276166   3.772   0.074  16.911  0.6535  0.6569 -0.5285
18251TIP3   OH276167   1.027   1.689   1.793 -0.0407  0.3122 -0.0810
18251TIP3    H176168   0.993   1.735   1.717  0.2999  0.5261 -0.1074
18251TIP3    H276169   1.076   1.756   1.842  3.9693 -0.7778 -2.1570
18252TIP3   OH276170   3.977   4.132   4.234  0.6728  0.2139 -0.3135
18252TIP3    H176171   3.968   4.092   4.147 -0.4595 -1.5107  0.5450
18252TIP3    H276172   3.936   4.069   4.293  0.9137  1.6288  1.4147
18253TIP3   OH276173   4.714   0.825  10.937 -0.5196  0.5808  0.3372
18253TIP3    H176174   4.677   0.748  10.894  1.2004  0.2686 -0.6622
18253TIP3    H276175   4.722   0.799  11.029 -0.6603 -0.1545  0.1513
18254TIP3   OH276176   0.254   6.695   2.293 -0.3644  0.0245  0.3376
18254TIP3    H176177   0.252   6.606   2.327 -0.2798  0.0931  0.5207
18254TIP3    H276178   0.200   6.745   2.353  1.3320  0.5391  1.4934
18255TIP3   OH276179   6.090   1.264  16.381  0.6696 -0.2857  0.4269
18255TIP3    H176180   6.063   1.230  16.296  1.0031 -0.4067  0.3658
18255TIP3    H276181   6.166   1.319  16.362  0.5620 -0.0719  0.6111
18256TIP3   OH276182   4.482   6.096  15.586 -0.3067 -0.2270 -0.2905
18256TIP3    H176183   4.530   6.170  15.622 -0.0431 -0.2417 -0.6160
18256TIP3    H276184   4.507   6.022  15.643  0.9431 -0.4788 -1.1327
18257TIP3   OH276185   0.394   4.780   5.546 -0.2546  0.3019 -0.3364
18257TIP3    H176186   0.349   4.701   5.517 -0.8896  0.1615  0.9363
18257TIP3    H276187   0.487   4.761   5.534 -0.4032 -0.6029 -0.1207
18258TIP3   OH276188   3.314   5.538  15.249  0.2189 -0.5056 -0.4170
18258TIP3    H176189   3.227   5.556  15.215  0.6730 -0.1478 -1.4371
18258TIP3    H276190   3.302   5.464  15.309 -0.7804 -0.4298 -0.5170
18259TIP3   OH276191   5.713   0.296  12.836  0.5510  0.8919  0.3544
18259TIP3    H176192   5.808   0.286  12.844  0.6035  1.9535  1.3756
18259TIP3    H276193   5.697   0.304  12.742  1.2146 -1.3749  0.0011
18260TIP3   OH276194   0.601   1.629   3.212 -0.1692 -0.6205  0.5199
18260TIP3    H176195   0.610   1.558   3.275 -2.8977 -1.3888  0.1422
18260TIP3    H276196   0.507   1.645   3.207  0.1924  1.3073 -1.3079
18261TIP3   OH276197   6.239   2.184  13.802  0.4712 -0.7742  0.3637
18261TIP3    H176198   6.271   2.263  13.846  1.8921 -2.4816  2.6808
18261TIP3    H276199   6.148   2.203  13.782  1.7209  3.0188 -3.2797
18262TIP3   OH276200   5.131   3.949  12.102 -0.3713  0.5555 -0.1421
18262TIP3    H176201   5.063   4.009  12.131 -1.4732 -1.3558  1.3948
18262TIP3    H276202   5.085   3.886  12.046  0.1912 -0.4901  0.5458
18263TIP3   OH276203   6.512   1.826   1.504  0.7466  0.8817 -0.3093
18263TIP3    H176204   6.445   1.758   1.494  0.0829  1.2699  1.2560
18263TIP3    H276205   6.464   1.903   1.534  1.7177  1.5692 -0.4787
18264TIP3   OH276206   6.427   1.701  16.459  0.2244  0.0781  0.2862
18264TIP3    H176207   6.494   1.736  16.518 -0.6170  2.3487 -0.0079
18264TIP3    H276208   6.344   1.724  16.500 -0.3720  0.2519 -0.9527
18265TIP3   OH276209   6.203   1.573  16.798 -0.5874 -0.0785 -0.3490
18265TIP3    H176210   6.122   1.524  16.814 -1.5661  0.6858 -2.5866
18265TIP3    H276211   6.267   1.507  16.773 -1.7080 -0.3727 -2.6897
18266TIP3   OH276212   6.196   5.573  12.158  0.0396  0.4301 -0.4707
18266TIP3    H176213   6.257   5.587  12.084  0.1744  0.2437 -0.3961
18266TIP3    H276214   6.228   5.631  12.226 -0.4554  1.0642 -0.7720
18267TIP3   OH276215   4.840   1.806  15.499  0.2503 -0.8266 -0.0700
18267TIP3    H176216   4.763   1.829  15.447 -0.4795  2.1777  2.0488
18267TIP3    H276217   4.913   1.849  15.456  0.1042 -0.5503 -0.0391
18268TIP3   OH276218   3.428   4.683  17.210  0.2310 -0.5025 -0.1316
18268TIP3    H176219   3.496   4.717  17.269 -1.6116  0.5003  1.5544
18268TIP3    H276220   3.456   4.709  17.123  2.2241 -0.5526  0.4407
18269TIP3   OH276221   5.881   1.583   3.042 -0.2613 -0.0813 -0.3220
18269TIP3    H176222   5.923   1.536   2.970 -1.0906 -1.7445  0.2267
18269TIP3    H276223   5.865   1.670   3.008  1.7505 -0.0106 -1.2374
18270TIP3   OH276224   1.819   2.490   4.818  0.6040  0.3031  0.1807
18270TIP3    H176225   1.827   2.404   4.860  2.2994  0.1142 -0.4513
18270TIP3    H276226   1.876   2.484   4.742 -1.6356  0.9394 -1.6820
18271TIP3   OH276227   3.368   2.163   4.063 -0.4294 -0.1860  0.5036
18271TIP3    H176228   3.396   2.076   4.032  0.2203  0.0829  0.3253
18271TIP3    H276229   3.437   2.222   4.034 -0.3687  0.2479  1.4993
18272TIP3   OH276230   1.386   1.572   0.640 -0.0533 -0.3779  0.2040
18272TIP3    H176231   1.383   1.492   0.588 -2.6580  0.2538 -0.8178
18272TIP3    H276232   1.340   1.637   0.587  1.7400  1.7591  1.1073
18273TIP3   OH276233   3.225   4.311   0.447  0.3758  0.5236 -0.0800
18273TIP3    H176234   3.156   4.309   0.513  0.2773  0.9572 -0.1708
18273TIP3    H276235   3.284   4.381   0.474  0.7008  0.2596 -0.0897
18274TIP3   OH276236   3.659   2.146   5.264  0.1672 -0.4487 -0.4489
18274TIP3    H176237   3.727   2.127   5.330 -1.2047  0.8143  1.4282
18274TIP3    H276238   3.659   2.242   5.257 -1.3327 -0.4286 -0.4719
18275TIP3   OH276239   3.799   2.529  12.010  0.8644  0.6202 -0.0685
18275TIP3    H176240   3.894   2.520  12.013  0.6797 -1.4937  2.0745
18275TIP3    H276241   3.782   2.612  12.056  1.6005 -0.2745  1.9326
18276TIP3   OH276242   5.817   5.724  15.842 -0.3247 -0.0116 -0.2056
18276TIP3    H176243   5.792   5.816  15.847 -0.3823  0.0912 -1.7260
18276TIP3    H276244   5.911   5.723  15.859 -0.5930  0.1064  1.4257
18277TIP3   OH276245   4.083   0.667   0.162 -0.2560  0.1914  0.2272
18277TIP3    H176246   4.036   0.751   0.159  0.7437  0.7465 -1.6561
18277TIP3    H276247   4.169   0.687   0.124 -0.0873 -1.7417 -0.4960
18278TIP3   OH276248   5.496   5.142   0.810 -0.1488 -0.6010 -0.0659
18278TIP3    H176249   5.529   5.161   0.898  0.1322 -0.5868 -0.1722
18278TIP3    H276250   5.409   5.182   0.808 -0.3263 -0.9635  0.3434
18279TIP3   OH276251   4.988   2.059   1.482  0.1935  0.4950  0.3840
18279TIP3    H176252   4.908   2.007   1.488  0.9230 -0.7177  0.0418
18279TIP3    H276253   5.041   2.013   1.417  1.9196  0.2387  1.8963
18280TIP3   OH276254   6.402   4.652  11.275  0.5473  0.1256  0.2102
18280TIP3    H176255   6.426   4.652  11.182  0.9397 -0.5656  0.2987
18280TIP3    H276256   6.329   4.712  11.282  0.1714 -0.2225 -0.6419
18281TIP3   OH276257   1.260   6.141  15.926 -0.3524  0.0819  0.6646
18281TIP3    H176258   1.228   6.148  15.836  1.7379  0.8919 -0.0601
18281TIP3    H276259   1.230   6.055  15.955 -0.9797 -0.2374 -0.8340
18282TIP3   OH276260   6.378   4.557  14.965 -0.3482  0.5351  0.0061
18282TIP3    H176261   6.295   4.526  15.001 -0.5440  0.8616 -0.1623
18282TIP3    H276262   6.426   4.592  15.040 -0.4865  0.6178  0.0550
18283TIP3   OH276263   1.120   3.762   4.248  0.2652 -0.2011 -0.3294
18283TIP3    H176264   1.171   3.808   4.182  0.2127  1.8101  0.9639
18283TIP3    H276265   1.151   3.796   4.332 -0.0265 -2.3045  0.7211
18284TIP3   OH276266   0.405   4.277   0.931 -0.3487 -0.2668  0.4254
18284TIP3    H176267   0.385   4.184   0.940 -2.6029 -0.0044 -1.1853
18284TIP3    H276268   0.402   4.294   0.837 -3.7828  2.1070  0.7939
18285TIP3   OH276269   2.867   0.460  14.460  0.4023 -0.8207  0.0196
18285TIP3    H176270   2.802   0.447  14.529  0.8962 -1.0633  0.4480
18285TIP3    H276271   2.950   0.473  14.507  0.5528  0.1700 -0.4979
18286TIP3   OH276272   3.021   4.117  14.554  0.1655 -0.2207  0.6030
18286TIP3    H176273   3.037   4.024  14.541  0.0376  0.0299 -1.8078
18286TIP3    H276274   3.093   4.161  14.507 -0.8126  0.8621  0.0449
18287TIP3   OH276275   2.441   6.451  16.595 -0.0884  0.3971  0.0028
18287TIP3    H176276   2.494   6.391  16.646  0.8293 -1.2352 -2.6866
18287TIP3    H276277   2.460   6.537  16.633  3.1105 -0.3202  0.3060
18288TIP3   OH276278   4.448   1.859  13.973 -0.1401 -0.1299 -0.0046
18288TIP3    H176279   4.397   1.790  13.931  0.5576 -1.0369  0.5805
18288TIP3    H276280   4.410   1.940  13.942 -0.5155 -0.7779 -1.2921
18289TIP3   OH276281   6.374   6.474  12.381  0.0090  0.1929  0.4864
18289TIP3    H176282   6.364   6.514  12.294 -1.7037  1.8851  1.3898
18289TIP3    H276283   6.467   6.484  12.401  0.0259  1.8468 -0.2444
18290TIP3   OH276284   2.299   5.413  14.608  0.4512  0.3893 -0.1531
18290TIP3    H176285   2.325   5.433  14.697 -2.9319 -4.3026  2.3192
18290TIP3    H276286   2.214   5.457  14.597  0.2837 -0.0464 -0.6356
18291TIP3   OH276287   3.370   2.863   1.465 -0.7019 -0.3996 -0.1762
18291TIP3    H176288   3.348   2.797   1.531 -1.0012  0.7112  0.8673
18291TIP3    H276289   3.338   2.945   1.502  1.1319  0.6007 -0.6855
18292TIP3   OH276290   4.783   0.527   1.527  0.0692  0.4432  0.7787
18292TIP3    H176291   4.850   0.474   1.484 -1.0942 -0.4431 -0.0014
18292TIP3    H276292   4.832   0.595   1.574  1.5043 -0.2843  0.3736
18293TIP3   OH276293   2.804   5.370  13.335  0.2544  0.4314  0.4292
18293TIP3    H176294   2.755   5.324  13.267  1.7552  1.5345 -1.4956
18293TIP3    H276295   2.860   5.303  13.374 -0.7705 -0.2574  0.7628
18294TIP3   OH276296   2.684   1.718  13.423  0.0734  0.4131  0.0126
18294TIP3    H176297   2.741   1.695  13.350  1.7131  0.6840  1.1500
18294TIP3    H276298   2.707   1.656  13.492  0.0498  1.4553  0.9863
18295TIP3   OH276299   4.271   5.571  11.634 -0.6107  0.1180  0.3006
18295TIP3    H176300   4.338   5.508  11.660 -1.5403 -0.9171  0.3052
18295TIP3    H276301   4.236   5.536  11.552 -0.5142  1.1363 -0.1805
18296TIP3   OH276302   5.179   3.565  15.895  0.0186 -0.1994 -0.0100
18296TIP3    H176303   5.251   3.529  15.947 -0.2441  0.5566  0.8994
18296TIP3    H276304   5.222   3.630  15.838 -0.0450  1.0496  1.2957
18297TIP3   OH276305   1.683   6.558  14.448 -0.3844  0.0281  0.0131
18297TIP3    H176306   1.722   6.554  14.535 -0.4445  1.4079  0.1262
18297TIP3    H276307   1.605   6.611  14.459 -1.1323 -0.9075 -0.6396
18298TIP3   OH276308   1.657   1.626   2.969 -0.1063  0.2683 -0.3088
18298TIP3    H176309   1.748   1.597   2.957 -1.0837 -3.2016 -0.5621
18298TIP3    H276310   1.650   1.642   3.063  0.6242 -0.1470 -0.1692
18299TIP3   OH276311   0.319   2.357  15.903 -0.0762 -0.1695  0.1449
18299TIP3    H176312   0.361   2.349  15.988  2.6764 -1.6187 -1.2318
18299TIP3    H276313   0.324   2.450  15.882  0.7054 -0.0388  0.8655
18300TIP3   OH276314   1.025   3.050   4.766  0.1051  0.5841  0.0576
18300TIP3    H176315   0.933   3.034   4.742  0.2671  1.3912 -1.2124
18300TIP3    H276316   1.061   3.098   4.691  1.8430 -0.5669  0.0932
18301TIP3   OH276317   1.549   4.692  12.569  0.0569 -0.3794  0.4281
18301TIP3    H176318   1.629   4.641  12.581  0.1815 -0.6436 -1.2678
18301TIP3    H276319   1.515   4.705  12.658  3.0131  1.4716  1.4704
18302TIP3   OH276320   0.373   6.436   4.759  0.7297  0.2627 -0.3799
18302TIP3    H176321   0.306   6.505   4.758  0.6418  0.3280  2.2769
18302TIP3    H276322   0.448   6.476   4.804  1.0547 -1.0561  0.3066
18303TIP3   OH276323   0.652   5.887  15.419  0.5878  0.7251  0.1093
18303TIP3    H176324   0.608   5.971  15.406  1.0125  0.7906 -1.0792
18303TIP3    H276325   0.714   5.882  15.347  0.2135 -0.8422 -0.1391
18304TIP3   OH276326   4.927   0.314  14.249  0.3714 -0.3642  0.1531
18304TIP3    H176327   4.993   0.246  14.261  1.3013  0.0374 -2.1468
18304TIP3    H276328   4.934   0.338  14.157 -1.3380  1.4207  0.4225
18305TIP3   OH276329   1.908   2.057  14.440 -0.1770 -0.5321 -0.1169
18305TIP3    H176330   1.987   2.050  14.494 -0.3929  1.5072  0.5675
18305TIP3    H276331   1.862   1.975  14.454  1.3906 -1.4083  0.1607
18306TIP3   OH276332   4.459   4.807   5.020  0.0970 -0.0894  0.0340
18306TIP3    H176333   4.399   4.839   4.952  1.2821  1.6857 -0.2432
18306TIP3    H276334   4.528   4.762   4.972  0.6423  0.6748  0.0956
18307TIP3   OH276335   5.334   1.319   3.858  0.1552 -0.4471  0.1243
18307TIP3    H176336   5.399   1.289   3.794  0.0962  1.5656 -0.9370
18307TIP3    H276337   5.250   1.293   3.821  0.1198  0.7312 -0.6701
18308TIP3   OH276338   2.770   1.162  11.696 -0.2603  0.1670  0.0494
18308TIP3    H176339   2.720   1.083  11.676  2.3815 -1.1870 -1.6762
18308TIP3    H276340   2.739   1.226  11.631  1.3685 -1.2239 -2.2494
18309TIP3   OH276341   2.810   5.862   4.226  0.0488 -0.1811 -0.4655
18309TIP3    H176342   2.861   5.937   4.257  1.8027 -1.6864  0.4565
18309TIP3    H276343   2.719   5.891   4.232  0.6529  1.7539  0.1426
18310TIP3   OH276344   3.734   0.621   0.949  0.1228  0.5079 -0.2612
18310TIP3    H176345   3.755   0.529   0.965  0.8076  0.7433  0.1940
18310TIP3    H276346   3.660   0.617   0.888 -0.2202 -0.3496  0.1822
18311TIP3   OH276347   5.714   4.039   1.581  0.4900  0.3348  0.0607
18311TIP3    H176348   5.627   4.059   1.614  0.2281  0.6770 -0.7983
18311TIP3    H276349   5.769   4.032   1.659 -0.7019 -1.9793  0.7719
18312TIP3   OH276350   1.370   0.324   0.195 -0.6016  0.4449 -0.1107
18312TIP3    H176351   1.402   0.404   0.235 -0.2422  0.3337 -0.1744
18312TIP3    H276352   1.283   0.347   0.161 -0.5411  0.7754 -0.0446
18313TIP3   OH276353   4.524   4.025  11.559 -0.1141  0.5742  0.1006
18313TIP3    H176354   4.618   4.038  11.574  0.2780 -1.7055 -0.0796
18313TIP3    H276355   4.519   3.985  11.473 -1.4279  2.2537 -0.6474
18314TIP3   OH276356   5.860   3.345  13.072 -0.1164  0.2751  0.2992
18314TIP3    H176357   5.913   3.266  13.077  0.4140  0.6625  0.9314
18314TIP3    H276358   5.787   3.321  13.014 -0.4776 -0.9629  1.2228
18315TIP3   OH276359   5.495   5.609   3.333 -0.1812  0.0603  0.0086
18315TIP3    H176360   5.528   5.638   3.248  1.6057  1.3729  1.0885
18315TIP3    H276361   5.403   5.635   3.333  0.2199  1.5815 -0.8907
18316TIP3   OH276362   0.367   1.093   4.217  0.4788  0.1263 -0.3839
18316TIP3    H176363   0.342   1.088   4.124  0.3700  0.3596 -0.3669
18316TIP3    H276364   0.461   1.112   4.215  0.1402  1.9315 -0.4571
18317TIP3   OH276365   3.004   5.164  11.643 -0.2774  0.0199  0.1657
18317TIP3    H176366   3.046   5.130  11.721 -1.2220  1.6919  1.4598
18317TIP3    H276367   3.067   5.227  11.607 -0.4630  0.3766  0.4587
18318TIP3   OH276368   5.651   4.664  12.912 -0.0955  0.2304  0.2066
18318TIP3    H176369   5.584   4.627  12.855 -0.4002  0.1271  0.6277
18318TIP3    H276370   5.612   4.744  12.948 -0.0243  0.1358  0.5028
18319TIP3   OH276371   2.604   4.075  15.986  0.2139  0.0306 -0.0068
18319TIP3    H176372   2.616   4.082  16.081  0.7936  0.7803 -0.1242
18319TIP3    H276373   2.692   4.053  15.953  0.0958  0.1546 -0.4023
18320TIP3   OH276374   2.808   0.735  15.825 -0.3767 -0.6390  0.2658
18320TIP3    H176375   2.715   0.714  15.834 -0.6787  0.7502  0.6949
18320TIP3    H276376   2.810   0.805  15.759  0.1384  0.6968  1.6411
18321TIP3   OH276377   2.338   4.356   5.578 -0.1359  0.2482  0.5531
18321TIP3    H176378   2.367   4.278   5.625  0.3422  0.5032  0.6980
18321TIP3    H276379   2.289   4.406   5.643 -1.3390 -0.4149  0.1714
18322TIP3   OH276380   1.646   0.197   3.386  0.3238  0.6918  0.3399
18322TIP3    H176381   1.654   0.216   3.480  1.1207  1.0014  0.2150
18322TIP3    H276382   1.552   0.204   3.368  0.1965  0.8976  1.0594
18323TIP3   OH276383   5.539   4.773   5.021 -0.0119 -0.3102  0.3635
18323TIP3    H176384   5.631   4.746   5.019  0.4339  1.1078 -1.1471
18323TIP3    H276385   5.501   4.735   4.941  0.0668  1.5063 -0.6003
18324TIP3   OH276386   4.405   2.476  15.141  0.1380  0.0656 -0.1771
18324TIP3    H176387   4.414   2.387  15.108  2.6809  0.2428 -0.1372
18324TIP3    H276388   4.415   2.532  15.064 -3.6135  0.4013 -0.5981
18325TIP3   OH276389   5.041   1.266  11.051  0.2649  0.2890  0.4533
18325TIP3    H176390   5.129   1.235  11.032 -0.0039 -0.8204  0.9502
18325TIP3    H276391   4.983   1.206  11.004 -0.2483  0.3614  0.9825
18326TIP3   OH276392   5.275   2.757  11.063 -0.4289 -0.5378 -0.1209
18326TIP3    H176393   5.366   2.766  11.092 -0.1569  0.1289 -1.1532
18326TIP3    H276394   5.279   2.769  10.968 -1.4823 -1.3689 -0.2835
18327TIP3   OH276395   6.332   6.381   4.069  0.4752 -0.7409 -0.0214
18327TIP3    H176396   6.264   6.438   4.034  1.2952 -0.6208 -1.4941
18327TIP3    H276397   6.302   6.360   4.158 -1.0380 -0.0004 -0.3179
18328TIP3   OH276398   4.300   1.827   1.568  0.3296 -0.2284 -0.5594
18328TIP3    H176399   4.353   1.748   1.579 -0.7029 -0.9322 -0.5857
18328TIP3    H276400   4.292   1.863   1.657 -0.5523 -1.0521 -0.2872
18329TIP3   OH276401   1.326   1.229   4.950  0.1767  0.5344  0.4951
18329TIP3    H176402   1.251   1.249   4.894  0.0508  0.0835  0.4974
18329TIP3    H276403   1.353   1.141   4.924  0.6950  0.6865  0.5087
18330TIP3   OH276404   0.034   0.115  12.564  0.3400  0.6793 -0.1636
18330TIP3    H176405   0.060   0.136  12.474  1.1788 -0.4181 -0.1868
18330TIP3    H276406   0.079   0.033  12.584  1.1403  1.5310  1.6991
18331TIP3   OH276407   6.634   4.530   0.351 -0.5862 -0.6411 -0.2395
18331TIP3    H176408   6.580   4.505   0.426 -4.1105  0.6359 -2.1368
18331TIP3    H276409   6.679   4.450   0.326  0.5535 -1.1547  3.0197
18332TIP3   OH276410   4.761   3.483  11.826 -0.1505 -0.6031  0.5247
18332TIP3    H176411   4.709   3.432  11.764  1.1773 -0.8049 -0.4726
18332TIP3    H276412   4.750   3.573  11.798 -1.1182 -0.4795  1.2336
18333TIP3   OH276413   2.435   0.196   3.561 -0.3117 -0.2799 -0.1147
18333TIP3    H176414   2.421   0.277   3.511  1.8591 -0.4075 -1.0699
18333TIP3    H276415   2.397   0.127   3.507  1.7033 -0.3716 -1.5226
18334TIP3   OH276416   4.229   6.008   4.695  0.2046 -0.9735 -0.5660
18334TIP3    H176417   4.310   5.962   4.677  0.6896 -0.2174 -0.4010
18334TIP3    H276418   4.209   6.055   4.614  0.1936 -0.7821 -0.4537
18335TIP3   OH276419   2.867   1.728  12.367  0.1889  0.6348  0.1092
18335TIP3    H176420   2.944   1.735  12.311  0.5197  1.4986  0.6441
18335TIP3    H276421   2.893   1.667  12.436 -0.2123 -0.4146 -0.6401
18336TIP3   OH276422   4.190   3.736   1.002 -0.0319  0.2751 -0.1378
18336TIP3    H176423   4.102   3.768   0.980  0.0743 -1.2277 -3.3452
18336TIP3    H276424   4.177   3.645   1.026  0.6190  0.1853 -0.1178
18337TIP3   OH276425   4.513   2.101  12.998 -0.7726  0.0543  0.7592
18337TIP3    H176426   4.488   2.023  13.047 -0.2253 -0.2562  0.5539
18337TIP3    H276427   4.431   2.141  12.972 -1.0519 -0.7759  0.3499
18338TIP3   OH276428   4.233   0.147  12.217 -0.6680  0.7564 -0.1634
18338TIP3    H176429   4.278   0.087  12.158 -0.2997 -1.3587  2.0891
18338TIP3    H276430   4.296   0.217  12.234  0.3082 -0.1286 -0.0630
18339TIP3   OH276431   6.562   3.944  12.114  0.1829  0.4181  0.0678
18339TIP3    H176432   6.621   3.960  12.188 -0.6977  1.5896  0.5484
18339TIP3    H276433   6.591   4.005  12.046 -1.0895  1.7945  0.6942
18340TIP3   OH276434   3.455   3.700  14.019 -0.2942 -0.5787 -0.4198
18340TIP3    H176435   3.507   3.670  14.094 -1.7233 -0.2570  0.7458
18340TIP3    H276436   3.515   3.754  13.968  1.1092 -1.9308 -0.2745
18341TIP3   OH276437   1.239   3.789  16.693  0.1845 -0.2510  0.7664
18341TIP3    H176438   1.226   3.768  16.600 -0.0921 -0.9176  0.9463
18341TIP3    H276439   1.332   3.812  16.699  0.7629 -2.3379  0.6902
18342TIP3   OH276440   6.755   5.965   4.047 -0.0746 -0.1768 -0.0159
18342TIP3    H176441   6.773   6.059   4.052 -0.6777 -0.0565 -0.1491
18342TIP3    H276442   6.675   5.953   4.097  0.2531 -0.6924  0.3943
18343TIP3   OH276443   6.310   0.214   5.558  0.9903  0.4561 -0.2245
18343TIP3    H176444   6.387   0.223   5.614 -0.7479 -0.5016  2.4867
18343TIP3    H276445   6.261   0.294   5.572  0.1020 -0.1767  0.3538
18344TIP3   OH276446   6.031   2.096  11.342 -0.0690  0.1199 -0.4726
18344TIP3    H176447   6.104   2.046  11.376 -0.7235 -0.7589 -0.3134
18344TIP3    H276448   5.977   2.116  11.419 -0.4514 -0.0246 -0.6962
18345TIP3   OH276449   6.321   0.045  10.599  0.1107 -0.0108  0.2702
18345TIP3    H176450   6.240   0.070  10.556  0.7022  0.9259 -0.3528
18345TIP3    H276451   6.298   0.033  10.691 -1.1133 -1.7325 -0.2157
18346TIP3   OH276452   5.860   0.123   5.549  0.2981 -0.2026 -0.3372
18346TIP3    H176453   5.869   0.046   5.605  2.2327  0.0546 -0.2312
18346TIP3    H276454   5.801   0.181   5.597  0.9007 -0.5208  0.8190
18347TIP3   OH276455   3.978   3.509   5.999 -0.2011  0.5649 -0.5726
18347TIP3    H176456   3.927   3.444   5.951 -1.0307  0.5362  0.3250
18347TIP3    H276457   4.025   3.459   6.065  0.4626  0.6837 -0.9442
18348TIP3   OH276458   5.616   4.281  14.285 -0.0314 -0.2150  0.2504
18348TIP3    H176459   5.607   4.262  14.192  0.0053 -1.7689  0.5371
18348TIP3    H276460   5.708   4.261  14.305 -0.1149 -0.1781  0.6863
18349TIP3   OH276461   1.512   0.060  10.790 -0.0624  0.2121 -0.4805
18349TIP3    H176462   1.508   0.085  10.698 -0.8264  0.0198 -0.5016
18349TIP3    H276463   1.469  -0.025  10.794 -0.8018  0.6030  0.1764
18350TIP3   OH276464   1.000   1.463   4.144 -0.6215  0.4224 -0.1876
18350TIP3    H176465   1.068   1.500   4.088  1.4681 -0.3888  1.6764
18350TIP3    H276466   0.985   1.375   4.110 -0.8798  0.6654 -0.7069
18351TIP3   OH276467   5.997   1.467  14.639  0.5180  0.0684 -0.1561
18351TIP3    H176468   6.070   1.515  14.599  0.9505  0.5273  1.1571
18351TIP3    H276469   5.928   1.469  14.572  1.5773 -0.0908 -1.2881
18352TIP3   OH276470   5.969   2.484   5.005  0.9759 -0.5930  0.7675
18352TIP3    H176471   5.893   2.436   4.972  0.6402  0.4519 -0.0570
18352TIP3    H276472   5.936   2.573   5.019  2.5220  0.4760 -1.7217
18353TIP3   OH276473   0.381   3.032   2.501 -0.1575  0.1667  0.3271
18353TIP3    H176474   0.403   3.079   2.421 -0.1964 -0.1153  0.1499
18353TIP3    H276475   0.313   3.086   2.543 -1.3213 -0.5043 -0.6461
18354TIP3   OH276476   0.004   0.339   4.776  0.1017  0.0659  0.5531
18354TIP3    H176477  -0.001   0.293   4.692 -0.4492  0.8390  0.1534
18354TIP3    H276478  -0.072   0.397   4.776  0.3271  0.3746  1.4125
18355TIP3   OH276479   6.601   1.210   4.292  0.0868 -0.7573  0.7582
18355TIP3    H176480   6.619   1.141   4.354  0.6466 -1.4780 -0.1829
18355TIP3    H276481   6.667   1.199   4.223 -1.6557 -1.1946 -0.9264
18356TIP3   OH276482   0.795   0.950   3.634  0.0958 -0.2319 -0.3746
18356TIP3    H176483   0.709   0.985   3.609 -0.1550 -0.3768  0.2693
18356TIP3    H276484   0.824   1.006   3.706  0.6700 -0.0128 -0.7711
18357TIP3   OH276485   0.832   0.331   1.790 -0.0792 -0.8903 -0.0857
18357TIP3    H176486   0.809   0.239   1.804  1.1157 -1.2532 -0.4410
18357TIP3    H276487   0.919   0.340   1.829 -0.5402  0.3106  0.7102
18358TIP3   OH276488   2.018   5.783  16.467 -0.0366 -0.3625 -0.0238
18358TIP3    H176489   2.059   5.697  16.458  1.2460  0.2858 -0.9008
18358TIP3    H276490   1.966   5.793  16.387 -0.6533 -0.5547  0.3524
18359TIP3   OH276491   6.431   3.746   1.138 -0.0817  0.5400 -0.2296
18359TIP3    H176492   6.477   3.830   1.126  1.0287  0.3027  1.8772
18359TIP3    H276493   6.479   3.685   1.082  0.7438  0.7883  0.1785
18360TIP3   OH276494   5.696   1.290  10.837  0.2761 -0.1524  0.5614
18360TIP3    H176495   5.679   1.334  10.920  2.7523 -1.2270  1.7713
18360TIP3    H276496   5.646   1.208  10.843  0.0758 -0.0139  0.8011
18361TIP3   OH276497   6.231   5.442  14.208  0.1655 -0.0147  0.0224
18361TIP3    H176498   6.284   5.384  14.264  0.3198 -0.1307 -0.2460
18361TIP3    H276499   6.286   5.461  14.133 -0.1103  0.0006 -0.1781
18362TIP3   OH276500   4.711   2.420  11.458 -0.1560  0.0400  0.1599
18362TIP3    H176501   4.724   2.515  11.452  0.8803 -0.0271  1.0827
18362TIP3    H276502   4.687   2.393  11.369  0.8187  0.9851 -0.4004
18363TIP3   OH276503   4.938   4.753  15.038  0.5172  0.4133 -0.2814
18363TIP3    H176504   4.997   4.727  15.109 -0.9157  1.0261  1.2003
18363TIP3    H276505   4.882   4.677  15.025 -0.0953  0.7722  0.2059
18364TIP3   OH276506   5.327   0.864   5.449  0.1307  0.3375  0.1493
18364TIP3    H176507   5.280   0.790   5.488 -1.0335  1.4801  0.9832
18364TIP3    H276508   5.259   0.927   5.425  1.0993  1.1987 -0.4555
18365TIP3   OH276509   2.092   0.842   0.432  0.1614 -0.6935 -0.1846
18365TIP3    H176510   2.101   0.852   0.337 -0.8682 -0.1870 -0.2498
18365TIP3    H276511   2.031   0.911   0.457 -0.7075 -1.7319  0.6372
18366TIP3   OH276512   2.223   2.203   1.969 -0.3870  0.0154  0.1490
18366TIP3    H176513   2.194   2.145   2.040 -0.8337  0.6395  0.4860
18366TIP3    H276514   2.144   2.225   1.921  0.0036 -0.8907 -0.9257
18367TIP3   OH276515   2.558   5.494   2.588 -0.1691 -0.4519  0.6348
18367TIP3    H176516   2.571   5.568   2.528  1.2812 -1.1866 -0.0061
18367TIP3    H276517   2.644   5.479   2.626 -0.3798 -1.9522  0.5772
18368TIP3   OH276518   5.065   0.049   0.124  0.3149  0.4873  0.5397
18368TIP3    H176519   5.026   0.137   0.127  0.2979  0.5437 -0.7192
18368TIP3    H276520   4.991  -0.009   0.109  0.6752  0.6499 -2.4907
18369TIP3   OH276521   2.679   1.926  13.817 -0.4843  0.1276  0.0502
18369TIP3    H176522   2.651   1.879  13.896  1.3708 -1.2450 -0.0264
18369TIP3    H276523   2.772   1.903  13.808  0.1562  2.7140 -0.8287
18370TIP3   OH276524   3.590   0.504  15.475 -0.2526  0.1860  0.3118
18370TIP3    H176525   3.500   0.509  15.443 -1.5341 -0.3425  3.3998
18370TIP3    H276526   3.597   0.579  15.535 -0.1685 -2.0001  3.2537
18371TIP3   OH276527   5.321   0.789   5.824  0.2737 -0.2985 -0.6176
18371TIP3    H176528   5.242   0.752   5.861  0.3189  0.6780  0.5182
18371TIP3    H276529   5.344   0.730   5.752  1.3190 -3.4832  2.0933
18372TIP3   OH276530   2.632   6.068   3.350 -0.4673  0.2666  0.3124
18372TIP3    H176531   2.650   6.032   3.437 -0.8715 -0.1047  0.2496
18372TIP3    H276532   2.705   6.038   3.296  1.3156  2.8701  1.1411
18373TIP3   OH276533   0.389   6.690  10.472 -0.0883  0.4791 -0.4956
18373TIP3    H176534   0.425   6.633  10.540  0.1659 -0.4122 -1.3517
18373TIP3    H276535   0.463   6.743  10.443  0.0164  0.2182 -0.7062
18374TIP3   OH276536   0.146   1.791   1.488 -0.3408 -0.1928  0.1281
18374TIP3    H176537   0.159   1.715   1.545  0.4797  0.4929  0.8897
18374TIP3    H276538   0.173   1.762   1.402 -0.1376 -0.7968  0.3922
18375TIP3   OH276539   2.681   1.418  16.202  0.1469  0.3548 -0.2836
18375TIP3    H176540   2.604   1.361  16.214  0.3175  0.0301 -0.6801
18375TIP3    H276541   2.708   1.442  16.291 -0.7096  0.8791 -0.1540
18376TIP3   OH276542   0.756   0.426  16.535  0.2697  0.1820 -0.0381
18376TIP3    H176543   0.728   0.380  16.456 -3.3705  0.0960  1.0955
18376TIP3    H276544   0.752   0.518  16.512  1.2419  0.1300 -0.4785
18377TIP3   OH276545   0.915   1.273  11.005 -0.0617  0.4189 -0.4644
18377TIP3    H176546   0.940   1.184  11.029 -1.4763  0.1180 -0.0309
18377TIP3    H276547   0.987   1.304  10.950  0.1243 -1.2265 -1.2040
18378TIP3   OH276548   5.112   1.615   0.378 -0.4682 -0.3537 -0.1576
18378TIP3    H176549   5.056   1.563   0.435 -0.2893  0.3448  0.6870
18378TIP3    H276550   5.069   1.701   0.374  0.6516  0.2764  0.7285
18379TIP3   OH276551   1.374   2.668   5.930 -0.2082 -0.0766  0.4644
18379TIP3    H176552   1.333   2.591   5.890 -1.0331  0.5776  0.0076
18379TIP3    H276553   1.419   2.634   6.007 -1.2332 -0.9033  0.7211
18380TIP3   OH276554   4.779   6.407   2.552  0.1066  0.2348 -0.0474
18380TIP3    H176555   4.696   6.440   2.519  0.2725  1.7187  0.8980
18380TIP3    H276556   4.845   6.445   2.495  0.2794  1.2820  0.8259
18381TIP3   OH276557   2.080   3.556   6.027  0.0011 -0.1482  0.2500
18381TIP3    H176558   1.984   3.557   6.020  0.1111  0.0638 -1.9947
18381TIP3    H276559   2.098   3.595   6.113 -1.9152 -0.1275  0.6899
18382TIP3   OH276560   6.340   0.667  12.823  0.1484 -0.1208 -0.6503
18382TIP3    H176561   6.396   0.590  12.830 -0.3470 -0.4256  0.1549
18382TIP3    H276562   6.283   0.663  12.900  0.9168  1.6884  0.0867
18383TIP3   OH276563   6.495   1.581  11.520 -0.4991  0.4046  0.6781
18383TIP3    H176564   6.477   1.491  11.545 -0.4369  0.5701  1.3285
18383TIP3    H276565   6.590   1.590  11.529 -0.0603 -0.2775 -2.1222
18384TIP3   OH276566   6.724   5.708   5.942 -0.2250  0.6386 -0.1561
18384TIP3    H176567   6.675   5.773   5.993  1.8009  0.8723  1.6555
18384TIP3    H276568   6.662   5.677   5.876 -2.9119  0.6821  2.1508
18385TIP3   OH276569   2.270   0.136  12.725  0.1980  0.5797  0.5261
18385TIP3    H176570   2.345   0.082  12.699  0.5583  0.9508  0.7814
18385TIP3    H276571   2.243   0.178  12.644 -0.2502 -0.1811  0.2735
18386TIP3   OH276572   4.901   4.751  12.332 -0.1879  0.0286  0.1316
18386TIP3    H176573   4.880   4.751  12.238  1.2110 -0.2763 -0.2000
18386TIP3    H276574   4.963   4.823  12.342 -1.9388  1.4560  1.2386
18387TIP3   OH276575   5.127   4.955  11.740 -0.2096  0.3793 -0.2810
18387TIP3    H176576   5.173   4.873  11.761  0.0191  0.3627 -0.8356
18387TIP3    H276577   5.174   4.990  11.665 -1.1199  0.3545 -0.8691
18388TIP3   OH276578   5.312   2.734  15.961 -0.0181  0.1724 -0.0150
18388TIP3    H176579   5.260   2.675  15.906 -2.9898  1.1499  1.4997
18388TIP3    H276580   5.348   2.678  16.029  1.2800 -0.5722 -1.2456
18389TIP3   OH276581   2.326   4.144   4.932 -0.1296  0.3736 -0.6222
18389TIP3    H176582   2.240   4.162   4.971 -0.2285  0.8707 -1.0562
18389TIP3    H276583   2.389   4.172   4.998 -0.2968  1.1924 -0.7964
18390TIP3   OH276584   4.911   0.262   2.771  0.4404 -0.1104 -0.1272
18390TIP3    H176585   4.990   0.284   2.821  0.1766 -0.9657  0.6692
18390TIP3    H276586   4.858   0.210   2.830 -0.2438 -0.4630 -1.0261
18391TIP3   OH276587   4.084   4.454   2.847  0.2267 -0.3342  0.1318
18391TIP3    H176588   4.169   4.428   2.881 -0.1224 -0.8404  0.6168
18391TIP3    H276589   4.068   4.394   2.774  1.3470  1.2548 -1.5522
18392TIP3   OH276590   0.776   6.571  16.661  0.8214 -0.0120 -0.3008
18392TIP3    H176591   0.775   6.667  16.657 -0.7069 -0.0115 -0.2655
18392TIP3    H276592   0.735   6.544  16.579 -0.4894 -0.5841  0.5080
18393TIP3   OH276593   6.499   3.643   2.578  0.2205  0.0262 -0.1082
18393TIP3    H176594   6.587   3.640   2.616  0.3844 -1.4455 -0.5576
18393TIP3    H276595   6.449   3.578   2.628 -0.8428  1.3405  0.6225
18394TIP3   OH276596   1.643   5.292  14.500  0.0425  0.2471 -0.0588
18394TIP3    H176597   1.575   5.258  14.442  1.5400 -0.3237 -1.5789
18394TIP3    H276598   1.682   5.214  14.538 -0.4530  0.5943  1.1963
18395TIP3   OH276599   5.060   4.814   5.729  0.3419  0.0418  0.0160
18395TIP3    H176600   5.014   4.764   5.797  0.1365 -0.1265 -0.2466
18395TIP3    H276601   4.993   4.833   5.664  0.0578  1.9353  0.7975
18396TIP3   OH276602   6.216   3.418   0.776  0.1909 -0.1424 -0.2828
18396TIP3    H176603   6.304   3.404   0.811  0.0181  1.4605  0.8816
18396TIP3    H276604   6.221   3.502   0.731 -0.7519  0.0153 -0.1172
18397TIP3   OH276605   0.088   0.839   2.377 -0.0553 -0.4319  0.0829
18397TIP3    H176606   0.047   0.913   2.333  1.6486  1.1203  1.0109
18397TIP3    H276607   0.137   0.794   2.307  0.8238  0.7245 -0.0766
18398TIP3   OH276608   3.566   4.585   4.533  0.5842  0.1252  0.0659
18398TIP3    H176609   3.551   4.592   4.439  0.1405  1.9179  0.2443
18398TIP3    H276610   3.593   4.673   4.560 -1.7466  0.3292  2.0302
18399TIP3   OH276611   6.491   3.026   0.779 -0.6955 -0.3495 -0.2727
18399TIP3    H176612   6.512   3.062   0.693 -3.1017  1.6895 -0.1228
18399TIP3    H276613   6.447   2.943   0.760 -1.9368  0.4600 -1.1186
18400TIP3   OH276614   2.796   2.327  11.909  0.0783  0.1117  0.8670
18400TIP3    H176615   2.772   2.383  11.835 -0.2281  0.6317  1.3531
18400TIP3    H276616   2.876   2.282  11.880  0.0043  0.3639  0.2524
18401TIP3   OH276617   2.152   4.299   3.335 -0.0526  0.2107 -0.2323
18401TIP3    H176618   2.198   4.316   3.418  0.6251  0.1303 -0.5836
18401TIP3    H276619   2.144   4.385   3.294 -0.7700  0.3117  0.1034
18402TIP3   OH276620   5.901   5.599  16.872 -0.0899  0.0086 -0.1729
18402TIP3    H176621   5.880   5.529  16.810 -0.0803  0.5105 -0.7620
18402TIP3    H276622   5.819   5.648  16.881 -0.1555 -0.2060  0.4058
18403TIP3   OH276623   3.221   1.266   0.849 -0.7996  0.3392  0.5014
18403TIP3    H176624   3.309   1.265   0.812 -0.6014  0.1864  0.9748
18403TIP3    H276625   3.204   1.358   0.870 -0.6586  0.3341  0.6354
18404TIP3   OH276626   6.207   3.263  16.720 -0.2037 -0.1881 -0.0715
18404TIP3    H176627   6.266   3.256  16.645  0.3646 -0.8361  0.4149
18404TIP3    H276628   6.138   3.200  16.703 -0.1338 -0.2571 -0.0996
18405TIP3   OH276629   4.017   3.489  12.588 -0.1514 -0.1807  0.6254
18405TIP3    H176630   4.002   3.407  12.635 -0.2040 -0.4619  0.1184
18405TIP3    H276631   3.961   3.553  12.633 -1.2189 -0.7374  0.1148
18406TIP3   OH276632   3.420   2.373   2.097  0.2094 -0.2954 -0.1516
18406TIP3    H176633   3.352   2.440   2.101  0.3253 -0.2101  1.7938
18406TIP3    H276634   3.462   2.386   2.012  0.1883  2.0842  0.1238
18407TIP3   OH276635   0.146   6.513   0.986 -0.0194 -0.2251  0.1907
18407TIP3    H176636   0.232   6.539   0.952  0.2186  1.0951  1.6571
18407TIP3    H276637   0.084   6.549   0.923  0.4261  1.6344  0.7348
18408TIP3   OH276638   3.728   0.993  15.566  0.1599  0.0773  0.2506
18408TIP3    H176639   3.774   0.909  15.561 -1.8360 -1.1251  0.6016
18408TIP3    H276640   3.693   0.995  15.655 -1.0178  0.5865 -0.2056
18409TIP3   OH276641   0.426   3.015  13.071  0.3479  0.5347 -0.3527
18409TIP3    H176642   0.347   2.983  13.028  0.1148  0.1693  0.3218
18409TIP3    H276643   0.411   2.996  13.164  0.5177  1.9677 -0.0139
18410TIP3   OH276644   3.445   0.169   2.832  0.2181 -0.0739  0.3010
18410TIP3    H176645   3.384   0.242   2.841  0.3920  0.0380  0.5968
18410TIP3    H276646   3.526   0.201   2.873  0.2984 -0.4295  0.4174
18411TIP3   OH276647   1.776   5.833   4.182 -0.1592  0.3605  0.1032
18411TIP3    H176648   1.779   5.752   4.131 -0.1522  1.5346 -1.8896
18411TIP3    H276649   1.852   5.883   4.153 -0.1650  1.0877  1.2810
18412TIP3   OH276650   3.439   3.696   3.614  0.3492 -0.3333 -0.4717
18412TIP3    H176651   3.346   3.699   3.594  0.2709 -3.4581 -0.9666
18412TIP3    H276652   3.482   3.716   3.530  0.1445  0.1212 -0.4728
18413TIP3   OH276653   4.193   6.089   0.581  0.0093  0.1832  0.3826
18413TIP3    H176654   4.123   6.112   0.521  0.5643  2.2826  0.4624
18413TIP3    H276655   4.150   6.038   0.650 -1.1260  0.1218 -0.3505
18414TIP3   OH276656   2.590   3.466   3.692  0.1727  0.2137  0.4680
18414TIP3    H176657   2.617   3.432   3.778  0.6067  1.5388  0.8787
18414TIP3    H276658   2.649   3.422   3.630  0.4721 -0.0639  0.9358
18415TIP3   OH276659   1.478   3.495  13.221  0.2005  0.0394  0.0082
18415TIP3    H176660   1.441   3.444  13.148 -1.8576 -0.4539  1.3100
18415TIP3    H276661   1.530   3.564  13.178 -1.5877  0.2652 -1.9736
18416TIP3   OH276662   2.083   5.798   1.424 -0.1386 -0.3627  0.0338
18416TIP3    H176663   2.061   5.820   1.333  0.9109 -0.7950 -0.3429
18416TIP3    H276664   2.103   5.704   1.422 -0.9035 -0.5502  0.8763
18417TIP3   OH276665   4.667   3.426   3.739  0.6885 -0.0465 -0.3022
18417TIP3    H176666   4.692   3.334   3.748  0.5105  0.1077  2.5286
18417TIP3    H276667   4.693   3.449   3.650 -0.6239 -3.2202 -1.6656
18418TIP3   OH276668   0.582   2.583  16.852  0.5946 -0.1223 -0.5525
18418TIP3    H176669   0.564   2.588  16.946 -0.6652 -0.2140 -0.7690
18418TIP3    H276670   0.676   2.566  16.847  0.6076 -0.5842  0.7031
18419TIP3   OH276671   6.097   3.012  11.385  0.1727  0.0325 -0.1393
18419TIP3    H176672   6.113   3.097  11.343 -0.0192  0.2683  0.2671
18419TIP3    H276673   6.179   2.992  11.430 -0.2549  0.6916  0.9714
18420TIP3   OH276674   5.213   0.058  15.906  0.0881 -0.3486 -0.4923
18420TIP3    H176675   5.157  -0.012  15.939  0.2012 -0.0439  0.3789
18420TIP3    H276676   5.293   0.051  15.958  1.5232 -1.7426 -2.7287
18421TIP3   OH276677   1.042   2.060  12.352 -0.2288  0.0493 -0.0397
18421TIP3    H176678   1.103   1.989  12.334  0.2938 -0.1057  2.0875
18421TIP3    H276679   0.957   2.017  12.361  0.1443 -0.4257  1.6224
18422TIP3   OH276680   5.423   4.474  15.112  0.3404 -0.3469  0.4185
18422TIP3    H176681   5.392   4.500  15.026  0.9233  0.0370  0.3173
18422TIP3    H276682   5.399   4.381  15.120 -1.5626  0.1245  0.6940
18423TIP3   OH276683   0.225   4.539  17.137 -0.4587  0.4572  0.5758
18423TIP3    H176684   0.297   4.516  17.078 -1.3647  1.7844 -1.1440
18423TIP3    H276685   0.256   4.513  17.224  2.3432  1.4925  0.0044
18424TIP3   OH276686   6.327   3.766  16.672 -0.3836  0.0857  0.0211
18424TIP3    H176687   6.280   3.830  16.726  0.0465  0.2653  0.1923
18424TIP3    H276688   6.377   3.820  16.610 -0.7418 -0.1142 -0.4480
18425TIP3   OH276689   3.134   4.483   5.166 -0.9045 -0.2203 -0.3189
18425TIP3    H176690   3.099   4.543   5.100  0.0657 -0.1453 -0.7870
18425TIP3    H276691   3.229   4.490   5.156 -0.6760  0.8090  2.0096
18426TIP3   OH276692   0.491   6.016   0.884  0.2044 -0.0269  0.2042
18426TIP3    H176693   0.398   6.020   0.864  0.5224  0.5211 -1.2915
18426TIP3    H276694   0.498   5.950   0.953 -1.1352 -1.1086 -0.6419
18427TIP3   OH276695   3.048   4.225   3.746 -0.3875  0.1685  0.2403
18427TIP3    H176696   3.028   4.146   3.796 -1.3713 -1.6088 -2.7533
18427TIP3    H276697   3.024   4.204   3.656  1.7421  2.9978 -1.1601
18428TIP3   OH276698   4.215   4.223  11.286  0.1679  0.8117  0.4574
18428TIP3    H176699   4.301   4.201  11.252  0.8907  1.6014  1.7015
18428TIP3    H276700   4.155   4.162  11.243  1.3642  0.1451 -0.2924
18429TIP3   OH276701   4.523   0.443  14.904  0.2091 -0.2752  0.0901
18429TIP3    H176702   4.550   0.471  14.991  2.2525 -2.4288  0.2580
18429TIP3    H276703   4.600   0.459  14.849 -0.9250  0.7089 -1.2894
18430TIP3   OH276704   0.128   1.780  10.485  0.5966 -0.0168 -0.1579
18430TIP3    H176705   0.178   1.715  10.536 -0.9779 -0.3800  0.9978
18430TIP3    H276706   0.146   1.863  10.529 -0.1188 -0.2120  0.5329
18431TIP3   OH276707   5.344   2.072   1.648  0.3380  0.3925  0.0217
18431TIP3    H176708   5.411   2.115   1.596  0.9981  1.8279  1.9652
18431TIP3    H276709   5.334   1.985   1.608  0.2610  1.6449 -2.9018
18432TIP3   OH276710   1.156   3.539   2.549  0.3387  0.4376  0.4900
18432TIP3    H176711   1.218   3.513   2.617  1.5242  1.5684 -0.1044
18432TIP3    H276712   1.143   3.461   2.496  0.3015 -0.1391  1.3443
18433TIP3   OH276713   3.410   1.209   1.100 -0.1890  0.4722  0.0711
18433TIP3    H176714   3.433   1.204   1.007 -0.6625  0.4652 -0.0484
18433TIP3    H276715   3.371   1.296   1.110 -1.6322 -0.1301 -0.0898
18434TIP3   OH276716   0.164   5.182  12.377 -0.2380  0.0700  0.3215
18434TIP3    H176717   0.256   5.208  12.381 -0.1580  0.4389 -2.5046
18434TIP3    H276718   0.166   5.086  12.378  0.0844  0.0724  1.0607
18435TIP3   OH276719   2.986   2.582   0.586  0.1089  0.0615  0.4001
18435TIP3    H176720   2.939   2.646   0.532 -0.0597 -0.0058  0.4664
18435TIP3    H276721   3.041   2.635   0.643  1.4241  0.0957 -0.8605
18436TIP3   OH276722   3.794   3.485  10.424  0.4166 -1.2203  0.0186
18436TIP3    H176723   3.798   3.581  10.431  3.2120 -1.3644  3.8071
18436TIP3    H276724   3.713   3.462  10.469 -0.8557 -0.7187 -1.8813
18437TIP3   OH276725   4.522   0.070   5.704 -0.1378 -0.1325  0.2312
18437TIP3    H176726   4.428   0.052   5.707 -0.1899  0.1321  0.2253
18437TIP3    H276727   4.535   0.109   5.617  0.0665 -0.6644  0.0186
18438TIP3   OH276728   3.227   4.098   3.540  0.9643  0.3885  0.1992
18438TIP3    H176729   3.316   4.133   3.538  1.1171 -0.0066  0.0353
18438TIP3    H276730   3.175   4.168   3.581  1.6672 -0.0926  2.0127
18439TIP3   OH276731   3.584   1.316  11.691 -0.5758  0.1651  0.6154
18439TIP3    H176732   3.520   1.312  11.761 -1.0336  0.8337  0.2452
18439TIP3    H276733   3.622   1.404  11.697 -0.6470  0.2463  0.0144
18440TIP3   OH276734   3.409   0.455   3.491  0.1559  0.2666 -0.1997
18440TIP3    H176735   3.372   0.378   3.533  1.2262 -0.2986 -0.2700
18440TIP3    H276736   3.482   0.481   3.547  0.1098  0.9407 -0.4368
18441TIP3   OH276737   5.581   5.389   5.148 -0.6755  0.1229 -0.1488
18441TIP3    H176738   5.511   5.453   5.139  0.3435  1.0141 -2.4185
18441TIP3    H276739   5.546   5.323   5.208 -2.9121  1.2052 -0.1809
18442TIP3   OH276740   1.964   5.354   1.259  0.6721  0.1987  0.1496
18442TIP3    H176741   1.891   5.390   1.210  0.3605 -0.6763 -0.0523
18442TIP3    H276742   2.038   5.355   1.198  0.4970 -0.1092 -0.0702
18443TIP3   OH276743   3.943   0.151   4.188  0.0895  0.6014  0.8396
18443TIP3    H176744   4.036   0.128   4.188 -0.1865 -0.5485  1.0647
18443TIP3    H276745   3.897   0.068   4.177 -0.9340  1.0949  1.2443
18444TIP3   OH276746   0.421   6.606   1.265 -0.3057 -0.4792  0.0048
18444TIP3    H176747   0.343   6.614   1.319  0.2949 -0.4179  0.8790
18444TIP3    H276748   0.494   6.625   1.324  0.3400  0.0963 -0.9445
18445TIP3   OH276749   0.925   6.087   1.771  0.1888 -0.7021 -0.3568
18445TIP3    H176750   0.975   6.168   1.771 -0.7619 -0.0971  0.2207
18445TIP3    H276751   0.962   6.036   1.698  1.7614 -0.3809  0.1839
18446TIP3   OH276752   4.358   0.824   2.311  0.4244  0.1995 -0.4157
18446TIP3    H176753   4.361   0.761   2.383  3.1334 -0.8731 -1.3655
18446TIP3    H276754   4.265   0.829   2.288  0.0010 -2.9876  0.1253
18447TIP3   OH276755   3.914   6.519  17.010  0.4562 -0.1017  0.2355
18447TIP3    H176756   3.967   6.598  17.010 -1.1262  1.0189 -0.0069
18447TIP3    H276757   3.864   6.523  17.092  0.2558 -0.7647  0.1541
18448TIP3   OH276758   3.223   4.852  13.325  0.1343 -0.3621 -0.4136
18448TIP3    H176759   3.275   4.772  13.332  1.0265  0.0401 -1.8935
18448TIP3    H276760   3.241   4.900  13.406 -2.2196 -2.5995  1.6192
18449TIP3   OH276761   4.278   2.074   2.364 -0.0431  0.0092  0.0459
18449TIP3    H176762   4.234   2.104   2.285  1.4353 -0.1534 -0.8869
18449TIP3    H276763   4.336   2.147   2.388  0.1956 -0.3057  0.4348
18450TIP3   OH276764   6.353   5.566   3.131  0.4352  0.7463 -0.1791
18450TIP3    H176765   6.339   5.471   3.131 -3.3651  1.1375 -0.3704
18450TIP3    H276766   6.414   5.582   3.059 -1.5990 -1.3453 -2.5659
18451TIP3   OH276767   5.987   6.315  12.356  0.0052  0.0227  0.8350
18451TIP3    H176768   6.008   6.343  12.267  1.1635  0.2171  1.1560
18451TIP3    H276769   5.893   6.331  12.364  0.1069  1.1636  0.0477
18452TIP3   OH276770   5.976   4.449   5.074  0.7300 -0.0081  0.1524
18452TIP3    H176771   5.975   4.386   5.002  0.7159 -0.3933  0.4830
18452TIP3    H276772   5.955   4.396   5.151 -0.4659  0.6137  0.2689
18453TIP3   OH276773   3.166   6.198  14.680  0.2666 -0.0452 -0.0753
18453TIP3    H176774   3.229   6.195  14.608  0.4782  0.0773  0.1040
18453TIP3    H276775   3.198   6.268  14.736 -0.4543  0.5368 -0.3768
18454TIP3   OH276776   6.427   3.465  14.371 -0.5673 -0.3339  0.0751
18454TIP3    H176777   6.356   3.409  14.402 -0.6280  0.0711  0.6842
18454TIP3    H276778   6.410   3.550  14.411  0.3007 -0.2536  0.2884
18455TIP3   OH276779   2.815   1.009  14.315  0.2444  0.0811 -0.0287
18455TIP3    H176780   2.889   0.952  14.294  1.5603  1.2264  1.2911
18455TIP3    H276781   2.800   1.060  14.235 -0.0745 -1.1246 -0.7667
18456TIP3   OH276782   4.191   2.785  12.122  0.4895 -0.4708 -0.2971
18456TIP3    H176783   4.123   2.734  12.165  2.0891 -1.3739  1.3015
18456TIP3    H276784   4.273   2.747  12.153  1.7424  1.2905 -1.2583
18457TIP3   OH276785   4.286   2.708  15.957  0.2481  0.3213 -0.1095
18457TIP3    H176786   4.243   2.793  15.964  3.1323  1.8394  1.2084
18457TIP3    H276787   4.315   2.702  15.866  1.3915  1.5474  0.1481
18458TIP3   OH276788   2.253   3.377   0.801  0.4546  0.7770 -0.2060
18458TIP3    H176789   2.227   3.385   0.710  2.3466  0.5542 -0.8249
18458TIP3    H276790   2.348   3.394   0.800  0.4381  1.2328  1.7800
18459TIP3   OH276791   5.078   4.941   1.225 -0.0531  0.4409 -0.3371
18459TIP3    H176792   5.169   4.912   1.226 -0.1487  0.1299  0.2681
18459TIP3    H276793   5.028   4.860   1.236 -0.3452  0.7578  0.8985
18460TIP3   OH276794   4.052   4.503   3.970  0.4608  0.1308 -0.1936
18460TIP3    H176795   4.139   4.466   3.964  0.1619 -0.7599  0.7643
18460TIP3    H276796   4.061   4.575   4.032  0.5360  0.1141 -0.1855
18461TIP3   OH276797   0.546   0.367  13.465  1.1644 -0.0638 -0.2735
18461TIP3    H176798   0.530   0.461  13.462 -1.8389 -0.4518 -0.0477
18461TIP3    H276799   0.599   0.349  13.388  0.2333  1.6123 -1.3792
18462TIP3   OH276800   2.950   6.518   2.004 -0.3775 -0.1129  0.0393
18462TIP3    H176801   2.885   6.562   1.949 -1.2306  0.4458  1.4563
18462TIP3    H276802   3.015   6.586   2.024 -0.7880  0.0594  0.8189
18463TIP3   OH276803   6.772   0.371  13.741  0.5173 -0.3369 -0.4481
18463TIP3    H176804   6.799   0.324  13.662  3.1223  0.4365 -0.1074
18463TIP3    H276805   6.691   0.327  13.769  0.7471 -2.0556 -2.2881
18464TIP3   OH276806   4.507   5.321   3.466  0.3640 -0.4021 -0.0635
18464TIP3    H176807   4.528   5.256   3.399  0.3197  0.0900 -0.5525
18464TIP3    H276808   4.581   5.382   3.464  0.3955 -0.4208  0.3855
18465TIP3   OH276809   5.617   5.123   5.053 -0.3083  0.3504  0.4015
18465TIP3    H176810   5.556   5.196   5.064  1.7283  2.4983 -1.4190
18465TIP3    H276811   5.662   5.116   5.137 -0.2469  1.5388  0.4917
18466TIP3   OH276812   4.313   5.516  13.762  0.5763  0.2186  0.0673
18466TIP3    H176813   4.246   5.583  13.775  1.7575  1.5841 -0.5792
18466TIP3    H276814   4.340   5.526  13.671  2.0470  0.1037  0.4566
18467TIP3   OH276815   5.213   2.310  13.882  0.5581  0.2536 -0.2627
18467TIP3    H176816   5.150   2.373  13.849 -1.2599 -0.4666  1.5897
18467TIP3    H276817   5.170   2.270  13.958  2.4980 -1.6489 -0.0446
18468TIP3   OH276818   6.581   0.989   4.446 -0.1113  0.1247  0.1343
18468TIP3    H176819   6.597   0.912   4.500  0.5955 -0.5604 -1.0026
18468TIP3    H276820   6.496   1.022   4.476  0.7127  0.4208  2.3585
18469TIP3   OH276821   1.522   4.091   2.551  0.3909 -0.5319  0.2814
18469TIP3    H176822   1.509   4.035   2.474  1.0799  0.8005 -0.8569
18469TIP3    H276823   1.483   4.042   2.623 -2.3709 -0.8539 -1.2786
18470TIP3   OH276824   6.368   6.309  13.922 -0.4415 -0.4104 -0.1801
18470TIP3    H176825   6.449   6.297  13.872 -0.0857  0.0382  0.2836
18470TIP3    H276826   6.352   6.403  13.920 -0.5040 -0.4054  0.4361
18471TIP3   OH276827   4.266   3.885  14.256 -0.8464  0.9479  0.2526
18471TIP3    H176828   4.330   3.821  14.225 -3.0344 -1.6211  0.6145
18471TIP3    H276829   4.318   3.961  14.281  1.8227 -0.2352 -1.2393
18472TIP3   OH276830   4.410   1.975   5.307  0.1023 -0.6698  0.7578
18472TIP3    H176831   4.503   1.989   5.288 -0.4706  0.2761 -1.6712
18472TIP3    H276832   4.397   1.881   5.291  0.7126 -0.9376  1.6928
18473TIP3   OH276833   6.114   3.738   0.036  0.4099  0.1837 -0.1093
18473TIP3    H176834   6.037   3.751   0.091  0.9898 -0.6049  0.8980
18473TIP3    H276835   6.110   3.810  -0.028 -1.5725 -0.2879 -0.5755
18474TIP3   OH276836   0.967   1.113  15.897 -0.4652 -0.8265  0.6073
18474TIP3    H176837   1.027   1.145  15.965  1.5982 -2.6735 -0.2370
18474TIP3    H276838   0.943   1.192  15.849  0.9147  0.0505  1.2705
18475TIP3   OH276839   2.731   3.198   0.433  0.2196 -0.1800  0.1207
18475TIP3    H176840   2.671   3.135   0.472 -0.7692  1.1172  0.7535
18475TIP3    H276841   2.811   3.191   0.486 -0.0167 -0.6287  0.4198
18476TIP3   OH276842   1.735   2.417  13.390  0.0378 -0.3654  0.4259
18476TIP3    H176843   1.758   2.430  13.298 -0.1114  0.5655  0.5023
18476TIP3    H276844   1.685   2.336  13.391  1.4522 -1.2842 -0.0558
18477TIP3   OH276845   2.207   2.341  15.480 -0.1610  0.7012  0.4503
18477TIP3    H176846   2.130   2.355  15.534  0.1197 -0.1713  1.1002
18477TIP3    H276847   2.220   2.246  15.481  1.6727  0.9100  1.4649
18478TIP3   OH276848   1.372   1.849  14.249 -0.6579  0.1109  0.5745
18478TIP3    H176849   1.364   1.833  14.344 -0.2300 -0.1255  0.5753
18478TIP3    H276850   1.428   1.926  14.242 -1.2027  0.5087  0.5233
18479TIP3   OH276851   2.695   1.397   3.484  0.1950 -0.1385  0.6034
18479TIP3    H176852   2.788   1.391   3.506 -0.1942  0.6886  2.7640
18479TIP3    H276853   2.689   1.470   3.423  1.1105 -1.1774 -0.7823
18480TIP3   OH276854   0.216   1.087   2.516 -0.4417  0.0950  0.4547
18480TIP3    H176855   0.121   1.073   2.525 -0.5895  0.5161 -0.3708
18480TIP3    H276856   0.250   1.077   2.605 -1.1020 -1.1941  0.5739
18481TIP3   OH276857   4.443   6.635  11.685 -0.8050  0.1734  0.1592
18481TIP3    H176858   4.484   6.552  11.708 -1.7518 -0.0734  1.0604
18481TIP3    H276859   4.506   6.679  11.628  0.1039 -0.7569  0.4269
18482TIP3   OH276860   0.339   2.386   6.111  0.0085  0.2855  0.3394
18482TIP3    H176861   0.404   2.445   6.150 -0.0229 -0.1616  1.0814
18482TIP3    H276862   0.376   2.298   6.124 -1.7854 -0.2021  2.9475
18483TIP3   OH276863   4.666   6.335   2.957 -0.0979 -0.2069 -0.3386
18483TIP3    H176864   4.749   6.381   2.963  1.4636 -2.9491  2.6239
18483TIP3    H276865   4.679   6.270   2.887 -0.1794  0.1014 -0.6409
18484TIP3   OH276866   6.650   5.582  15.783  0.0164  0.6200 -0.1609
18484TIP3    H176867   6.661   5.490  15.806 -1.2075  0.7845  1.2799
18484TIP3    H276868   6.737   5.620  15.792  0.5681 -0.4085 -0.9507
18485TIP3   OH276869   5.597   4.901   6.939 -0.4344 -0.3812 -0.2015
18485TIP3    H176870   5.502   4.890   6.948 -0.7249  0.9447 -1.3520
18485TIP3    H276871   5.628   4.815   6.909 -1.3172 -0.7084 -0.2212
18486TIP3   OH276872   2.534   5.212   4.779 -0.3040  0.0840 -0.3874
18486TIP3    H176873   2.483   5.261   4.844  2.2420 -0.0749  1.9180
18486TIP3    H276874   2.552   5.275   4.709 -0.2950  1.3073  0.6832
18487TIP3   OH276875   2.184   4.743  14.788  0.4598 -0.0386  0.0404
18487TIP3    H176876   2.104   4.769  14.833 -0.4839 -2.3478 -0.1663
18487TIP3    H276877   2.174   4.774  14.698 -0.7484 -1.2359 -0.2706
18488TIP3   OH276878   3.113   4.503   3.605  0.5053  0.5444  0.0878
18488TIP3    H176879   3.035   4.556   3.621 -0.4668 -1.1303  1.2068
18488TIP3    H276880   3.079   4.422   3.565  1.3870 -0.9922  2.2881
18489TIP3   OH276881   6.746   6.252   0.238 -0.1587 -0.3471  0.3371
18489TIP3    H176882   6.801   6.310   0.185 -0.6910  0.1177  0.2919
18489TIP3    H276883   6.676   6.308   0.271 -0.9915 -1.0764 -0.1519
18490TIP3   OH276884   0.234   2.728   2.589 -0.6362 -0.3755  0.1600
18490TIP3    H176885   0.235   2.633   2.589 -1.4246 -0.4239  2.4254
18490TIP3    H276886   0.194   2.751   2.504  2.4258 -1.8999 -1.8711
18491TIP3   OH276887   2.920   5.221   5.982 -0.3130  0.3533  0.7918
18491TIP3    H176888   2.984   5.251   6.048  0.7953 -0.5729  0.1768
18491TIP3    H276889   2.859   5.166   6.032  0.0970  0.2409  1.1825
18492TIP3   OH276890   2.491   1.058   0.906 -0.0754  0.1335 -0.4159
18492TIP3    H176891   2.580   1.092   0.913 -0.2939  0.6292 -0.0362
18492TIP3    H276892   2.484   0.992   0.975  0.1297 -0.2154 -0.7213
18493TIP3   OH276893   0.567   6.052  10.793  0.1764 -0.3220  0.2930
18493TIP3    H176894   0.498   6.109  10.758 -0.2241 -1.3787 -0.7422
18493TIP3    H276895   0.641   6.110  10.808 -0.7664  0.7523  0.9252
18494TIP3   OH276896   3.119   0.428   2.133  0.4535  0.2454 -0.1483
18494TIP3    H176897   3.057   0.500   2.124 -0.1668 -0.2243  0.2691
18494TIP3    H276898   3.125   0.413   2.227 -0.1683 -0.8645 -0.2607
18495TIP3   OH276899   2.481   5.906  11.346 -0.2465  0.0006 -0.1019
18495TIP3    H176900   2.563   5.902  11.298 -1.7455  0.7511 -2.9528
18495TIP3    H276901   2.495   5.973  11.413  1.3984  0.1831 -0.5802
18496TIP3   OH276902   0.997   2.160  15.081 -0.3715  0.3187  0.1851
18496TIP3    H176903   0.921   2.212  15.108 -1.6631 -1.4073  0.0484
18496TIP3    H276904   0.961   2.095  15.021  1.3663 -0.0605 -0.4958
18497TIP3   OH276905   1.501   5.315   4.997 -0.4670 -0.0102 -0.2936
18497TIP3    H176906   1.467   5.229   4.974  0.3377 -0.1462 -1.0594
18497TIP3    H276907   1.468   5.374   4.929 -2.2921  0.6338  1.0599
18498TIP3   OH276908   4.139   5.229  16.782  0.2027 -0.1637 -0.3293
18498TIP3    H176909   4.104   5.203  16.697 -0.0163 -1.6067  0.1744
18498TIP3    H276910   4.123   5.154  16.839 -1.1818  1.3805  1.4471
18499TIP3   OH276911   0.872   6.771   4.770  0.2517 -0.4717  0.5880
18499TIP3    H176912   0.902   6.745   4.857  0.6428 -0.1629  0.5497
18499TIP3    H276913   0.895   6.698   4.713 -1.9022 -1.6192  1.0855
18500TIP3   OH276914   6.596   0.450   2.834 -0.5272  0.7898  0.0657
18500TIP3    H176915   6.525   0.504   2.801 -0.1450  0.9741 -0.4636
18500TIP3    H276916   6.672   0.474   2.780 -0.6499 -1.2075 -1.0960
18501TIP3   OH276917   6.138   0.663  16.022 -0.8673  0.0475  0.7808
18501TIP3    H176918   6.184   0.746  16.008  1.6360 -1.4449 -0.6653
18501TIP3    H276919   6.201   0.609  16.070 -1.3343 -1.8459 -0.6175
18502TIP3   OH276920   5.596   3.265   5.557  0.1310 -0.6819  0.3332
18502TIP3    H176921   5.565   3.179   5.585 -2.6187  0.0831 -0.0597
18502TIP3    H276922   5.599   3.317   5.637  3.8762 -1.5808  0.9468
18503TIP3   OH276923   5.084   3.285  16.015  0.1051 -0.3297  0.0987
18503TIP3    H176924   5.116   3.287  16.105 -1.9619  0.5550  0.8732
18503TIP3    H276925   5.003   3.234  16.020  0.7071 -1.5366 -1.5682
18504TIP3   OH276926   1.545   3.083  13.975  0.3884  0.1933 -0.1042
18504TIP3    H176927   1.509   3.115  14.058  0.2112 -1.9661  0.7332
18504TIP3    H276928   1.639   3.096  13.983  0.3137  0.5912  0.1599
18505TIP3   OH276929   4.166   0.223  13.062  0.4667 -0.7220 -0.1691
18505TIP3    H176930   4.090   0.280  13.055 -0.3161 -1.4156  2.0012
18505TIP3    H276931   4.170   0.178  12.977 -0.0395  1.0944 -1.2037
18506TIP3   OH276932   4.718   3.688  16.808 -0.4989 -0.1892  0.0235
18506TIP3    H176933   4.625   3.711  16.801 -0.6918 -1.0068 -0.2538
18506TIP3    H276934   4.739   3.703  16.900 -0.5523  1.2303 -0.1665
18507TIP3   OH276935   2.329   4.468   1.945 -0.0074  0.0268 -0.5557
18507TIP3    H176936   2.236   4.486   1.956  0.4686  1.0667  3.2774
18507TIP3    H276937   2.372   4.551   1.968  1.8763 -1.1399  0.4243
18508TIP3   OH276938   6.227   4.166   5.625  0.5891 -0.0348  0.0310
18508TIP3    H176939   6.304   4.147   5.680  0.8149  0.5194 -0.0922
18508TIP3    H276940   6.159   4.192   5.687  0.0746 -1.8180  0.2699
18509TIP3   OH276941   4.153   1.982  11.652 -0.2263 -0.0166  0.1064
18509TIP3    H176942   4.120   1.907  11.701  0.9748 -1.9035 -1.8188
18509TIP3    H276943   4.103   1.982  11.570  0.8351  0.3333 -0.5648
18510TIP3   OH276944   5.290   6.743  10.844 -0.0586 -0.1847  0.0765
18510TIP3    H176945   5.203   6.781  10.831  0.4845  0.7965 -0.9563
18510TIP3    H276946   5.349   6.801  10.795  1.1889 -0.7900  0.8021
18511TIP3   OH276947   3.725   2.530  16.977  1.0200 -0.2988  0.3214
18511TIP3    H176948   3.638   2.542  17.017  1.4944  1.0606  1.0252
18511TIP3    H276949   3.706   2.500  16.888 -0.1400 -1.0232  0.7808
18512TIP3   OH276950   2.882   5.668  15.733 -0.7424  0.5708  0.0367
18512TIP3    H176951   2.803   5.665  15.786 -0.6710 -2.0236  0.1488
18512TIP3    H276952   2.914   5.577  15.732  1.2815  1.2109 -1.4210
18513TIP3   OH276953   0.814   2.045  16.329 -0.3725  0.6491  0.0575
18513TIP3    H176954   0.901   2.067  16.363 -0.2338 -1.2463  1.0327
18513TIP3    H276955   0.753   2.091  16.387 -0.1549 -2.6589  3.2712
18514TIP3   OH276956   3.135   4.668  12.868 -0.3112  0.2261  0.4201
18514TIP3    H176957   3.139   4.698  12.959 -1.2236  0.7285  0.3080
18514TIP3    H276958   3.209   4.608  12.859  0.6176  1.2346  1.1025
18515TIP3   OH276959   5.244   5.179  15.829  0.3938 -0.5257 -0.0188
18515TIP3    H176960   5.277   5.090  15.839  0.0374 -0.5961  0.5361
18515TIP3    H276961   5.272   5.224  15.908  0.2813 -0.2345 -0.1447
18516TIP3   OH276962   6.294   0.193  15.733 -0.4919  0.3864  0.2457
18516TIP3    H176963   6.228   0.251  15.696 -1.4192 -0.4754  0.5244
18516TIP3    H276964   6.305   0.224  15.823 -1.3162 -0.1328  0.5353
18517TIP3   OH276965   5.453   3.510   2.433 -0.1259 -0.2510 -0.4293
18517TIP3    H176966   5.524   3.565   2.399 -0.1232 -0.1134 -0.2037
18517TIP3    H276967   5.373   3.558   2.413 -0.1014  0.0306  0.1188
18518TIP3   OH276968   2.400   4.294  13.730 -0.0573 -0.1789 -0.1914
18518TIP3    H176969   2.369   4.236  13.799  0.9855  0.1410  0.5706
18518TIP3    H276970   2.340   4.369  13.732 -0.2466 -0.3383  0.1202
18519TIP3   OH276971   4.880   6.064   1.528 -0.0858 -0.4297 -0.1784
18519TIP3    H176972   4.887   6.108   1.444  0.8570  0.1455  0.1852
18519TIP3    H276973   4.796   6.093   1.563 -0.3881 -0.5130 -0.8210
18520TIP3   OH276974   4.581   1.503  15.609 -0.3953 -0.2504  0.3537
18520TIP3    H176975   4.620   1.586  15.638 -1.2148 -0.1008  1.0514
18520TIP3    H276976   4.507   1.529  15.554  0.7561 -0.5343 -1.4243
18521TIP3   OH276977   1.183   5.784   0.484 -0.3077 -0.3085  0.7597
18521TIP3    H176978   1.107   5.778   0.542 -0.1935 -1.1965  0.8293
18521TIP3    H276979   1.238   5.709   0.508  0.5556  0.2710  0.6539
18522TIP3   OH276980   0.548   4.077   3.657  0.3382  0.2571  0.2616
18522TIP3    H176981   0.515   4.167   3.654 -0.9065  0.0500  3.6877
18522TIP3    H276982   0.470   4.023   3.665  1.0412 -1.2697 -2.0831
18523TIP3   OH276983   3.310   0.700   4.213  0.2720 -0.5554  0.3187
18523TIP3    H176984   3.404   0.708   4.199  0.0939 -1.1962 -1.5961
18523TIP3    H276985   3.291   0.758   4.286  1.8819  1.0083 -0.4327
18524TIP3   OH276986   0.953   0.544  16.690  0.2873  0.1989 -0.3189
18524TIP3    H176987   0.878   0.501  16.648 -1.1274  0.1168  2.1319
18524TIP3    H276988   1.029   0.513  16.641 -1.1949  0.1142 -2.7830
18525TIP3   OH276989   0.162   1.914   3.980 -0.5303 -0.2492  0.3415
18525TIP3    H176990   0.133   2.004   3.970 -2.3764 -0.9989 -1.6005
18525TIP3    H276991   0.160   1.899   4.075 -0.5171  1.5967  0.6762
18526TIP3   OH276992   4.020   4.495   6.202 -0.1097 -0.3550  0.3110
18526TIP3    H176993   4.084   4.551   6.158 -0.1202 -0.1459  0.5646
18526TIP3    H276994   3.983   4.442   6.131  0.9223 -1.0594  0.2711
18527TIP3   OH276995   3.476   1.986   1.796  0.1105  0.0192 -0.1262
18527TIP3    H176996   3.543   1.985   1.864 -0.5036 -2.2896  0.5197
18527TIP3    H276997   3.396   1.958   1.840 -1.1766  2.0154 -1.0383
18528TIP3   OH276998   4.916   1.144  14.841 -0.2112 -0.1605 -0.0803
18528TIP3    H176999   4.914   1.049  14.848  0.4891 -0.5322 -3.4062
18528TIP3    H277000   5.008   1.167  14.833 -0.3960  0.7635  0.2444
18529TIP3   OH277001   1.718   2.529  10.394 -0.4578 -0.1030  0.4484
18529TIP3    H177002   1.720   2.519  10.489 -2.4628  0.5603  0.5980
18529TIP3    H277003   1.810   2.529  10.368  0.2390  1.8856  2.6382
18530TIP3   OH277004   2.682   2.098   6.473 -0.2284  0.2528  0.3894
18530TIP3    H177005   2.611   2.042   6.441 -0.8582  0.7911  0.8229
18530TIP3    H277006   2.760   2.045   6.465 -0.7486 -0.5113  0.3175
18531TIP3   OH277007   2.451   4.642  12.283  0.2067 -0.0377 -0.3598
18531TIP3    H177008   2.431   4.612  12.372  0.5872 -0.8942 -0.5571
18531TIP3    H277009   2.381   4.607  12.229 -0.2843  0.8787 -0.3376
18532TIP3   OH277010   1.687   0.871   4.279 -0.1786  0.4468 -0.3140
18532TIP3    H177011   1.723   0.816   4.210 -1.0290 -0.9909  0.3518
18532TIP3    H277012   1.593   0.872   4.262 -0.5685 -0.8936  1.4359
18533TIP3   OH277013   5.688   5.934  14.460  0.4600 -0.2203 -0.5162
18533TIP3    H177014   5.623   6.003  14.442  1.2577  1.3382  1.9749
18533TIP3    H277015   5.640   5.869  14.511  0.2250 -0.4189 -0.9881
18534TIP3   OH277016   0.907   6.678  16.234  0.7736  0.0716 -0.4349
18534TIP3    H177017   0.971   6.619  16.194  1.8188  0.1637  1.0341
18534TIP3    H277018   0.875   6.730  16.161  3.8145  1.3609 -1.0142
18535TIP3   OH277019   5.916   4.682   2.353 -0.0016  0.1712  0.3309
18535TIP3    H177020   5.876   4.709   2.436 -1.4301 -0.8698  0.0155
18535TIP3    H277021   5.982   4.618   2.378 -0.9226 -0.6767  0.6298
18536TIP3   OH277022   2.905   3.934   5.472  0.1054  0.4464  0.0668
18536TIP3    H177023   2.968   3.978   5.529  0.2610 -0.2935  0.4800
18536TIP3    H277024   2.951   3.856   5.441 -0.3023  0.3612 -0.3416
18537TIP3   OH277025   1.141   2.511   1.583  0.1179  0.5672  0.3773
18537TIP3    H177026   1.234   2.521   1.564 -0.0706 -0.0724 -1.0666
18537TIP3    H277027   1.122   2.419   1.565 -0.8101  0.7066  0.5591
18538TIP3   OH277028   4.963   3.144   3.226  0.3464 -0.1807  0.6703
18538TIP3    H177029   4.960   3.082   3.300  1.2804 -2.9852 -1.4441
18538TIP3    H277030   5.056   3.158   3.210  0.1419  1.1031  0.5548
18539TIP3   OH277031   0.824   1.996  11.747  0.1133  0.1788  0.4574
18539TIP3    H177032   0.904   1.943  11.739 -1.0021 -1.4967 -0.2253
18539TIP3    H277033   0.762   1.939  11.793 -1.5202  0.3669 -1.3714
18540TIP3   OH277034   0.600   5.831   6.074 -0.0826  0.0212  0.9314
18540TIP3    H177035   0.636   5.842   6.162 -2.2599  0.3405  1.8536
18540TIP3    H277036   0.667   5.865   6.016  1.1463  0.4020  2.5065
18541TIP3   OH277037   5.073   0.947   0.663  0.0836 -0.6246 -0.5471
18541TIP3    H177038   4.994   0.997   0.682  1.4835  1.4472  0.3424
18541TIP3    H277039   5.047   0.856   0.670 -1.8269 -0.0100  1.5739
18542TIP3   OH277040   1.764   0.572  12.681  0.1203 -0.3658  0.1185
18542TIP3    H177041   1.780   0.497  12.623  0.3182  0.6678 -1.2106
18542TIP3    H277042   1.848   0.587  12.725  0.2611 -0.5332 -0.0914
18543TIP3   OH277043   1.847   3.780  16.792  0.3992  0.4141  0.7238
18543TIP3    H177044   1.923   3.727  16.815  0.2422  0.6006  1.6809
18543TIP3    H277045   1.819   3.744  16.707  1.1687 -0.0632  0.6535
18544TIP3   OH277046   0.263   5.315   0.046  0.5600  0.3807 -0.9979
18544TIP3    H177047   0.258   5.407   0.019  0.0953  0.2855 -1.2453
18544TIP3    H277048   0.277   5.319   0.141 -1.7199  0.7282 -0.6126
18545TIP3   OH277049   4.304   0.536  15.801  0.6724 -0.4618  0.1114
18545TIP3    H177050   4.251   0.513  15.724  0.0193  2.6287 -0.5226
18545TIP3    H277051   4.393   0.545  15.767  0.4318  0.6373 -0.2707
18546TIP3   OH277052   6.290   6.081   4.862 -0.7339  0.2611 -0.6158
18546TIP3    H177053   6.340   6.004   4.889  0.8053  0.8750 -1.5328
18546TIP3    H277054   6.258   6.059   4.774 -1.7642  0.0274 -0.1931
18547TIP3   OH277055   6.123   5.268   4.731  0.5787 -0.7359  0.1567
18547TIP3    H177056   6.052   5.318   4.770 -0.0944 -0.8618 -0.8540
18547TIP3    H277057   6.128   5.188   4.784  1.4029  0.1911  1.5348
18548TIP3   OH277058   4.849   1.957  14.617 -0.1735  0.3827  1.0049
18548TIP3    H177059   4.806   1.872  14.615  1.5272 -0.5077 -0.4056
18548TIP3    H277060   4.884   1.964  14.706  0.8507 -1.0549  0.7533
18549TIP3   OH277061   3.480   4.710  16.193 -0.0053 -0.0218 -0.2006
18549TIP3    H177062   3.455   4.699  16.101 -0.9050 -0.9622  0.1312
18549TIP3    H277063   3.399   4.733  16.238  0.7289  2.1804  0.1349
18550TIP3   OH277064   2.389   2.051   1.215  0.4891  0.1680 -0.6392
18550TIP3    H177065   2.386   1.988   1.287 -0.4043  0.1454 -0.6841
18550TIP3    H277066   2.426   2.130   1.254 -0.1300  0.2044 -0.0994
18551TIP3   OH277067   2.112   2.955   6.352  0.0200 -0.1631 -0.3093
18551TIP3    H177068   2.129   2.949   6.446 -0.2002  2.8163  0.0311
18551TIP3    H277069   2.085   3.046   6.339 -2.6758 -1.1726 -2.8539
18552TIP3   OH277070   2.288   6.268   0.076 -0.2875 -0.0354  0.3508
18552TIP3    H177071   2.253   6.205   0.013 -0.2131  0.2142  0.0618
18552TIP3    H277072   2.337   6.330   0.023 -1.0704  0.7627  0.5429
18553TIP3   OH277073   2.902   1.327  16.677  1.3943  0.6815  0.2685
18553TIP3    H177074   2.861   1.250  16.717  1.0304 -0.3588 -1.9950
18553TIP3    H277075   2.905   1.392  16.748  0.7540 -1.0375  1.9466
18554TIP3   OH277076   6.220   3.344  11.648  0.0169 -0.1749  0.1601
18554TIP3    H177077   6.128   3.340  11.676  0.2242 -0.9252  0.7900
18554TIP3    H277078   6.257   3.417  11.698  0.1112 -0.8046  1.0394
18555TIP3   OH277079   3.632   5.032  15.818 -0.2413 -0.6122 -0.3645
18555TIP3    H177080   3.682   4.957  15.785  1.4715  0.5137 -0.4949
18555TIP3    H277081   3.686   5.108  15.793 -0.7423  0.5073  1.7986
18556TIP3   OH277082   2.151   1.280  11.208  0.1498 -0.8156  0.3109
18556TIP3    H177083   2.141   1.227  11.130  0.1528 -0.4697  0.0734
18556TIP3    H277084   2.062   1.307  11.230  0.3761  1.7420 -1.4417
18557TIP3   OH277085   0.894   4.667   3.471  0.3378 -0.3534 -0.0454
18557TIP3    H177086   0.807   4.700   3.494  0.2174 -1.9525  2.0423
18557TIP3    H277087   0.882   4.629   3.383 -0.5607  1.1166 -0.6001
18558TIP3   OH277088   1.498   1.547  17.139  0.0983 -0.2825  0.2937
18558TIP3    H177089   1.481   1.530  17.047 -0.2904 -2.6664  0.7561
18558TIP3    H277090   1.423   1.509  17.185  1.3520 -1.1470  1.7038
18559TIP3   OH277091   0.864   6.634  11.612 -0.4862 -0.4957 -0.0889
18559TIP3    H177092   0.806   6.654  11.685  0.3150 -0.6922  0.6154
18559TIP3    H277093   0.815   6.662  11.534 -0.8616  0.8859  0.6015
18560TIP3   OH277094   1.590   5.209  13.948 -0.1195  0.2741  0.7235
18560TIP3    H177095   1.632   5.193  13.864 -0.6173  1.4668  0.2341
18560TIP3    H277096   1.498   5.224  13.927 -0.2697  0.4884  1.4857
18561TIP3   OH277097   0.580   4.958   2.748  0.4069 -0.6325 -0.4488
18561TIP3    H177098   0.634   4.878   2.746  0.3467 -0.6675 -1.8888
18561TIP3    H277099   0.491   4.926   2.762  0.4791 -0.7538 -0.2597
18562TIP3   OH277100   0.819   1.637   4.865  0.5491  0.3887 -0.4756
18562TIP3    H177101   0.797   1.548   4.892 -0.7370  0.9789  0.5671
18562TIP3    H277102   0.872   1.627   4.787 -1.4436 -1.2504 -1.7118
18563TIP3   OH277103   3.869   3.087  12.294 -0.1588  0.1127  0.1366
18563TIP3    H177104   3.890   3.018  12.357  1.8816  0.3867 -0.1787
18563TIP3    H277105   3.797   3.052  12.242  1.0683 -1.9305 -0.2527
18564TIP3   OH277106   6.494   1.510   4.176 -0.0223 -0.4913  0.3586
18564TIP3    H177107   6.430   1.577   4.201 -1.0612 -1.2116 -0.2935
18564TIP3    H277108   6.567   1.559   4.139 -0.2004  0.3466  1.0837
18565TIP3   OH277109   6.397   1.407  12.334 -0.1646  0.1085  0.2650
18565TIP3    H177110   6.424   1.490  12.295  1.9188 -0.1117  1.0675
18565TIP3    H277111   6.321   1.429  12.388 -0.1268  1.3369 -0.1567
18566TIP3   OH277112   4.996   6.599   0.673 -1.0404  0.1482 -0.2568
18566TIP3    H177113   4.956   6.588   0.759 -2.5446 -1.8492 -1.1118
18566TIP3    H277114   4.924   6.630   0.617 -0.7796 -0.9937 -1.2826
18567TIP3   OH277115   4.514   0.426   3.744 -0.2087  0.4688 -0.1257
18567TIP3    H177116   4.465   0.432   3.827 -1.3031 -3.0160 -0.3739
18567TIP3    H277117   4.446   0.430   3.677  0.2060 -0.7782 -0.6381
18568TIP3   OH277118   0.256   3.135  13.618  0.3887  0.0182  0.3075
18568TIP3    H177119   0.177   3.093  13.652  0.6083  1.1292  2.3295
18568TIP3    H277120   0.230   3.168  13.532 -1.7467  1.2705  1.3430
18569TIP3   OH277121   1.635   5.873  16.429 -0.5284  0.3699  0.1902
18569TIP3    H177122   1.549   5.833  16.414 -0.7665  1.0112 -0.1686
18569TIP3    H277123   1.691   5.835  16.361 -0.1097 -1.2569  1.3844
18570TIP3   OH277124   3.671   3.778   0.847  0.4727 -0.0220  0.0936
18570TIP3    H177125   3.742   3.810   0.903 -0.6486 -1.5699  2.5943
18570TIP3    H277126   3.674   3.682   0.857 -1.7529 -0.1592  0.0796
18571TIP3   OH277127   0.624   4.042   5.259  0.4841  0.0334  0.1642
18571TIP3    H177128   0.637   4.132   5.289 -0.9422 -0.2480  1.7496
18571TIP3    H277129   0.553   4.048   5.196  0.7406  0.0681 -0.1268
18572TIP3   OH277130   2.257   4.820   3.250 -0.4303  0.7738 -0.5217
18572TIP3    H177131   2.286   4.859   3.168  0.1153  3.2681  0.7615
18572TIP3    H277132   2.161   4.823   3.246 -0.4004  1.4206 -0.8168
18573TIP3   OH277133   2.811   1.117   5.428 -0.2359  0.3628  0.7899
18573TIP3    H177134   2.862   1.099   5.349 -1.5378 -0.1643  0.0420
18573TIP3    H277135   2.788   1.031   5.462  0.8755  0.5725  2.1519
18574TIP3   OH277136   2.261   6.308   2.960 -0.4190 -0.1573 -0.7201
18574TIP3    H177137   2.200   6.251   3.005  0.9000 -1.6083 -0.6786
18574TIP3    H277138   2.307   6.355   3.031 -1.8623  1.4365 -0.7647
18575TIP3   OH277139   2.903   5.742  12.641 -0.8013  0.1187  0.1230
18575TIP3    H177140   2.941   5.664  12.602  0.1934  0.2615  0.7640
18575TIP3    H277141   2.860   5.710  12.721 -1.0355  0.1221 -0.0012
18576TIP3   OH277142   2.129   2.561   3.102 -0.0804 -0.1992  0.1961
18576TIP3    H177143   2.104   2.479   3.145  0.4402 -0.9030 -0.7862
18576TIP3    H277144   2.195   2.599   3.159  0.2320 -0.8619  0.2860
18577TIP3   OH277145   3.014   5.488   4.481  0.1817 -0.2063 -0.0557
18577TIP3    H177146   3.008   5.545   4.404 -1.1466 -0.5427 -0.2310
18577TIP3    H277147   2.962   5.411   4.458  1.2087 -1.1051  0.5253
18578TIP3   OH277148   5.512   6.292   1.106  0.0805  0.6056 -0.0627
18578TIP3    H177149   5.434   6.248   1.140 -0.5878  2.2531  0.6344
18578TIP3    H277150   5.504   6.383   1.136  1.3552  1.2465 -1.5106
18579TIP3   OH277151   1.812   0.614   6.095 -0.1669  0.3440  0.5437
18579TIP3    H177152   1.755   0.641   6.168  1.6949  1.2642  1.7350
18579TIP3    H277153   1.887   0.573   6.138  1.0873  1.1273 -0.8248
18580TIP3   OH277154   1.523   1.194  10.626 -1.1111 -0.0717  0.2365
18580TIP3    H177155   1.569   1.121  10.586 -0.8791 -0.4585  1.1939
18580TIP3    H277156   1.431   1.180  10.604 -1.3133 -1.6691  1.9411
18581TIP3   OH277157   0.581   4.670   0.620  0.3751 -0.2063  0.6957
18581TIP3    H177158   0.581   4.579   0.592 -0.3596 -0.0555  0.1822
18581TIP3    H277159   0.613   4.720   0.545  0.1968  0.0166  0.7637
18582TIP3   OH277160   1.057   6.625  16.462  0.1580  0.0005 -0.3247
18582TIP3    H177161   1.018   6.639  16.376  1.8394 -1.1558 -1.3327
18582TIP3    H277162   0.990   6.655  16.524 -0.2588  3.0271 -2.0112
18583TIP3   OH277163   0.976   2.985  16.012  0.3389 -0.3133 -0.2258
18583TIP3    H177164   1.011   3.040  16.082 -1.1422 -0.2926  0.5256
18583TIP3    H277165   1.023   2.902  16.022  1.2555  0.1891 -0.2092
18584TIP3   OH277166   3.306   0.425   4.633  0.0581  0.3531 -0.0438
18584TIP3    H177167   3.222   0.468   4.619 -0.2156  0.3281  1.4448
18584TIP3    H277168   3.332   0.448   4.722  0.6146 -1.3273  0.2811
18585TIP3   OH277169   0.431   5.721  15.020 -0.3502 -0.1487 -0.1044
18585TIP3    H177170   0.354   5.713  15.076 -1.4065  1.3593 -1.2426
18585TIP3    H277171   0.478   5.639  15.031 -2.3152 -1.2661  0.3634
18586TIP3   OH277172   6.441   5.794  11.719  0.4144  0.2802  0.2830
18586TIP3    H177173   6.363   5.780  11.665  1.0434  1.5039 -1.0094
18586TIP3    H277174   6.490   5.712  11.710  1.0759  0.8530 -2.0367
18587TIP3   OH277175   1.835   0.863  15.354  0.0918 -0.0076 -0.0521
18587TIP3    H177176   1.797   0.911  15.428  0.9862  0.7973 -0.1020
18587TIP3    H277177   1.914   0.911  15.332 -0.9849  0.7350 -2.6075
18588TIP3   OH277178   5.973   5.046  15.923 -0.5746 -0.1907 -0.3073
18588TIP3    H177179   6.038   4.993  15.876 -1.1513 -2.3686  1.1668
18588TIP3    H277180   5.977   5.132  15.882  0.9763 -1.1614 -2.3535
18589TIP3   OH277181   4.979   4.238   0.579  0.0165 -0.1156 -0.4024
18589TIP3    H177182   4.965   4.165   0.639 -0.8739  0.2606 -0.1389
18589TIP3    H277183   4.963   4.200   0.492 -1.7626  0.0601 -0.1769
18590TIP3   OH277184   5.353   0.938  17.102  0.1743 -0.4711 -0.5060
18590TIP3    H177185   5.327   0.884  17.027 -0.7675  0.4479 -0.8613
18590TIP3    H277186   5.428   0.988  17.071 -0.0352 -0.3026 -0.7453
18591TIP3   OH277187   0.536   1.428  11.496  0.6221  0.8531  0.1821
18591TIP3    H177188   0.587   1.383  11.564  0.2886 -1.4185 -0.9750
18591TIP3    H277189   0.594   1.431  11.420 -1.1552 -2.9890 -1.6034
18592TIP3   OH277190   3.332   3.602  12.735 -0.4718  0.0383 -0.0354
18592TIP3    H177191   3.377   3.595  12.820 -0.0168  1.4241 -0.1232
18592TIP3    H277192   3.240   3.616  12.758 -0.0695  2.6027  0.3694
18593TIP3   OH277193   3.822   5.687  14.484 -0.3851  0.2988 -0.2514
18593TIP3    H177194   3.768   5.749  14.435 -1.0787 -0.3806 -0.3765
18593TIP3    H277195   3.801   5.703  14.576 -0.1104  0.6501 -0.2484
18594TIP3   OH277196   3.617   4.812   2.548  0.4827  0.1112 -0.4881
18594TIP3    H177197   3.569   4.852   2.621  2.0533  0.3449  0.4440
18594TIP3    H277198   3.566   4.734   2.526  0.3397 -0.3398  1.3132
18595TIP3   OH277199   3.277   2.313  12.224 -0.2117 -0.0954  0.8436
18595TIP3    H177200   3.363   2.341  12.255  0.2613 -0.0147 -0.4659
18595TIP3    H277201   3.241   2.263  12.297  2.0430 -2.3946  0.5225
18596TIP3   OH277202   6.292   0.816  12.089 -0.1441 -0.6566  0.0250
18596TIP3    H177203   6.367   0.757  12.086 -0.7487 -1.4214 -2.4928
18596TIP3    H277204   6.314   0.886  12.028  0.0034  1.1151  2.0046
18597TIP3   OH277205   1.543   2.469  11.980 -0.1445 -0.5594 -0.1566
18597TIP3    H177206   1.578   2.392  11.934  1.8314  1.0489 -1.5042
18597TIP3    H277207   1.492   2.515  11.914  0.4715  0.3781  0.0061
18598TIP3   OH277208   6.612   3.705  17.057  0.2779  0.2579 -0.3278
18598TIP3    H177209   6.554   3.736  17.126 -0.7427 -0.4122 -0.8524
18598TIP3    H277210   6.587   3.756  16.980 -1.8282 -2.1210 -1.3560
18599TIP3   OH277211   3.527   3.359  10.959 -0.3999 -0.5290 -0.2258
18599TIP3    H177212   3.477   3.407  10.892 -0.1070 -1.4105 -1.1049
18599TIP3    H277213   3.466   3.292  10.991 -0.7897  0.3621  0.9567
18600TIP3   OH277214   3.675   5.733  15.189 -0.2272  0.6705  0.8531
18600TIP3    H177215   3.732   5.788  15.135 -0.0507  0.9677  1.3314
18600TIP3    H277216   3.704   5.749  15.279 -2.0154  1.9994  1.2568
18601TIP3   OH277217   2.669   5.577  11.410 -0.5625 -0.4309 -0.4495
18601TIP3    H177218   2.620   5.526  11.345  1.3582 -4.0486  0.6368
18601TIP3    H277219   2.620   5.565  11.492  0.0216 -0.7535 -0.1409
18602TIP3   OH277220   2.200   5.490  14.104 -0.2552 -0.1995  1.0809
18602TIP3    H177221   2.160   5.418  14.055  1.2053 -0.2915 -0.0611
18602TIP3    H277222   2.144   5.566  14.086  0.9915  0.1205 -2.0289
18603TIP3   OH277223   6.350   1.857  13.828  0.6302  0.4698  0.3605
18603TIP3    H177224   6.440   1.825  13.837  0.0882 -1.7436 -1.1176
18603TIP3    H277225   6.301   1.781  13.797 -1.0471  2.4980 -2.4219
18604TIP3   OH277226   3.230   1.406  12.473  0.1583 -0.8667  0.3211
18604TIP3    H177227   3.249   1.470  12.542  0.1767  0.8060 -1.1742
18604TIP3    H277228   3.312   1.400  12.423 -0.8155  0.4850 -1.5223
18605TIP3   OH277229   2.012   6.305   0.554  0.2188 -0.0711 -0.5801
18605TIP3    H177230   2.048   6.268   0.634 -0.9043 -0.3467 -0.1880
18605TIP3    H277231   2.089   6.327   0.501  0.9440 -0.8875  0.1130
18606TIP3   OH277232   0.429   1.244  15.408 -0.3860 -0.2658  0.8404
18606TIP3    H177233   0.374   1.280  15.478 -0.4131  1.5633 -0.0463
18606TIP3    H277234   0.519   1.255  15.440 -0.4381 -0.6251  1.1132
18607TIP3   OH277235   6.733   0.515   5.556  0.1559  0.1820 -0.0198
18607TIP3    H177236   6.719   0.564   5.637 -0.8021 -0.3253  0.1300
18607TIP3    H277237   6.767   0.430   5.585 -0.1361  0.0191 -0.1515
18608TIP3   OH277238   4.337   2.674  13.889  0.3431 -0.3386  0.1015
18608TIP3    H177239   4.254   2.663  13.936  1.3917 -1.0496  1.8484
18608TIP3    H277240   4.316   2.739  13.821 -0.7829  2.4483  2.8292
18609TIP3   OH277241   6.054   3.451  15.857 -0.1659 -0.5406 -0.8918
18609TIP3    H177242   6.049   3.542  15.887  3.5642 -0.4325 -0.2049
18609TIP3    H277243   6.015   3.401  15.928 -0.6940  0.3888 -0.5036
18610TIP3   OH277244   2.713   5.941  14.714 -0.2617  0.0734  0.6593
18610TIP3    H177245   2.793   5.993  14.717 -1.2842  2.2257 -2.9273
18610TIP3    H277246   2.667   5.962  14.796  1.1017  1.8182  1.0257
18611TIP3   OH277247   0.972   2.440  11.192 -0.6235 -0.5815 -0.2052
18611TIP3    H177248   0.993   2.396  11.110  0.3729  2.0345 -1.4952
18611TIP3    H277249   0.886   2.408  11.216 -0.5595 -2.0796 -1.8042
18612TIP3   OH277250   5.124   3.887   1.911  0.6605 -0.2810 -0.0074
18612TIP3    H177251   5.148   3.977   1.893 -0.1994  0.1377  0.8604
18612TIP3    H277252   5.170   3.866   1.993  0.1747 -0.3298  0.2599
18613TIP3   OH277253   6.022   1.302  16.088  0.6495 -0.1184  0.0311
18613TIP3    H177254   6.089   1.359  16.050 -0.5202 -0.4028 -2.7279
18613TIP3    H277255   6.002   1.239  16.019 -1.5228 -0.8454  1.2209
18614TIP3   OH277256   5.309   5.925  17.019  0.2459  0.3001  0.0212
18614TIP3    H177257   5.250   5.965  17.083  0.1937  0.9593 -0.4271
18614TIP3    H277258   5.395   5.928  17.061 -0.1910 -1.8551  1.2277
18615TIP3   OH277259   0.543   4.127  11.398  0.3384 -0.5271  0.4580
18615TIP3    H177260   0.479   4.180  11.444  0.6874  0.2933  0.0171
18615TIP3    H277261   0.560   4.053  11.457 -2.1793 -1.6590 -0.0855
18616TIP3   OH277262   0.635   5.188  13.638  0.0517  0.2483  0.4570
18616TIP3    H177263   0.720   5.231  13.643  1.4300 -2.3807  2.9176
18616TIP3    H277264   0.593   5.207  13.721 -0.8128 -0.2592  0.1509
18617TIP3   OH277265   5.052   5.756   1.606 -0.0846  0.1416  0.7713
18617TIP3    H177266   5.029   5.726   1.694 -2.1657  2.2924  1.0487
18617TIP3    H277267   5.028   5.683   1.549 -1.0728 -0.3222  1.7510
18618TIP3   OH277268   6.716   6.415   2.522  0.0403  0.7374  0.5334
18618TIP3    H177269   6.731   6.391   2.430  2.1181 -0.1090  1.0463
18618TIP3    H277270   6.670   6.340   2.559  0.3161  0.5341  0.4697
18619TIP3   OH277271   5.283   5.284   1.187 -0.1572 -0.3325 -0.1934
18619TIP3    H177272   5.353   5.225   1.159  0.6882  0.0943  0.9262
18619TIP3    H277273   5.208   5.261   1.132  1.0722 -0.2879 -1.9609
18620TIP3   OH277274   3.341   4.378   0.085 -0.5268 -0.1850 -0.2576
18620TIP3    H177275   3.314   4.419   0.167 -0.9464 -2.3040  0.7180
18620TIP3    H277276   3.434   4.402   0.076  0.4655 -2.4182  2.5365
18621TIP3   OH277277   4.999   1.035   6.459 -0.4042 -0.5929 -0.1087
18621TIP3    H177278   5.032   1.119   6.426  0.1127 -0.6564  0.2438
18621TIP3    H277279   4.944   1.002   6.388  0.1537 -0.4009 -0.6458
18622TIP3   OH277280   4.695   5.568  16.356  1.0951 -0.5160  0.2717
18622TIP3    H177281   4.780   5.532  16.330  0.9909  1.1429 -2.8802
18622TIP3    H277282   4.656   5.598  16.274 -2.0945 -0.1903  1.7456
18623TIP3   OH277283   1.470   3.531  13.678  0.3053 -0.5914  0.1497
18623TIP3    H177284   1.422   3.568  13.604 -0.3386  0.4978  1.0740
18623TIP3    H277285   1.556   3.572  13.675 -0.3406  0.8840  1.0544
18624TIP3   OH277286   6.540   3.080  11.151  1.0242 -0.7139  0.5387
18624TIP3    H177287   6.636   3.086  11.143  1.1275  1.3543  2.3604
18624TIP3    H277288   6.508   3.144  11.087  0.8254 -1.6219 -0.2822
18625TIP3   OH277289   2.875   5.716  15.293  0.7064  0.3683  0.0650
18625TIP3    H177290   2.899   5.737  15.383  0.8769  1.2386 -0.1804
18625TIP3    H277291   2.948   5.664  15.260  2.6013  3.3459 -0.8242
18626TIP3   OH277292   0.514   5.238   5.875  0.4772 -0.3260 -0.4067
18626TIP3    H177293   0.431   5.286   5.868  0.6646  0.1856  0.6559
18626TIP3    H277294   0.571   5.297   5.924  1.7330 -0.3513 -1.7418
18627TIP3   OH277295   6.100   5.094   1.007  0.3040 -0.4247  0.4685
18627TIP3    H177296   6.160   5.160   1.039  0.5452 -0.5312  0.2397
18627TIP3    H277297   6.156   5.021   0.980  0.0493 -0.6688  0.5947
18628TIP3   OH277298   5.501   4.815  14.987  0.6911 -0.5834 -0.5383
18628TIP3    H177299   5.411   4.785  14.998  1.3446 -3.1621 -1.4618
18628TIP3    H277300   5.543   4.746  14.935  3.5155 -0.0699  0.8488
18629TIP3   OH277301   1.599   5.779   3.453  0.1804  0.3482 -0.1345
18629TIP3    H177302   1.572   5.770   3.545 -0.8699  0.3009 -0.4313
18629TIP3    H277303   1.581   5.871   3.432  2.2322  0.8780  0.2409
18630TIP3   OH277304   2.785   3.033  10.693  0.3422  0.3562  0.1683
18630TIP3    H177305   2.705   3.002  10.734  0.1111 -0.8338 -1.0873
18630TIP3    H277306   2.756   3.101  10.631  0.3711  0.3501  0.1476
18631TIP3   OH277307   6.286   5.553  13.123  0.3046  0.4987  0.0214
18631TIP3    H177308   6.300   5.459  13.111 -1.1989  0.3279 -0.6264
18631TIP3    H277309   6.236   5.560  13.205 -0.1347  0.6646 -0.2533
18632TIP3   OH277310   5.423   2.996  12.504 -0.3737  0.4755  0.1587
18632TIP3    H177311   5.517   3.010  12.513 -0.2139 -0.7032  0.5559
18632TIP3    H277312   5.408   2.987  12.410  0.2874 -1.4483  0.1795
18633TIP3   OH277313   6.529   3.047   6.232  0.2012  0.1087  0.2050
18633TIP3    H177314   6.547   2.953   6.233  2.0907  0.4270  1.2688
18633TIP3    H277315   6.466   3.059   6.160 -0.3817 -1.9894  0.3054
18634TIP3   OH277316   6.586   3.702  13.382 -0.0125  0.6118 -0.0134
18634TIP3    H177317   6.669   3.654  13.390  0.3471  1.0370 -0.9869
18634TIP3    H277318   6.602   3.786  13.426 -0.0081  0.5894  0.0274
18635TIP3   OH277319   2.104   3.360  16.553 -0.1808 -0.2153  0.3775
18635TIP3    H177320   2.192   3.391  16.577 -0.1662 -0.0580  0.1195
18635TIP3    H277321   2.083   3.294  16.620  0.2229 -0.4087  0.3173
18636TIP3   OH277322   3.573   4.561  15.653  0.5217  0.3614 -0.5871
18636TIP3    H177323   3.479   4.556  15.635 -0.0404 -0.0230  2.0840
18636TIP3    H277324   3.599   4.647  15.619 -1.3264  1.4865  0.6044
18637TIP3   OH277325   0.668   3.587  14.178  0.2870 -0.2049 -0.2493
18637TIP3    H177326   0.699   3.521  14.240 -0.3407 -0.4389 -0.1799
18637TIP3    H277327   0.583   3.555  14.149  0.2642  0.2542 -0.7031
18638TIP3   OH277328   4.452   3.323   2.054 -0.6765  0.4516  0.4241
18638TIP3    H177329   4.441   3.330   1.959 -1.0294 -0.0654  0.4189
18638TIP3    H277330   4.539   3.285   2.066 -1.6759 -2.0746  0.1901
18639TIP3   OH277331   1.230   1.149  11.592  0.2245  0.4383  0.3606
18639TIP3    H177332   1.199   1.237  11.613 -0.5528 -0.1535  1.8275
18639TIP3    H277333   1.252   1.110  11.677 -3.3072 -2.2171  0.2788
18640TIP3   OH277334   4.417   4.091  13.260  0.6927  0.1234  0.4448
18640TIP3    H177335   4.511   4.082  13.246  0.8908  0.1084  1.6621
18640TIP3    H277336   4.406   4.083  13.355 -0.5373  0.1316  0.3211
18641TIP3   OH277337   0.074   6.744  16.614 -0.1775  0.0466  0.6121
18641TIP3    H177338   0.066   6.649  16.604  0.7481  0.1617 -1.9094
18641TIP3    H277339   0.097   6.756  16.706 -2.7587 -1.9512  1.6420
18642TIP3   OH277340   3.628   4.623  16.427 -0.6251  0.2986 -0.2281
18642TIP3    H177341   3.592   4.548  16.475 -0.0302 -0.3847 -0.8142
18642TIP3    H277342   3.553   4.660  16.380 -1.4235  1.5588  1.8953
18643TIP3   OH277343   6.161   3.423   4.553  0.3013  0.3145 -0.4810
18643TIP3    H177344   6.162   3.489   4.484  1.4927 -0.4487 -1.2303
18643TIP3    H277345   6.249   3.426   4.591  0.7117 -1.4714 -1.1889
18644TIP3   OH277346   0.921   3.811   1.237  0.5176 -0.0337  0.3487
18644TIP3    H177347   0.887   3.900   1.224 -2.8102 -0.8480  2.4144
18644TIP3    H277348   0.973   3.817   1.317  0.4591  0.0817  0.3786
18645TIP3   OH277349   6.048   1.991  12.420  0.4378  0.2414 -0.4666
18645TIP3    H177350   5.987   1.917  12.425  0.1597  0.4346 -0.9720
18645TIP3    H277351   6.018   2.050  12.489  2.7832 -1.6317  2.4899
18646TIP3   OH277352   4.307   0.037  11.423  0.6690 -0.1267 -0.1443
18646TIP3    H177353   4.350  -0.026  11.366 -1.7179 -1.3457 -0.7034
18646TIP3    H277354   4.280   0.108  11.365 -2.2789 -1.6330 -0.8253
18647TIP3   OH277355   0.175   2.144   5.044  0.1035  0.5610 -0.2461
18647TIP3    H177356   0.214   2.143   4.956  0.8588 -1.3191  0.0602
18647TIP3    H277357   0.081   2.158   5.028  0.0265 -1.0232 -1.4921
18648TIP3   OH277358   3.789   5.101   2.212  0.6355  0.0086 -0.1960
18648TIP3    H177359   3.798   5.135   2.123  0.6219 -0.6034 -0.4410
18648TIP3    H277360   3.877   5.070   2.235  0.9071  1.2340  0.4630
18649TIP3   OH277361   2.796   5.328   1.297 -0.2278 -0.6432 -0.0944
18649TIP3    H177362   2.744   5.369   1.367 -0.2945 -1.4831  0.3557
18649TIP3    H277363   2.798   5.235   1.320 -0.4076 -0.9599 -1.3127
18650TIP3   OH277364   2.890   3.965   0.379 -0.0734 -0.2005  0.0187
18650TIP3    H177365   2.916   4.043   0.330 -1.9202  1.7565  1.9506
18650TIP3    H277366   2.820   3.926   0.327  2.0231 -1.7438 -1.8630
18651TIP3   OH277367   0.576   4.813  14.233 -0.3432  0.0113 -0.4315
18651TIP3    H177368   0.646   4.751  14.215  0.0024  0.6276 -1.2271
18651TIP3    H277369   0.620   4.896  14.249 -0.8185  0.1226  0.3847
18652TIP3   OH277370   4.212   0.713   3.899 -0.1688 -0.1320 -0.3838
18652TIP3    H177371   4.165   0.790   3.867  1.1044  0.5757 -0.6189
18652TIP3    H277372   4.152   0.640   3.886 -2.3277  1.0807  1.9229
18653TIP3   OH277373   5.936   2.459   2.142 -0.4327  0.4031  0.3510
18653TIP3    H177374   6.013   2.504   2.175  0.4539 -1.1358  0.5059
18653TIP3    H277375   5.902   2.411   2.218 -0.0007 -0.9635 -0.2790
18654TIP3   OH277376   3.524   0.727  16.145 -0.0500  0.5540 -0.1660
18654TIP3    H177377   3.475   0.741  16.064 -0.6206 -0.9315 -0.1099
18654TIP3    H277378   3.484   0.787  16.208 -0.0595  1.2258 -0.7993
18655TIP3   OH277379   5.540   2.338   4.341 -0.5508  0.0839 -0.4146
18655TIP3    H177380   5.458   2.369   4.379 -0.1468 -0.6677  1.1631
18655TIP3    H277381   5.592   2.417   4.326 -1.3105  0.5120 -0.8540
18656TIP3   OH277382   0.932   0.283   2.175  0.1189  0.0171 -0.5712
18656TIP3    H177383   0.973   0.243   2.098 -1.0982 -1.3928 -0.5478
18656TIP3    H277384   0.856   0.330   2.139  0.2863  0.4446 -0.3644
18657TIP3   OH277385   4.377   5.775   1.950  0.3729 -0.7734  0.4073
18657TIP3    H177386   4.298   5.827   1.932  0.3954 -0.4653  1.1370
18657TIP3    H277387   4.358   5.689   1.913 -1.0373 -1.2353  2.0856
18658TIP3   OH277388   3.742   6.509   1.009 -0.4732 -0.2330  0.0228
18658TIP3    H177389   3.702   6.531   1.094 -1.3701  1.4762 -0.8074
18658TIP3    H277390   3.835   6.496   1.030 -0.8456 -0.9315  1.4307
18659TIP3   OH277391   3.114   5.185  13.375  0.1799  0.4387 -0.2631
18659TIP3    H177392   3.165   5.234  13.311  1.2648  0.4569  0.5700
18659TIP3    H277393   3.180   5.142  13.429 -0.7101  0.1671  0.6363
18660TIP3   OH277394   0.488   6.324  16.872 -0.3626  0.0270 -0.4797
18660TIP3    H177395   0.571   6.368  16.890 -1.7917  2.8250 -0.1871
18660TIP3    H277396   0.469   6.344  16.781  0.5853 -3.1134 -1.5038
18661TIP3   OH277397   0.689   3.312  14.385 -1.0836 -0.1319 -0.2303
18661TIP3    H177398   0.770   3.358  14.361 -1.5775  1.0977  0.3617
18661TIP3    H277399   0.664   3.264  14.307 -0.6185  0.7440 -0.9316
18662TIP3   OH277400   2.731   5.124  15.560  0.3599  0.3322 -0.4133
18662TIP3    H177401   2.671   5.199  15.562 -0.4789 -0.2869  2.1102
18662TIP3    H277402   2.728   5.094  15.469 -1.8148  1.3902 -0.7775
18663TIP3   OH277403   2.154   5.943   2.900 -0.3457  0.3652  0.0982
18663TIP3    H177404   2.167   5.849   2.909  0.2201  0.5138  1.0467
18663TIP3    H277405   2.221   5.982   2.957  0.1061  1.3709 -1.0768
18664TIP3   OH277406   3.809   2.554   0.393 -0.2889 -0.4832  0.4021
18664TIP3    H177407   3.780   2.472   0.433  1.6413 -0.6165  1.6333
18664TIP3    H277408   3.822   2.531   0.301  0.9979 -1.8214  0.8740
18665TIP3   OH277409   4.543   3.331  11.676  0.3810  0.0592  0.1255
18665TIP3    H177410   4.520   3.412  11.630 -0.0537 -0.3172 -0.3258
18665TIP3    H277411   4.528   3.262  11.612 -2.6924 -0.7547  1.5106
18666TIP3   OH277412   5.607   1.948   0.076  0.6554  0.1375  0.2529
18666TIP3    H177413   5.586   2.013   0.143 -0.2992  0.3949 -0.2800
18666TIP3    H277414   5.586   1.864   0.117 -0.1241  0.3065  0.2130
18667TIP3   OH277415   2.007   4.025  16.855 -0.6913 -0.0223 -0.0699
18667TIP3    H177416   1.934   3.978  16.815  0.5255 -0.9661 -1.2701
18667TIP3    H277417   2.084   3.999  16.803  0.3530  1.6779  0.5359
18668TIP3   OH277418   3.018   5.874  13.745  0.2218 -0.2138  0.3902
18668TIP3    H177419   3.050   5.803  13.689 -0.7344 -1.2202  1.0526
18668TIP3    H277420   2.923   5.858  13.751  0.1127  0.6530  1.2101
18669TIP3   OH277421   4.726   1.241   0.984  0.1499 -0.2106  0.1499
18669TIP3    H177422   4.775   1.243   1.066 -0.2284  2.5010  0.4018
18669TIP3    H277423   4.634   1.240   1.011  0.0233  0.6460 -0.1997
18670TIP3   OH277424   1.678   4.184   3.871 -0.2236  0.4133  0.1634
18670TIP3    H177425   1.707   4.270   3.841  0.1533  0.4889  0.7478
18670TIP3    H277426   1.639   4.200   3.957  0.6118 -0.1194  0.6533
18671TIP3   OH277427   4.883   2.296  11.992 -0.1068  0.4717 -0.1258
18671TIP3    H177428   4.965   2.251  12.013 -0.6824 -0.3594  0.3942
18671TIP3    H277429   4.841   2.310  12.077 -0.7391  0.4305 -0.4245
18672TIP3   OH277430   3.442   6.381  15.108  0.3791  0.0080  0.1359
18672TIP3    H177431   3.407   6.292  15.101 -0.7258  0.4505 -0.1922
18672TIP3    H277432   3.376   6.436  15.066  1.4547  0.8908 -0.4330
18673TIP3   OH277433   1.123   4.551  13.005  0.3479  0.2734 -0.4345
18673TIP3    H177434   1.173   4.632  12.996 -0.2337  0.4839 -2.2275
18673TIP3    H277435   1.091   4.533  12.917 -0.5767 -1.2461  0.1724
18674TIP3   OH277436   2.800   4.718   1.268 -0.3242  0.5286 -0.9186
18674TIP3    H177437   2.799   4.811   1.294 -0.2775  0.7448 -1.6716
18674TIP3    H277438   2.806   4.720   1.172  0.0047 -0.2565 -0.9204
18675TIP3   OH277439   0.649   4.689   5.430 -0.0455  0.7675 -0.3296
18675TIP3    H177440   0.707   4.614   5.445 -1.7204 -0.4814  0.3029
18675TIP3    H277441   0.662   4.711   5.337  0.3500 -0.4487 -0.5807
18676TIP3   OH277442   1.603   2.250   3.303  0.1727  0.8678 -0.4833
18676TIP3    H177443   1.507   2.254   3.304  0.1329  0.8497  1.9297
18676TIP3    H277444   1.630   2.340   3.283 -0.3821  1.1356 -0.0795
18677TIP3   OH277445   2.950   2.916  10.892 -0.9225 -0.0667 -0.2993
18677TIP3    H177446   3.042   2.925  10.867 -0.9894  1.5035 -0.0897
18677TIP3    H277447   2.902   2.962  10.823 -1.5870 -1.0708 -0.5289
18678TIP3   OH277448   2.197   5.463  16.213  0.3814 -0.1380  0.1961
18678TIP3    H177449   2.263   5.460  16.283  0.1741  0.7548  0.4430
18678TIP3    H277450   2.236   5.415  16.141 -0.3302 -3.2413  1.6921
18679TIP3   OH277451   4.800   4.481   0.511 -0.5988 -0.7164  0.1970
18679TIP3    H177452   4.733   4.473   0.578  0.5528  0.7086  1.5696
18679TIP3    H277453   4.868   4.419   0.538  0.5627  0.9616  1.2652
18680TIP3   OH277454   5.219   6.439   0.603 -0.0532 -0.9700 -0.4101
18680TIP3    H177455   5.165   6.503   0.648  3.0309  2.4426 -1.0647
18680TIP3    H277456   5.244   6.376   0.670  1.0555  1.6030  1.7841
18681TIP3   OH277457   2.414   1.646   6.483  0.4307  0.2259  0.0436
18681TIP3    H177458   2.388   1.555   6.493 -1.6913 -0.0044 -4.6859
18681TIP3    H277459   2.343   1.696   6.524 -0.2518 -0.3002 -0.4832
18682TIP3   OH277460   3.243   1.768  13.854  0.4119  0.2231  0.2798
18682TIP3    H177461   3.305   1.808  13.793  0.0827  0.4921  0.1175
18682TIP3    H277462   3.269   1.803  13.940 -0.0266  1.0026  0.1098
18683TIP3   OH277463   0.453   1.975   4.227 -0.1930  0.6534 -0.5450
18683TIP3    H177464   0.398   1.991   4.304  1.8095 -0.8412  1.3460
18683TIP3    H277465   0.448   2.056   4.176 -0.5464  2.2813  1.8816
18684TIP3   OH277466   1.975   4.676  15.601 -0.4237  0.5979  0.5600
18684TIP3    H177467   1.969   4.742  15.532  1.8497 -0.4079 -0.7269
18684TIP3    H277468   2.041   4.710  15.661  0.4471 -0.2392  0.1160
18685TIP3   OH277469   5.897   2.107  13.930  0.2855 -0.4500 -0.6803
18685TIP3    H177470   5.900   2.186  13.875 -1.4519  0.7894  0.8455
18685TIP3    H277471   5.807   2.076  13.920 -0.3020  0.2135  1.8725
18686TIP3   OH277472   2.212   6.091   1.015 -0.3046 -0.3065 -0.2605
18686TIP3    H177473   2.187   6.148   1.088  0.0120 -0.3108 -0.1451
18686TIP3    H277474   2.307   6.080   1.025 -0.4989 -1.7111  0.3352
18687TIP3   OH277475   1.009   2.105   5.910  0.4315 -0.2781  0.0376
18687TIP3    H177476   1.092   2.149   5.926 -0.1991  1.5537 -1.3261
18687TIP3    H277477   1.027   2.044   5.838 -0.1127  3.1325 -3.3544
18688TIP3   OH277478   2.861   5.418   5.035  0.1923 -0.5596  0.2947
18688TIP3    H177479   2.955   5.425   5.046  0.4162 -2.1083 -0.3785
18688TIP3    H277480   2.844   5.457   4.949  0.2399 -0.4783  0.3219
18689TIP3   OH277481   5.332   6.115   6.058 -0.2698 -0.5257  0.1695
18689TIP3    H177482   5.273   6.165   6.000 -0.4805 -1.7095 -0.6757
18689TIP3    H277483   5.274   6.081   6.126 -0.5546 -1.4797 -0.5219
18690TIP3   OH277484   5.778   5.616   2.920 -0.0832 -0.0336  0.5445
18690TIP3    H177485   5.717   5.543   2.922 -0.2075  0.0522 -0.0751
18690TIP3    H277486   5.728   5.690   2.954 -0.7957  0.3738 -1.2516
18691TIP3   OH277487   2.013   3.202   1.799  0.0276  0.6506 -0.9473
18691TIP3    H177488   2.037   3.204   1.891  1.0470 -0.7839 -1.1474
18691TIP3    H277489   1.942   3.138   1.793 -0.7631  1.5106 -1.0278
18692TIP3   OH277490   1.528   6.402   3.618  0.2561 -0.1407 -0.5086
18692TIP3    H177491   1.554   6.313   3.638  3.1233  0.7079 -0.0174
18692TIP3    H277492   1.610   6.450   3.608 -1.1567  2.2466 -1.7984
18693TIP3   OH277493   1.260   5.205   3.638 -0.2626  0.2760  0.6965
18693TIP3    H177494   1.253   5.150   3.715  2.2449  0.1341  0.9128
18693TIP3    H277495   1.294   5.289   3.671  0.1218  0.4614 -0.1340
18694TIP3   OH277496   0.334   3.733   5.027 -0.0139  0.8614 -0.4098
18694TIP3    H177497   0.333   3.826   5.002 -0.7314  1.1193  0.5546
18694TIP3    H277498   0.250   3.718   5.070  0.2768 -0.1366 -0.1603
18695TIP3   OH277499   1.158   0.122  13.698 -0.3922 -0.3100  0.4520
18695TIP3    H177500   1.093   0.188  13.675  2.1124  1.9019 -0.9186
18695TIP3    H277501   1.205   0.159  13.773  1.2084 -0.3693 -0.4796
18696TIP3   OH277502   4.646   0.124  17.043 -0.5137 -0.2377  0.0277
18696TIP3    H177503   4.689   0.097  16.962 -0.7318  0.0292 -0.1799
18696TIP3    H277504   4.708   0.184  17.084  0.3612 -1.7107  0.9332
18697TIP3   OH277505   2.886   2.771   1.767  0.6886 -0.2554  0.0857
18697TIP3    H177506   2.846   2.789   1.682 -0.4111  0.5702  0.7480
18697TIP3    H277507   2.893   2.857   1.808  0.8865 -0.6816  0.9682
18698TIP3   OH277508   4.208   1.611  12.352  0.4893  0.2242 -0.1961
18698TIP3    H177509   4.213   1.548  12.280 -0.4276 -0.5338  0.3790
18698TIP3    H277510   4.215   1.696  12.309 -1.0294 -0.1677 -1.3132
18699TIP3   OH277511   2.055   2.147   3.347  0.5837  0.0179 -0.2615
18699TIP3    H177512   1.973   2.099   3.339  1.6030 -1.6482 -1.5565
18699TIP3    H277513   2.112   2.088   3.397  0.9985  1.1843  0.6892
18700TIP3   OH277514   1.898   2.766   3.351 -0.1294 -0.0037 -0.0832
18700TIP3    H177515   1.835   2.830   3.317 -1.4964 -0.9132  0.6546
18700TIP3    H277516   1.908   2.702   3.280 -2.1987 -1.3472  0.7440
18701TIP3   OH277517   4.216   5.522  13.044  0.3110 -0.0970 -0.5530
18701TIP3    H177518   4.308   5.541  13.025  0.3188  3.5012  1.9919
18701TIP3    H277519   4.169   5.599  13.013 -1.3004 -0.1753  1.4757
18702TIP3   OH277520   6.210   2.936  13.990 -0.2128 -0.0928 -0.7184
18702TIP3    H177521   6.124   2.908  13.960  0.4246 -0.8034 -1.9916
18702TIP3    H277522   6.254   2.855  14.016 -0.0613  0.3101  0.3073
18703TIP3   OH277523   5.519   2.654  15.682  0.3448 -0.1223 -0.4978
18703TIP3    H177524   5.471   2.736  15.699 -1.2770 -0.8545 -1.2884
18703TIP3    H277525   5.525   2.612  15.767 -3.6195 -1.6223 -0.7230
18704TIP3   OH277526   1.578   1.205   5.194 -0.2882 -0.1112 -0.1710
18704TIP3    H177527   1.593   1.182   5.286  2.4212  0.0325 -0.4985
18704TIP3    H277528   1.665   1.215   5.157 -1.3035  0.2267 -2.6989
18705TIP3   OH277529   6.219   5.039   5.492  0.3485 -0.0125 -1.0022
18705TIP3    H177530   6.250   5.104   5.429  1.4169 -0.3705 -0.8662
18705TIP3    H277531   6.182   4.969   5.438  0.8402 -0.1067 -1.2216
18706TIP3   OH277532   5.496   4.408   2.318 -0.4486 -0.0110  0.0464
18706TIP3    H177533   5.506   4.434   2.410  2.0818  0.1415 -0.2132
18706TIP3    H277534   5.503   4.312   2.320  1.4804  0.0923 -0.1296
18707TIP3   OH277535   5.524   1.913   2.079  0.0332 -0.1349 -0.1960
18707TIP3    H177536   5.572   1.830   2.080 -1.7124 -1.2033 -0.2278
18707TIP3    H277537   5.528   1.941   1.987 -0.7327 -1.0467 -0.5212
18708TIP3   OH277538   1.045   4.015  11.768 -0.4129 -0.5056  0.2589
18708TIP3    H177539   1.001   4.052  11.692 -1.0129 -1.0689  0.3197
18708TIP3    H277540   0.974   3.980  11.823 -0.0601  0.7111  1.5384
18709TIP3   OH277541   0.380   1.387  13.169 -0.6862  0.5407  0.4071
18709TIP3    H177542   0.368   1.373  13.075  0.2472 -0.3695  0.4153
18709TIP3    H277543   0.293   1.370  13.207 -0.3129 -2.5926  0.0890
18710TIP3   OH277544   2.808   1.455   0.774  0.0659  0.3750 -0.7706
18710TIP3    H177545   2.879   1.514   0.801 -1.2756  1.9666 -0.5915
18710TIP3    H277546   2.823   1.441   0.681  1.6537 -0.8408 -0.3924
18711TIP3   OH277547   2.018   0.327   1.531  0.6495  0.3882 -0.3790
18711TIP3    H177548   2.062   0.293   1.609  0.6969  1.2255 -0.0398
18711TIP3    H277549   1.934   0.281   1.529  0.6695  0.3240  0.1312
18712TIP3   OH277550   3.566   3.798  12.424 -0.0454  0.1437 -0.0233
18712TIP3    H177551   3.573   3.828  12.333  0.9300  0.9947  0.3106
18712TIP3    H277552   3.642   3.741  12.436 -0.0252  0.2437  0.3318
18713TIP3   OH277553   2.037   2.677  14.264 -0.1026 -0.1547 -0.3237
18713TIP3    H177554   2.071   2.642  14.346 -2.3550 -0.4068  0.5535
18713TIP3    H277555   2.064   2.614  14.197  0.1046 -0.9462  0.4981
18714TIP3   OH277556   3.413   4.837   2.937 -0.0773  0.1564  0.2368
18714TIP3    H177557   3.490   4.866   2.888  0.6569 -0.3908  1.0341
18714TIP3    H277558   3.419   4.884   3.020  0.5256 -1.3915  1.1100
18715TIP3   OH277559   1.530   0.483   5.019  0.3305 -0.2278  0.0662
18715TIP3    H177560   1.504   0.414   5.079 -1.5944 -0.5672 -1.0488
18715TIP3    H277561   1.591   0.442   4.958 -0.5819 -0.9007 -0.4149
18716TIP3   OH277562   1.378   3.774  12.993 -0.0377 -0.0798 -0.2900
18716TIP3    H177563   1.432   3.736  13.062  0.0011 -1.3034 -0.9790
18716TIP3    H277564   1.297   3.799  13.038 -0.5504 -2.0780 -0.0132
18717TIP3   OH277565   0.261   5.032   2.169  0.2616  0.1897  0.2039
18717TIP3    H177566   0.309   5.027   2.251 -0.7676 -0.4227  0.7885
18717TIP3    H277567   0.219   5.118   2.170 -0.9865 -0.3948  1.0584
18718TIP3   OH277568   1.392   4.741   1.442  0.1407 -0.2656 -0.2712
18718TIP3    H177569   1.429   4.760   1.356 -1.6025  0.9814 -0.8031
18718TIP3    H277570   1.381   4.827   1.483  1.0548 -0.8374  1.2868
18719TIP3   OH277571   5.181   0.622   3.239 -0.1128 -0.1258  0.8996
18719TIP3    H177572   5.186   0.666   3.154  0.4184 -0.6213  0.6653
18719TIP3    H277573   5.257   0.656   3.287 -0.8821  0.8005  1.5075
18720TIP3   OH277574   6.587   2.271   0.941  0.7627  0.3688 -0.5392
18720TIP3    H177575   6.569   2.332   1.013 -0.2675  1.0049 -1.2971
18720TIP3    H277576   6.665   2.224   0.968 -0.8372 -1.0500  2.0526
18721TIP3   OH277577   4.432   6.162   6.834  0.0626  0.0918  0.6191
18721TIP3    H177578   4.344   6.151   6.868 -0.4482  1.4753 -0.1922
18721TIP3    H277579   4.446   6.086   6.778 -0.1741 -0.7045  1.6172
18722TIP3   OH277580   2.688   5.869   0.604  0.0562 -0.0031 -0.8192
18722TIP3    H177581   2.749   5.882   0.531 -0.7389  0.6296 -1.3892
18722TIP3    H277582   2.617   5.817   0.566 -1.5435  2.3101 -1.2035
18723TIP3   OH277583   5.825   0.912   3.178  0.3415  0.2880 -0.0201
18723TIP3    H177584   5.875   0.991   3.198 -2.2382  1.8419  0.7572
18723TIP3    H277585   5.820   0.866   3.261 -0.1231  0.5082  0.0745
18724TIP3   OH277586   5.276   0.466  10.413 -0.3899 -0.1913 -0.1121
18724TIP3    H177587   5.356   0.424  10.445 -0.9035  0.4604  2.2637
18724TIP3    H277588   5.296   0.491  10.323  1.6659 -1.0773  0.0495
18725TIP3   OH277589   4.635   3.876  14.054 -0.0360  0.4915 -0.0057
18725TIP3    H177590   4.642   3.939  14.125 -0.5620 -1.0339  1.4694
18725TIP3    H277591   4.644   3.928  13.974 -0.4996  2.4105  1.1380
18726TIP3   OH277592   4.053   6.402   1.548 -0.1457  0.1677  0.1863
18726TIP3    H177593   4.011   6.336   1.493  0.2730  0.6478 -0.7313
18726TIP3    H277594   4.090   6.465   1.486 -0.2467  1.0852  1.0400
18727TIP3   OH277595   2.156   0.880  12.909  0.2126 -0.1833  0.2310
18727TIP3    H177596   2.188   0.968  12.930  0.6786 -0.9164  2.8647
18727TIP3    H277597   2.125   0.845  12.992 -0.2807 -2.4170 -0.8257
18728TIP3   OH277598   5.079   3.114   4.994 -0.2333  0.4853 -0.0776
18728TIP3    H177599   5.117   3.055   4.929  1.7068  0.6065  0.8834
18728TIP3    H277600   5.136   3.190   4.994 -1.0596  1.1278  0.7399
18729TIP3   OH277601   3.169   1.389   2.539  0.7986  0.1500 -0.8886
18729TIP3    H177602   3.165   1.411   2.446  0.7965 -1.2446 -1.2511
18729TIP3    H277603   3.091   1.334   2.554  1.0837 -0.0809 -0.1890
18730TIP3   OH277604   4.160   4.102  16.441  0.1789 -0.3141  0.3460
18730TIP3    H177605   4.214   4.035  16.400  1.7339  0.1737  1.5179
18730TIP3    H277606   4.145   4.167  16.372 -0.4632 -1.3112 -0.4927
18731TIP3   OH277607   2.739   2.310   0.050 -0.2473 -0.0156 -0.5365
18731TIP3    H177608   2.798   2.352  -0.012  0.2779 -0.3350 -0.2599
18731TIP3    H277609   2.657   2.359   0.042  0.4875  1.3969  0.1470
18732TIP3   OH277610   4.162   6.133   6.936 -0.8146  0.0730  0.7197
18732TIP3    H177611   4.202   6.053   6.970  0.0866 -0.3229 -1.1526
18732TIP3    H277612   4.102   6.102   6.868  0.0397  0.9797 -0.4923
18733TIP3   OH277613   1.901   0.311   4.357  0.2235  0.3238  0.1253
18733TIP3    H177614   1.898   0.392   4.408 -0.5606  0.6424 -0.4161
18733TIP3    H277615   1.838   0.253   4.400 -0.1188  0.4386 -0.2204
18734TIP3   OH277616   2.567   6.231  15.569 -0.8485  0.1116 -0.0875
18734TIP3    H177617   2.598   6.157  15.620 -0.5068  0.5438  0.3448
18734TIP3    H277618   2.473   6.214  15.555 -2.4753  2.5351  5.4026
18735TIP3   OH277619   0.425   1.063  11.832  0.0179  0.5016  0.5562
18735TIP3    H177620   0.473   0.981  11.821 -1.7956 -0.8033  1.8720
18735TIP3    H277621   0.345   1.052  11.782  0.0695  1.7866  0.1547
18736TIP3   OH277622   4.817   3.668  13.984  0.0655 -0.1299 -0.1411
18736TIP3    H177623   4.813   3.685  13.890 -3.1686  0.5624  0.0153
18736TIP3    H277624   4.753   3.728  14.022  0.1498 -1.4987  2.3527
18737TIP3   OH277625   3.843   3.160  12.598 -0.3419  0.0395  0.5359
18737TIP3    H177626   3.753   3.129  12.607 -0.6363 -0.0867 -2.0987
18737TIP3    H277627   3.834   3.251  12.570  0.2995 -0.1669 -0.3914
18738TIP3   OH277628   3.660   6.355  17.080 -0.0400  0.0475 -0.0430
18738TIP3    H177629   3.748   6.348  17.118 -0.5028 -2.4090  0.7489
18738TIP3    H277630   3.675   6.357  16.986  0.8976  1.3181  0.1009
18739TIP3   OH277631   6.133   1.078  13.184 -0.3316 -0.1022  0.5427
18739TIP3    H177632   6.091   1.134  13.119 -2.1292  0.7755  2.3717
18739TIP3    H277633   6.121   1.124  13.267 -0.6486 -2.5271  1.9306
18740TIP3   OH277634   4.353   5.354  11.963 -0.7539 -0.7848 -0.0514
18740TIP3    H177635   4.357   5.279  11.904 -1.0175 -1.1517  0.3902
18740TIP3    H277636   4.422   5.337  12.028 -1.0708 -0.8399  0.2735
18741TIP3   OH277637   2.302   2.572  15.768 -0.6086 -0.5699  0.2464
18741TIP3    H177638   2.368   2.504  15.778 -0.7627 -1.5771 -3.8496
18741TIP3    H277639   2.352   2.654  15.771  0.2586 -1.0988  0.7014
18742TIP3   OH277640   5.713   2.290  14.926  0.1059 -0.3125  0.4363
18742TIP3    H177641   5.723   2.356  14.857 -0.8969 -0.4747  0.1172
18742TIP3    H277642   5.752   2.211  14.888  1.2669  0.0701  0.8019
18743TIP3   OH277643   6.535   4.264  16.498  0.1619  0.4651 -0.0630
18743TIP3    H177644   6.590   4.229  16.428  0.0743 -0.5497  0.3673
18743TIP3    H277645   6.588   4.333  16.538  1.2781 -0.7185  0.5634
18744TIP3   OH277646   5.961   4.627   2.086 -0.1317  0.1858  0.3823
18744TIP3    H177647   5.932   4.657   2.173 -1.9240  1.6675 -0.6561
18744TIP3    H277648   6.055   4.611   2.096 -0.2863  0.3231  2.5831
18745TIP3   OH277649   1.880   3.744   0.691 -0.1276  0.3565  0.2133
18745TIP3    H177650   1.950   3.807   0.709 -0.6735  0.8675  0.5906
18745TIP3    H277651   1.887   3.679   0.761 -0.6948  0.9884  0.8600
18746TIP3   OH277652   1.952   4.819  16.522 -0.2636  0.3519 -0.1607
18746TIP3    H177653   1.864   4.807  16.488 -0.3052 -1.6292  0.5185
18746TIP3    H277654   2.009   4.777  16.458  0.1023  0.7981 -0.1329
18747TIP3   OH277655   1.435   5.671  12.292 -0.3027  0.2423  0.1733
18747TIP3    H177656   1.371   5.675  12.221  2.6603  0.6145 -2.7047
18747TIP3    H277657   1.452   5.762  12.315  0.4464  0.2437 -0.3484
18748TIP3   OH277658   1.348   4.059  15.913 -0.0971  0.8757 -0.1145
18748TIP3    H177659   1.414   4.011  15.864 -1.0161  0.2628 -0.7866
18748TIP3    H277660   1.350   4.019  16.000  0.7681  1.2189  0.0347
18749TIP3   OH277661   6.031   2.951   4.071 -0.1480  0.1814  0.1312
18749TIP3    H177662   5.993   2.871   4.035 -1.3560 -0.7001  3.0941
18749TIP3    H277663   6.113   2.923   4.111  0.8037  0.9992 -1.1743
18750TIP3   OH277664   5.831   4.040   1.834 -0.0100  0.0207  0.1597
18750TIP3    H177665   5.791   4.071   1.916 -1.9850 -0.8611 -0.4221
18750TIP3    H277666   5.847   3.947   1.849  2.4825  0.4431  0.5790
18751TIP3   OH277667   1.662   5.701  11.240 -0.1605 -0.0972 -0.1690
18751TIP3    H177668   1.594   5.726  11.303  1.4287 -1.5229  2.2836
18751TIP3    H277669   1.743   5.698  11.291  1.4919 -0.1361 -2.5868
18752TIP3   OH277670   1.611   0.506  16.149  0.8465  0.6483 -0.7093
18752TIP3    H177671   1.584   0.590  16.112  2.0815  1.0142 -0.8393
18752TIP3    H277672   1.546   0.444  16.118 -0.5363  1.6671  0.0098
18753TIP3   OH277673   6.012   3.218  13.471  0.0976  0.1451  0.5300
18753TIP3    H177674   5.946   3.184  13.411  1.2042 -0.0673 -0.6069
18753TIP3    H277675   5.961   3.260  13.541 -1.2457  1.3791 -1.1030
18754TIP3   OH277676   0.768   2.261   4.026 -0.0903 -0.0673  0.0921
18754TIP3    H177677   0.688   2.237   4.073  0.1838 -1.3606 -0.0577
18754TIP3    H277678   0.839   2.228   4.081  0.3803  1.3868  0.4042
18755TIP3   OH277679   2.584   1.507  17.063  0.3011 -0.2424 -0.0482
18755TIP3    H177680   2.676   1.489  17.083  0.2164 -0.8683 -0.2138
18755TIP3    H277681   2.580   1.512  16.967 -0.0503 -1.4742 -0.1216
18756TIP3   OH277682   5.545   1.984   1.822 -0.2517  0.2413 -0.3562
18756TIP3    H177683   5.598   2.063   1.807 -2.0876  1.2571 -1.9042
18756TIP3    H277684   5.587   1.917   1.768  1.1323  0.1799  0.7185
18757TIP3   OH277685   0.713   5.258   2.305  0.5938 -0.1470  0.2953
18757TIP3    H177686   0.797   5.228   2.339  1.1258 -1.4485 -1.9950
18757TIP3    H277687   0.650   5.191   2.333  0.2850  0.7380  1.8577
18758TIP3   OH277688   0.488   2.428  15.265 -0.0673 -0.2229  0.3135
18758TIP3    H177689   0.397   2.400  15.269 -0.0441 -0.6173 -1.4256
18758TIP3    H277690   0.484   2.514  15.224  0.3344 -0.1145  0.4980
18759TIP3   OH277691   6.101   1.373   2.071  0.4547 -0.2737 -0.3471
18759TIP3    H177692   6.157   1.390   1.996 -0.4779  1.3204 -0.7397
18759TIP3    H277693   6.153   1.404   2.146 -0.1329  1.9574 -0.7850
18760TIP3   OH277694   1.308   2.499  16.062  0.3930  0.1496 -0.3079
18760TIP3    H177695   1.283   2.578  16.109  0.1313  0.2551 -0.6210
18760TIP3    H277696   1.404   2.498  16.066  0.3625 -0.3851  1.1099
18761TIP3   OH277697   0.527   3.158  11.556 -0.4896 -0.0046 -0.0360
18761TIP3    H177698   0.509   3.195  11.469 -3.6966  0.4740  0.7007
18761TIP3    H277699   0.444   3.119  11.583 -0.1779  1.3875  3.5273
18762TIP3   OH277700   0.859   3.337  13.767  0.0699  0.3478  0.0530
18762TIP3    H177701   0.928   3.374  13.711  0.3924 -0.2920  0.0193
18762TIP3    H277702   0.843   3.250  13.730  0.9152 -0.4402  1.4952
18763TIP3   OH277703   1.615   0.466   3.331  0.5390 -0.4366  0.6763
18763TIP3    H177704   1.550   0.461   3.262 -0.7129  1.4939  1.6136
18763TIP3    H277705   1.617   0.378   3.369  0.1425 -1.1092 -0.7989
18764TIP3   OH277706   0.297   5.837   0.414  0.3644  0.0682 -0.5339
18764TIP3    H177707   0.269   5.794   0.495 -0.4926  0.1869 -0.7577
18764TIP3    H277708   0.392   5.827   0.413  0.3477 -0.2313  0.3182
18765TIP3   OH277709   6.052   1.548   1.768  0.1898 -0.1632  0.1231
18765TIP3    H177710   5.978   1.561   1.709  0.8767 -0.7082 -0.8854
18765TIP3    H277711   6.014   1.554   1.856 -0.7913  1.0044 -0.3565
18766TIP3   OH277712   0.368   1.029  14.197 -0.0290  0.2677  0.2301
18766TIP3    H177713   0.387   0.943  14.233  1.1535  0.5613  0.3251
18766TIP3    H277714   0.311   1.011  14.122  1.6405 -0.7474 -0.8440
18767TIP3   OH277715   5.014   5.382   3.200 -0.1969 -0.5496  0.3481
18767TIP3    H177716   4.977   5.357   3.285 -0.1989 -1.3220  0.1233
18767TIP3    H277717   4.938   5.412   3.150 -0.7253 -2.9545 -0.4160
18768TIP3   OH277718   5.416   1.316   5.471 -0.5503 -0.3114  0.2509
18768TIP3    H177719   5.339   1.373   5.468 -0.8121 -0.6283  0.7703
18768TIP3    H277720   5.438   1.301   5.379  1.3503  3.0283 -0.0103
18769TIP3   OH277721   1.822   4.565  12.125  0.4222 -0.5890 -0.5858
18769TIP3    H177722   1.810   4.585  12.218  1.0080 -1.0390 -0.4050
18769TIP3    H277723   1.789   4.475  12.115  2.4576 -1.4118 -0.3144
18770TIP3   OH277724   2.255   0.173   5.037  0.6811 -0.4292 -0.3572
18770TIP3    H177725   2.327   0.140   5.092  0.2459  0.1688  0.5882
18770TIP3    H277726   2.182   0.186   5.097 -0.1294 -0.7117 -1.2537
18771TIP3   OH277727   6.056   1.126  15.345 -0.3335  0.3502  0.5514
18771TIP3    H177728   6.019   1.113  15.258  0.6202 -0.3140  0.2285
18771TIP3    H277729   5.981   1.149  15.400 -1.2582 -1.1939 -0.0249
18772TIP3   OH277730   0.116   1.320   3.549  0.0347  0.0984  0.4442
18772TIP3    H177731   0.140   1.250   3.610  1.4006 -0.9121 -1.1737
18772TIP3    H277732   0.075   1.386   3.605 -0.0243 -1.3544  2.2448
18773TIP3   OH277733   5.612   1.145  14.600  0.0209 -0.3412  0.4277
18773TIP3    H177734   5.538   1.091  14.629 -1.0996  1.2509  0.6945
18773TIP3    H277735   5.621   1.212  14.668  0.6353  0.4636 -0.4174
18774TIP3   OH277736   3.551   4.925   3.659  0.0830  0.4455 -0.3465
18774TIP3    H177737   3.571   4.878   3.740  0.2578  1.1507  0.0389
18774TIP3    H277738   3.458   4.945   3.665  0.2695  1.2591  0.1180
18775TIP3   OH277739   5.862   5.214   0.728  0.5598 -0.0514  0.1348
18775TIP3    H177740   5.931   5.280   0.742  0.7501 -0.1407 -0.3737
18775TIP3    H277741   5.780   5.261   0.743  0.6577  0.5013 -0.9727
18776TIP3   OH277742   4.589   2.424   1.815  0.4884  0.0290  0.5860
18776TIP3    H177743   4.649   2.407   1.888  0.8723 -1.9518 -0.1308
18776TIP3    H277744   4.609   2.514   1.788  2.8346 -0.3960  0.6755
18777TIP3   OH277745   0.638   1.502   0.358  0.1690 -0.0761 -0.0211
18777TIP3    H177746   0.598   1.431   0.409  2.2864 -0.2197  1.5738
18777TIP3    H277747   0.694   1.457   0.294  1.4036  0.1175  0.8981
18778TIP3   OH277748   4.476   3.218  14.510 -0.3663 -1.3398 -0.2900
18778TIP3    H177749   4.547   3.188  14.452  0.9757  0.5640  0.2582
18778TIP3    H277750   4.453   3.140  14.562  0.3887 -2.3378 -1.3845
18779TIP3   OH277751   4.125   3.019   6.507  0.3494  0.1344 -0.4023
18779TIP3    H177752   4.181   3.093   6.484  1.0599 -0.0069  0.8203
18779TIP3    H277753   4.086   3.043   6.591 -0.3706 -0.3623 -0.5838
18780TIP3   OH277754   6.066   3.786   5.396 -0.3259 -0.4640  0.6221
18780TIP3    H177755   6.049   3.694   5.417 -3.0183  0.0510  0.9504
18780TIP3    H277756   6.043   3.794   5.303  1.7221 -0.4786  0.0639
18781TIP3   OH277757   1.510   4.655   1.691 -0.7109 -0.6882 -0.2664
18781TIP3    H177758   1.457   4.703   1.628 -0.6368 -1.9960 -1.3726
18781TIP3    H277759   1.569   4.602   1.638  1.1211  0.0502  0.9263
18782TIP3   OH277760   3.098   5.824  12.840  0.0161 -0.7528  0.3621
18782TIP3    H177761   3.030   5.878  12.800  0.1416 -0.3277  0.7150
18782TIP3    H277762   3.107   5.750  12.781 -1.9343 -1.6856  1.1404
18783TIP3   OH277763   2.482   5.807   0.439 -0.6834  0.2031  0.1937
18783TIP3    H177764   2.449   5.897   0.437  1.3224  0.9680 -0.0100
18783TIP3    H277765   2.492   5.782   0.348  0.2472  0.3586  0.2443
18784TIP3   OH277766   3.351   0.249   0.299 -0.2537 -0.1130 -0.2700
18784TIP3    H177767   3.355   0.160   0.334 -1.0434  0.2622  0.8351
18784TIP3    H277768   3.336   0.237   0.205 -2.5040 -1.1828  0.1469
18785TIP3   OH277769   2.904   3.848   4.132  0.2862 -0.4247  0.0801
18785TIP3    H177770   2.871   3.759   4.117  0.1823 -0.2507 -0.7909
18785TIP3    H277771   2.964   3.840   4.206 -1.7236 -0.7466  1.7727
18786TIP3   OH277772   3.180   5.302   2.490  0.0935 -0.3406  0.2283
18786TIP3    H177773   3.237   5.229   2.511 -0.7771 -0.9547  0.5112
18786TIP3    H277774   3.234   5.380   2.505  0.9393 -0.9083  0.1970
18787TIP3   OH277775   6.615   5.907   3.263  0.2590  0.2351 -0.1198
18787TIP3    H177776   6.579   5.956   3.189 -0.0005  0.6972  0.3140
18787TIP3    H277777   6.560   5.931   3.337  1.6341  1.1842  0.6247
18788TIP3   OH277778   0.650   4.513   5.851  0.5219 -0.0472 -0.2160
18788TIP3    H177779   0.681   4.601   5.874  1.6561 -0.1553 -1.2632
18788TIP3    H277780   0.719   4.455   5.883 -0.7114 -0.6763  1.4302
18789TIP3   OH277781   2.490   2.004   3.327 -0.1114 -0.7649  0.3147
18789TIP3    H177782   2.534   2.088   3.338  2.8615 -2.0664 -0.6041
18789TIP3    H277783   2.492   1.987   3.233 -2.6313 -0.9546  0.2363
18790TIP3   OH277784   6.314   5.785   2.401 -0.7081 -0.9129  0.0767
18790TIP3    H177785   6.265   5.777   2.319 -1.0186 -2.8116  0.3899
18790TIP3    H277786   6.248   5.772   2.470 -1.0580  3.5516  0.8788
18791TIP3   OH277787   2.811   5.611  11.685  0.1143 -0.3176 -0.4367
18791TIP3    H177788   2.716   5.607  11.670  0.3093  0.2856 -2.0258
18791TIP3    H277789   2.840   5.685  11.631  1.1790  1.0461  1.8604
18792TIP3   OH277790   0.258   4.425   0.119  0.0158 -0.9983  0.1166
18792TIP3    H177791   0.201   4.386   0.185  0.2690 -2.7387 -0.6243
18792TIP3    H277792   0.346   4.419   0.156  0.0366 -0.9752  0.0711
18793TIP3   OH277793   5.482   2.603  11.915  0.6858 -0.7330  0.1670
18793TIP3    H177794   5.433   2.553  11.980 -1.3551  0.1206 -0.6229
18793TIP3    H277795   5.523   2.673  11.965 -1.6524  0.4953  0.5040
18794TIP3   OH277796   1.813   0.851   0.225  0.0219 -0.7882 -0.0300
18794TIP3    H177797   1.718   0.858   0.211  0.0674  0.2180  0.1022
18794TIP3    H277798   1.833   0.918   0.290  0.6008 -2.0153  1.1162
18795TIP3   OH277799   5.571   6.715  15.485 -0.2339  0.1110 -0.3358
18795TIP3    H177800   5.525   6.637  15.455 -2.1391  0.6799  0.8676
18795TIP3    H277801   5.501   6.778  15.502  1.2828  2.5191 -2.3167
18796TIP3   OH277802   0.692   3.488   1.482  0.0706 -0.2084  0.0492
18796TIP3    H177803   0.697   3.555   1.414  0.0601 -0.8793 -0.6244
18796TIP3    H277804   0.709   3.535   1.564 -0.4613  0.7042 -0.3583
18797TIP3   OH277805   1.792   4.881  13.411 -0.2601  0.0428  0.1312
18797TIP3    H177806   1.885   4.902  13.425  0.3639 -1.0888 -1.9474
18797TIP3    H277807   1.792   4.790  13.382 -2.0505  0.0195  0.0894
18798TIP3   OH277808   3.943   2.327   6.223 -0.1124 -0.2441 -0.2559
18798TIP3    H177809   3.885   2.365   6.289  1.3868  1.9619 -0.1021
18798TIP3    H277810   4.009   2.279   6.273 -0.3263 -0.5657 -0.2831
18799TIP3   OH277811   0.546   4.437  10.869 -0.0140  0.7160  0.4798
18799TIP3    H177812   0.608   4.368  10.847  0.0769  0.5693  1.1788
18799TIP3    H277813   0.600   4.515  10.880  0.1423  0.4279  1.8266
18800TIP3   OH277814   4.046   1.184   4.206 -0.2459  0.2269 -0.1788
18800TIP3    H177815   3.953   1.199   4.223 -0.6063 -1.5044 -0.4165
18800TIP3    H277816   4.066   1.242   4.132 -1.2762  0.2472 -0.4658
18801TIP3   OH277817   5.676   0.616   3.574 -0.1011  0.3355  0.3226
18801TIP3    H177818   5.767   0.635   3.550 -0.5597  2.4451  0.0079
18801TIP3    H277819   5.669   0.647   3.664 -0.6363  0.6998  0.1571
18802TIP3   OH277820   2.241   1.891   1.410 -0.5221  0.0258 -0.3421
18802TIP3    H177821   2.177   1.842   1.463 -2.4506  3.7941  1.2299
18802TIP3    H277822   2.190   1.922   1.335 -0.1121  1.6571  0.0244
18803TIP3   OH277823   5.909   3.747  15.541  0.1893  0.6578  0.2985
18803TIP3    H177824   5.863   3.814  15.590 -1.1274  0.9227 -1.2404
18803TIP3    H277825   5.958   3.795  15.474 -1.3301  0.1151 -1.2762
18804TIP3   OH277826   4.838   0.550  15.025 -0.7678 -0.2979 -0.4543
18804TIP3    H177827   4.808   0.528  15.113 -1.1589  0.3646 -0.4160
18804TIP3    H277828   4.846   0.645  15.025 -3.5010  0.0393 -1.9585
18805TIP3   OH277829   0.242   3.126   0.743 -0.0353  0.2733  0.0080
18805TIP3    H177830   0.288   3.209   0.759  0.0714  0.2350 -0.0934
18805TIP3    H277831   0.299   3.060   0.782 -0.3037  0.2849  0.4137
18806TIP3   OH277832   6.184   2.167   1.338 -0.2469 -0.9316  0.1089
18806TIP3    H177833   6.236   2.127   1.269  1.4219 -3.0649  2.4108
18806TIP3    H277834   6.110   2.107   1.351  0.6285 -1.7705  1.5399
18807TIP3   OH277835   4.440   5.642  15.322  0.2909 -0.0464  0.2982
18807TIP3    H177836   4.513   5.696  15.292 -0.1708  1.1966  1.3193
18807TIP3    H277837   4.465   5.613  15.409 -0.2460  0.0522  0.4912
18808TIP3   OH277838   5.571   5.968  17.117  0.5616  0.0223  0.0693
18808TIP3    H177839   5.635   6.039  17.121  0.1337  0.4460 -0.4267
18808TIP3    H277840   5.618   5.891  17.151  1.0594  0.5135  0.5211
18809TIP3   OH277841   3.971   4.187   1.353  0.0819 -0.3518  0.1677
18809TIP3    H177842   3.886   4.148   1.373 -0.0561 -0.2616 -0.2455
18809TIP3    H277843   3.958   4.281   1.365 -0.2713 -0.1947 -1.2696
18810TIP3   OH277844   0.920   0.954   2.122 -0.6304  0.3267 -0.2759
18810TIP3    H177845   0.968   1.029   2.086 -1.1766  1.4502  1.2591
18810TIP3    H277846   0.901   0.900   2.045  0.9356  1.0619 -1.2480
18811TIP3   OH277847   5.473   5.455  14.192 -0.1473 -0.1210 -0.3168
18811TIP3    H177848   5.450   5.521  14.126 -0.1414  0.7968  0.5699
18811TIP3    H277849   5.392   5.407  14.207 -0.5248  0.6130  0.0399
18812TIP3   OH277850   5.398   4.882   0.483 -0.4129  0.3762  0.3073
18812TIP3    H177851   5.436   4.822   0.418 -1.0309 -1.0734  1.2320
18812TIP3    H277852   5.439   4.857   0.566 -0.5723  1.3520  0.6901
18813TIP3   OH277853   3.576   6.210  14.384 -0.2228 -0.3310  0.2064
18813TIP3    H177854   3.650   6.149  14.390 -0.9620 -1.2559  0.2600
18813TIP3    H277855   3.609   6.282  14.331  0.5876 -0.9425 -0.1500
18814TIP3   OH277856   2.630   2.979   0.584 -0.0219  0.1879 -0.4329
18814TIP3    H177857   2.718   3.000   0.616  0.7037 -1.2316 -1.4090
18814TIP3    H277858   2.613   2.891   0.616 -1.7045  0.9553  0.9318
18815TIP3   OH277859   3.863   3.082  10.787  0.3160 -0.3442  0.1516
18815TIP3    H177860   3.804   3.058  10.859 -1.2122  1.0103 -0.6061
18815TIP3    H277861   3.893   2.998  10.752 -0.3161 -1.0416  1.2291
18816TIP3   OH277862   0.520   3.402   2.284 -0.0650  0.1740  0.4517
18816TIP3    H177863   0.531   3.493   2.258  0.2009 -0.4805 -1.9202
18816TIP3    H277864   0.582   3.354   2.231  1.2697 -1.2576  3.0983
18817TIP3   OH277865   6.630   3.973   1.740 -0.1994 -0.3922  0.0695
18817TIP3    H177866   6.624   4.039   1.670 -0.7699  0.0095  0.4846
18817TIP3    H277867   6.674   3.898   1.699 -0.7518 -0.2591 -0.7979
18818TIP3   OH277868   0.198   4.750   4.974  0.2298  0.1788 -0.8422
18818TIP3    H177869   0.239   4.723   5.056  0.5888 -2.1020 -1.6890
18818TIP3    H277870   0.116   4.700   4.970  1.5631 -2.1059 -3.1163
18819TIP3   OH277871   1.568   5.576  10.372 -0.2619  0.1613 -0.2765
18819TIP3    H177872   1.512   5.507  10.336  0.7320 -0.7056 -0.2120
18819TIP3    H277873   1.627   5.597  10.300  0.7163 -0.4694  0.3187
18820TIP3   OH277874   5.638   2.108  15.180 -0.1188 -0.1055  0.2884
18820TIP3    H177875   5.618   2.201  15.182 -1.4312 -0.3581  0.3422
18820TIP3    H277876   5.553   2.065  15.194  0.3325 -1.3100 -0.4275
18821TIP3   OH277877   3.680   2.636  12.998 -0.3229  0.1760 -0.1143
18821TIP3    H177878   3.675   2.562  12.937  1.3833  0.5135 -0.7154
18821TIP3    H277879   3.705   2.595  13.082  2.5778  0.1889 -0.8818
18822TIP3   OH277880   2.111   1.300   5.324 -0.1463  0.1207  0.2012
18822TIP3    H177881   2.017   1.291   5.306  0.0505  0.1854 -0.9850
18822TIP3    H277882   2.121   1.391   5.351 -0.4956 -0.0225  0.8229
18823TIP3   OH277883   5.689   6.637  13.853  0.1686  0.8611 -0.0805
18823TIP3    H177884   5.623   6.612  13.918  0.2170  1.1565  0.0808
18823TIP3    H277885   5.772   6.605  13.890 -0.0395 -0.7049 -0.9023
18824TIP3   OH277886   5.510   3.510   4.884  0.7828  0.0867  0.3380
18824TIP3    H177887   5.535   3.537   4.795 -0.6349  0.3217 -0.0095
18824TIP3    H277888   5.472   3.589   4.923  0.8442 -0.1817  0.9493
18825TIP3   OH277889   0.899   5.675  12.782 -0.7123  0.5886  0.5238
18825TIP3    H177890   0.925   5.593  12.739  2.0923  1.5923  0.0780
18825TIP3    H277891   0.825   5.650  12.837 -0.8866 -1.9290 -0.6704
18826TIP3   OH277892   5.814   2.756   4.960  0.1715 -0.6822 -1.2591
18826TIP3    H177893   5.744   2.791   5.016  0.2823 -2.1835 -0.1200
18826TIP3    H277894   5.768   2.717   4.886 -0.3015 -2.1904 -0.2245
18827TIP3   OH277895   3.194   1.948   3.172 -0.0918  0.6114  0.9984
18827TIP3    H177896   3.144   1.963   3.091 -0.1506  0.4394  1.0024
18827TIP3    H277897   3.127   1.938   3.240 -0.0225  1.6014  1.2166
18828TIP3   OH277898   2.934   3.352  16.541 -0.3657  0.2521  0.4793
18828TIP3    H177899   2.926   3.399  16.624  0.8420 -1.0776  1.3959
18828TIP3    H277900   2.909   3.262  16.563  0.5520 -0.2419 -0.4602
18829TIP3   OH277901   5.003   4.756   0.504  0.1232 -0.3285  0.1353
18829TIP3    H177902   5.031   4.725   0.418  0.6010  0.8852 -0.1757
18829TIP3    H277903   5.019   4.682   0.563 -0.7634 -1.3814 -0.8985
18830TIP3   OH277904   5.256   2.783   2.237  0.0531  0.4704  0.0726
18830TIP3    H177905   5.253   2.817   2.147  1.6608  0.5448  0.0213
18830TIP3    H277906   5.216   2.697   2.231 -1.7169  1.2698 -0.2951
18831TIP3   OH277907   5.683   4.559   5.628 -0.2905  0.1802  0.3060
18831TIP3    H177908   5.675   4.640   5.678  0.6905  0.2809  0.3155
18831TIP3    H277909   5.601   4.512   5.645 -0.1480  0.3874  1.6807
18832TIP3   OH277910   6.698   6.568  16.860 -0.4715 -0.0196  0.2727
18832TIP3    H177911   6.765   6.576  16.927 -0.3230  0.3965  0.0798
18832TIP3    H277912   6.632   6.634  16.883 -2.1250 -2.0698  1.9081
18833TIP3   OH277913   3.067   1.715  16.175 -0.2724 -0.1752 -0.1611
18833TIP3    H177914   3.094   1.751  16.260 -1.0373 -0.8253  0.3732
18833TIP3    H277915   3.139   1.657  16.150  0.9036  1.5349 -0.9570
18834TIP3   OH277916   6.234   1.524   2.646  0.5339 -0.1258  0.5464
18834TIP3    H177917   6.212   1.599   2.592 -0.5377  0.2040  1.4135
18834TIP3    H277918   6.250   1.560   2.733  0.6228 -0.8295  0.8333
18835TIP3   OH277919   0.518   1.340  11.873  0.1485  0.0101 -0.5626
18835TIP3    H177920   0.508   1.245  11.880 -1.9716  0.0834 -1.8219
18835TIP3    H277921   0.432   1.372  11.847 -0.0645  2.6694  2.7038
18836TIP3   OH277922   2.843   1.780  11.812 -0.3058  0.5328 -0.3098
18836TIP3    H177923   2.801   1.822  11.887 -2.9428 -0.2106 -1.2641
18836TIP3    H277924   2.805   1.692  11.808  0.7272  0.0940 -1.7788
18837TIP3   OH277925   5.977   0.153  13.110 -0.0231  0.0538  0.0001
18837TIP3    H177926   5.993   0.088  13.179 -0.0416 -1.4118 -1.3138
18837TIP3    H277927   5.888   0.136  13.081  0.3520 -0.0868 -1.1148
18838TIP3   OH277928   6.696   3.002   4.002 -0.0557  0.4011 -0.2675
18838TIP3    H177929   6.680   2.908   4.010  1.1406  0.0632 -1.4502
18838TIP3    H277930   6.626   3.043   4.052 -0.2128 -1.1356  0.8274
18839TIP3   OH277931   1.230   5.244  12.804  0.6295 -0.1923 -0.0919
18839TIP3    H177932   1.207   5.152  12.816 -0.0829 -0.0654 -0.4220
18839TIP3    H277933   1.280   5.246  12.722 -0.5147 -0.1156 -0.8117
18840TIP3   OH277934   3.414   0.605   5.955 -0.4980  0.4228 -0.5134
18840TIP3    H177935   3.355   0.529   5.955 -1.0806  0.8547 -1.5140
18840TIP3    H277936   3.375   0.666   6.017 -0.7319  0.4109 -0.6444
18841TIP3   OH277937   3.520   3.635  13.655  0.5054 -0.0358  0.1659
18841TIP3    H177938   3.567   3.573  13.710  2.1349 -0.5935 -1.7579
18841TIP3    H277939   3.427   3.613  13.669  0.8490 -0.2627  2.4743
18842TIP3   OH277940   1.583   0.516  12.937  0.5621  0.2262 -0.3122
18842TIP3    H177941   1.501   0.486  12.898  0.8407 -0.2043 -0.5798
18842TIP3    H277942   1.646   0.512  12.866  1.0850 -0.6032  0.1831
18843TIP3   OH277943   0.483   4.278  13.204  0.2772  0.1132 -0.5370
18843TIP3    H177944   0.496   4.334  13.281 -2.0528 -0.2209  0.1625
18843TIP3    H277945   0.388   4.268  13.196  0.5290 -1.7363 -2.1180
18844TIP3   OH277946   0.280   3.031  17.172  0.1493  0.0117 -0.1603
18844TIP3    H177947   0.353   2.973  17.151 -0.1212 -0.0896 -0.8709
18844TIP3    H277948   0.219   3.020  17.098 -0.1399  0.8192 -0.0512
18845TIP3   OH277949   0.048   1.151   1.077 -0.1087 -0.0484 -0.0393
18845TIP3    H177950  -0.037   1.106   1.073  0.0490 -0.3685  0.2418
18845TIP3    H277951   0.025   1.244   1.070 -0.5856 -0.0543  1.1465
18846TIP3   OH277952   1.342   3.413   4.886 -0.2310  0.2818 -0.1191
18846TIP3    H177953   1.385   3.363   4.956 -1.0324  2.1114  1.8026
18846TIP3    H277954   1.256   3.372   4.876 -0.1331  0.0432  0.0096
18847TIP3   OH277955   2.101   0.062  17.086 -0.0067  0.6325  0.0694
18847TIP3    H177956   2.157  -0.009  17.054  0.0120  0.2191  0.9912
18847TIP3    H277957   2.105   0.129  17.018  1.2186  0.3971 -0.1038
18848TIP3   OH277958   0.126   1.601   4.051  0.5054  0.0451 -0.3843
18848TIP3    H177959   0.138   1.648   3.968 -0.0635  0.8219 -0.0440
18848TIP3    H277960   0.143   1.666   4.118  0.3333 -0.4115  0.1080
18849TIP3   OH277961   0.990   3.273   0.102  0.0315 -0.0670 -0.1147
18849TIP3    H177962   0.919   3.337   0.093 -0.7465 -0.7581  0.8381
18849TIP3    H277963   0.992   3.228   0.018 -2.1642 -1.5091  0.5220
18850TIP3   OH277964   3.292   1.797  12.795  0.0091 -0.3252  0.4569
18850TIP3    H177965   3.315   1.859  12.865 -0.2471  0.3434 -0.0369
18850TIP3    H277966   3.230   1.845  12.741 -0.2308 -1.0420  0.0857
18851TIP3   OH277967   0.140   3.738   5.210  0.0712 -0.1403  0.2229
18851TIP3    H177968   0.062   3.699   5.248  1.0738 -1.8247  0.6486
18851TIP3    H277969   0.209   3.722   5.275  1.5273 -1.8811 -1.6409
18852TIP3   OH277970   0.384   5.619   4.101  0.0532  0.4410  0.1814
18852TIP3    H177971   0.315   5.668   4.146  0.2342  1.5312 -0.6764
18852TIP3    H277972   0.342   5.588   4.020  0.4160  0.6591 -0.0950
18853TIP3   OH277973   6.778   4.672  14.899  0.5052  0.3980  0.2483
18853TIP3    H177974   6.857   4.629  14.933  0.0254 -0.7745 -0.0451
18853TIP3    H277975   6.725   4.689  14.977  0.8819  0.8486  0.4101
18854TIP3   OH277976   2.427   4.912  12.121 -0.1977  0.1962  0.2810
18854TIP3    H177977   2.359   4.918  12.188 -0.3391  0.2263  0.1354
18854TIP3    H277978   2.480   4.836  12.146 -0.8075 -0.3634 -0.0825
18855TIP3   OH277979   1.355   2.805  17.189  0.2692 -0.4707  0.1247
18855TIP3    H177980   1.395   2.847  17.113  1.2814 -1.0670  0.3180
18855TIP3    H277981   1.298   2.872  17.227 -0.2482 -0.1636 -1.1529
18856TIP3   OH277982   6.151   0.272   2.458 -0.3754 -0.1229 -0.4805
18856TIP3    H177983   6.234   0.270   2.506 -0.5031 -1.7553 -0.2932
18856TIP3    H277984   6.084   0.285   2.526 -0.2585  2.3806 -0.7344
18857TIP3   OH277985   4.668   0.150  15.767  0.2561  0.2193  0.2372
18857TIP3    H177986   4.606   0.215  15.734 -0.5078  0.4750  2.0583
18857TIP3    H277987   4.715   0.195  15.837 -0.3115 -1.1822  1.5668
18858TIP3   OH277988   0.483   5.554  12.368 -0.4382  0.3219  0.1025
18858TIP3    H177989   0.513   5.556  12.277 -1.4681  2.8591 -0.2579
18858TIP3    H277990   0.433   5.472  12.375  2.7817 -1.8950 -0.4358
18859TIP3   OH277991   0.922   1.545  14.020 -0.3845 -0.6210  0.1749
18859TIP3    H177992   0.911   1.458  14.057  1.0153 -1.1268 -0.5120
18859TIP3    H277993   0.968   1.595  14.087 -1.6585 -0.2169  0.7833
18860TIP3   OH277994   1.107   1.694   0.773 -0.0949 -0.8237 -0.2124
18860TIP3    H177995   1.151   1.731   0.697 -0.6779  0.0781 -0.1193
18860TIP3    H277996   1.159   1.617   0.796  1.8867  0.6105  0.3410
18861TIP3   OH277997   0.560   3.775   4.360  0.8332 -0.0084  0.3094
18861TIP3    H177998   0.501   3.731   4.299  0.1804 -1.3475  1.8431
18861TIP3    H277999   0.622   3.707   4.386  0.2260  0.1269  2.2091
18862TIP3   OH278000   0.591   1.522   5.551  0.0982  0.2394  0.0869
18862TIP3    H178001   0.580   1.456   5.482 -1.2067  0.8993 -0.3536
18862TIP3    H278002   0.684   1.543   5.548 -0.1087  1.0944 -2.2833
18863TIP3   OH278003   5.142   3.355  14.338 -0.4536 -0.3527 -0.1042
18863TIP3    H178004   5.206   3.289  14.364 -1.6288 -1.7072 -0.4805
18863TIP3    H278005   5.128   3.340  14.245 -0.0178  1.1072 -0.4221
18864TIP3   OH278006   1.579   2.019  12.275  0.6271 -0.0933 -0.4409
18864TIP3    H178007   1.513   2.063  12.328 -0.0474  0.0596 -1.3675
18864TIP3    H278008   1.628   2.091  12.234  2.3583 -0.1759  1.3580
18865TIP3   OH278009   1.398   0.456   2.806  0.0375 -0.2037 -0.4911
18865TIP3    H178010   1.417   0.550   2.811 -1.3264  0.0938 -0.4941
18865TIP3    H278011   1.484   0.415   2.801  0.6381  1.1078 -1.6864
18866TIP3   OH278012   2.578   0.094   5.919 -0.7280 -0.5208 -0.3270
18866TIP3    H178013   2.640   0.023   5.905  0.0677  0.5798 -3.0708
18866TIP3    H278014   2.614   0.143   5.994  2.6347  0.8622 -2.6029
18867TIP3   OH278015   4.661   1.484   1.917  0.2407 -0.5805 -0.2875
18867TIP3    H178016   4.755   1.473   1.935 -0.2408 -2.3677  1.4537
18867TIP3    H278017   4.644   1.428   1.842  0.6305  0.1061 -0.9007
18868TIP3   OH278018   4.546   6.731  15.898 -0.2671  0.2893  0.4830
18868TIP3    H178019   4.579   6.802  15.844 -0.5160 -1.1047 -1.6447
18868TIP3    H278020   4.622   6.701  15.948  1.5894 -1.9416 -3.2617
18869TIP3   OH278021   1.964   2.360  13.895 -0.2315  0.2400  0.1382
18869TIP3    H178022   1.925   2.394  13.814 -0.9411 -2.1656 -0.5999
18869TIP3    H278023   2.058   2.362  13.879 -0.2445  1.5614  0.0550
18870TIP3   OH278024   1.159   1.682  14.989  0.0443  0.3485 -0.2995
18870TIP3    H178025   1.102   1.645  15.057  3.5282 -3.9523  0.7889
18870TIP3    H278026   1.231   1.722  15.038  0.9081  0.2997 -1.4989
18871TIP3   OH278027   1.148   3.849   2.079 -0.2237 -0.1038  0.2987
18871TIP3    H178028   1.148   3.945   2.086  0.1994 -0.1975  2.0871
18871TIP3    H278029   1.234   3.823   2.111 -0.4159 -1.1058  0.0284
18872TIP3   OH278030   2.943   1.081   2.269  0.0200  0.2010  0.1116
18872TIP3    H178031   2.889   1.012   2.230  0.1609  0.9940 -1.6103
18872TIP3    H278032   3.023   1.080   2.217  0.8969  0.2826  1.4295
18873TIP3   OH278033   2.286   4.355  16.251 -0.1490 -0.6658  0.1482
18873TIP3    H178034   2.214   4.307  16.289 -0.5693 -0.1170  0.0640
18873TIP3    H278035   2.287   4.328  16.159 -1.0806  0.2871 -0.1571
18874TIP3   OH278036   6.720   0.688   4.865  0.0561 -0.3436  0.4469
18874TIP3    H178037   6.721   0.602   4.908 -0.7581 -0.0200  1.1540
18874TIP3    H278038   6.655   0.738   4.915  0.2749  0.5715 -0.1731
18875TIP3   OH278039   6.342   5.525   3.820  0.8420 -0.0039 -0.0548
18875TIP3    H178040   6.366   5.556   3.907 -1.4075  1.5047  0.0903
18875TIP3    H278041   6.267   5.578   3.795  2.3231  0.7176 -3.5896
18876TIP3   OH278042   6.074   0.886  11.922 -0.0228 -0.2122  0.0710
18876TIP3    H178043   6.103   0.977  11.912 -2.0382  0.5113  0.2462
18876TIP3    H278044   6.130   0.850  11.991 -1.4081  2.0122  2.5486
18877TIP3   OH278045   3.224   4.408   1.905  0.0687  0.6343  0.0891
18877TIP3    H178046   3.236   4.410   1.811 -0.7022  0.0096 -0.0355
18877TIP3    H278047   3.183   4.324   1.923 -1.2469  1.3816  0.7822
18878TIP3   OH278048   3.787   4.537   5.673  0.5874  0.7072 -0.4447
18878TIP3    H178049   3.831   4.453   5.689 -0.6642  0.1395  0.1363
18878TIP3    H278050   3.727   4.547   5.747  0.4580  1.9508 -0.6951
18879TIP3   OH278051   4.407   1.083  11.273  0.1662 -0.2207  0.2446
18879TIP3    H178052   4.497   1.089  11.241 -0.5149  1.5759 -1.5077
18879TIP3    H278053   4.386   0.990  11.264  1.6188 -0.5713  0.0964
18880TIP3   OH278054   1.374   4.814   0.012  0.3255  0.5817 -0.3312
18880TIP3    H178055   1.410   4.781   0.094 -1.3801  0.1236  0.2754
18880TIP3    H278056   1.392   4.908   0.015  2.1473  0.2793 -0.4593
18881TIP3   OH278057   6.736   6.070   1.426 -0.1658 -0.1655  0.2120
18881TIP3    H178058   6.762   6.127   1.353 -0.4816  0.3569  0.4973
18881TIP3    H278059   6.674   6.123   1.476 -0.7624 -0.9133  0.2733
18882TIP3   OH278060   1.778   5.378   0.723 -0.4567  0.9516  0.4119
18882TIP3    H178061   1.870   5.352   0.729 -0.4833 -0.1122 -2.2311
18882TIP3    H278062   1.779   5.452   0.662 -1.3486  1.0426  0.4998
18883TIP3   OH278063   4.718   0.573   4.028  0.0566  0.2004  0.0386
18883TIP3    H178064   4.635   0.530   4.004  0.2874 -0.9185  1.1210
18883TIP3    H278065   4.713   0.582   4.123  1.4468 -0.4906  0.1989
18884TIP3   OH278066   6.165   6.110   4.332 -0.2923 -0.5843 -0.1450
18884TIP3    H178067   6.142   6.058   4.255  1.1224  0.1243 -1.0763
18884TIP3    H278068   6.142   6.199   4.307 -0.5327 -0.4500  0.5545
18885TIP3   OH278069   5.122   4.917   2.626 -0.7432  0.3228  0.0705
18885TIP3    H178070   5.133   4.822   2.634 -0.4378  0.3039 -0.4902
18885TIP3    H278071   5.035   4.934   2.660 -1.1113 -0.2654 -0.5427
18886TIP3   OH278072   3.501   1.922   0.622  0.0656  0.5064  0.3520
18886TIP3    H178073   3.416   1.958   0.645 -0.5605 -0.5054 -0.3430
18886TIP3    H278074   3.544   1.906   0.706 -1.5279 -1.5723  0.8335
18887TIP3   OH278075   4.546   4.441   2.801 -0.4015 -0.0535  0.1308
18887TIP3    H178076   4.454   4.468   2.802 -0.8370 -1.4004  1.6152
18887TIP3    H278077   4.545   4.353   2.764  0.2494 -0.2078  0.4685
18888TIP3   OH278078   2.973   3.945   0.111  0.6127 -0.2920 -0.0169
18888TIP3    H178079   3.056   3.984   0.138 -0.1437  1.1793  0.2976
18888TIP3    H278080   2.916   4.020   0.093 -1.1643 -1.2365  1.3692
18889TIP3   OH278081   3.397   2.814  14.774 -0.1928 -0.2520 -0.3950
18889TIP3    H178082   3.340   2.790  14.847 -1.3575  1.2811 -0.7263
18889TIP3    H278083   3.385   2.743  14.711 -0.1567 -0.9625  0.3853
18890TIP3   OH278084   4.343   3.181  15.438 -0.4531 -0.2860  0.5818
18890TIP3    H178085   4.369   3.108  15.494 -1.4712 -0.4842  0.8086
18890TIP3    H278086   4.425   3.228  15.419  0.1833 -1.3780  0.5786
18891TIP3   OH278087   6.473   4.407   5.525  0.1681 -0.2598  0.6615
18891TIP3    H178088   6.491   4.499   5.504  2.6084 -0.9273 -0.6377
18891TIP3    H278089   6.379   4.403   5.540  0.0388  2.4811  1.0017
18892TIP3   OH278090   5.505   5.277  15.989  0.2774  0.7643  0.4632
18892TIP3    H178091   5.571   5.237  15.932 -0.2566  0.8380 -0.2270
18892TIP3    H278092   5.533   5.368  15.998  0.5885  0.6513  0.6666
18893TIP3   OH278093   6.256   3.078  10.918 -0.7043  0.3302  0.0021
18893TIP3    H178094   6.329   3.137  10.934 -1.5458  1.4434 -0.0825
18893TIP3    H278095   6.276   3.037  10.834 -1.8749  3.4850 -2.0318
18894TIP3   OH278096   3.911   5.725   3.962 -0.6765  0.5903 -0.1553
18894TIP3    H178097   3.840   5.730   3.898  0.6834  1.1665 -1.6647
18894TIP3    H278098   3.906   5.807   4.010 -1.9961 -0.0384  0.8735
18895TIP3   OH278099   1.033   2.107  17.111 -0.2696 -0.1517  0.2468
18895TIP3    H178100   1.016   2.197  17.081 -3.4050 -0.1009  1.8367
18895TIP3    H278101   1.128   2.103  17.119 -0.0226  3.1253  0.4058
18896TIP3   OH278102   2.959   1.445   0.520  0.1181 -0.1062 -0.0812
18896TIP3    H178103   2.961   1.349   0.516  0.0861 -0.0658 -1.7940
18896TIP3    H278104   3.034   1.468   0.574 -0.8306 -1.1153  1.7950
18897TIP3   OH278105   2.311   6.545  17.010 -0.6921  0.3003 -0.2031
18897TIP3    H178106   2.229   6.506  16.980  0.7001 -1.5450 -1.8770
18897TIP3    H278107   2.373   6.472  17.010  1.3952  2.0122 -0.7818
18898TIP3   OH278108   4.145   3.579   3.777  0.1792 -1.0229 -0.5204
18898TIP3    H178109   4.123   3.637   3.705 -1.2463 -0.6205  0.2097
18898TIP3    H278110   4.204   3.630   3.832  2.9928 -2.0248 -2.3613
18899TIP3   OH278111   1.021   1.079  11.450  0.1256  0.2930 -0.0047
18899TIP3    H178112   1.092   1.073  11.515  1.5653  2.1685 -1.2941
18899TIP3    H278113   1.006   1.173  11.440 -0.3743  0.0299 -2.0504
18900TIP3   OH278114   4.502   0.750  16.113 -0.4834  0.5028  0.5616
18900TIP3    H178115   4.515   0.838  16.148  1.0584 -0.0726  1.5188
18900TIP3    H278116   4.408   0.733  16.127 -0.6322  1.6622  1.1320
18901TIP3   OH278117   0.656   1.944  12.981  0.3549  0.2411 -0.0406
18901TIP3    H178118   0.651   1.851  12.956  2.9854  0.1897 -0.7094
18901TIP3    H278119   0.630   1.991  12.901 -1.0783  0.1162  0.3289
18902TIP3   OH278120   0.253   2.883  16.887 -0.4301 -0.3751 -0.3841
18902TIP3    H178121   0.248   2.791  16.914 -0.2963 -0.4932 -0.7537
18902TIP3    H278122   0.162   2.911  16.880 -0.4976 -0.7467 -1.1508
18903TIP3   OH278123   0.082   2.191  11.460 -0.0525 -0.3402 -0.8075
18903TIP3    H178124   0.033   2.272  11.453  3.1054  1.7043 -1.1524
18903TIP3    H278125   0.046   2.135  11.391 -1.7981  1.0286 -1.0656
18904TIP3   OH278126   0.216   0.218  15.474  1.0750  0.4413 -0.2740
18904TIP3    H178127   0.130   0.225  15.516  1.6824 -0.0339  1.1125
18904TIP3    H278128   0.223   0.297  15.421 -0.2058  0.4968 -0.3821
18905TIP3   OH278129   0.675   2.839   5.693 -0.5473 -0.0206 -0.1400
18905TIP3    H178130   0.610   2.783   5.737 -1.5319 -0.1551 -1.7057
18905TIP3    H278131   0.643   2.847   5.604  0.1761  2.1550 -0.2440
18906TIP3   OH278132   0.837   5.221  16.604  0.0829  0.7945  0.3521
18906TIP3    H178133   0.849   5.142  16.658  0.1454  1.8811  2.0025
18906TIP3    H278134   0.782   5.192  16.531  1.9525 -1.3003 -0.3508
18907TIP3   OH278135   2.589   1.968   3.051 -0.5637 -0.0614  0.2566
18907TIP3    H178136   2.527   1.964   2.978 -0.5719  1.0123  0.1938
18907TIP3    H278137   2.627   2.055   3.045  0.5444 -0.5104  0.6371
18908TIP3   OH278138   4.406   1.853   6.287 -0.0942  0.1704  0.5464
18908TIP3    H178139   4.352   1.774   6.290  1.2841 -0.8364 -0.1048
18908TIP3    H278140   4.465   1.845   6.362  0.1309  0.5375  0.4120
18909TIP3   OH278141   4.659   3.379  11.370 -0.1590 -0.1866  0.2246
18909TIP3    H178142   4.740   3.370  11.319  0.8335  2.1810  1.2301
18909TIP3    H278143   4.594   3.406  11.306  0.7616  1.4597 -0.0882
18910TIP3   OH278144   5.187   3.244  12.201 -0.5492  0.4311  0.0570
18910TIP3    H178145   5.099   3.253  12.166 -0.6264 -0.1635  0.0761
18910TIP3    H278146   5.240   3.308  12.153 -0.6724 -0.2984 -1.0907
18911TIP3   OH278147   3.222   1.700   1.009 -0.0203 -0.2583 -0.2240
18911TIP3    H178148   3.219   1.783   1.057 -1.2907  0.0337 -0.7596
18911TIP3    H278149   3.225   1.726   0.917 -0.0133 -0.8150 -0.3845
18912TIP3   OH278150   1.329   4.472   2.337  0.3142  0.1117  0.1591
18912TIP3    H178151   1.423   4.476   2.319  0.4841  3.6255  1.0117
18912TIP3    H278152   1.288   4.488   2.252  0.5451 -0.0963  0.0080
18913TIP3   OH278153   4.967   5.047   3.832  0.2233  0.0167  0.4969
18913TIP3    H178154   4.892   5.079   3.882  1.2845 -0.8887  2.8240
18913TIP3    H278155   5.027   5.122   3.827  0.9635 -0.3693  2.4344
18914TIP3   OH278156   2.284   5.167  11.848  0.1186 -0.9580 -0.4349
18914TIP3    H178157   2.279   5.204  11.936  0.7499 -2.5211  0.2910
18914TIP3    H278158   2.369   5.196  11.815 -0.7436  0.8928 -1.1654
18915TIP3   OH278159   2.338   4.306   1.148 -0.0626 -0.1462 -0.3004
18915TIP3    H178160   2.275   4.293   1.218  0.2874  2.3749  0.5754
18915TIP3    H278161   2.413   4.252   1.172 -0.8051 -1.0717  0.0249
18916TIP3   OH278162   6.332   4.854   5.726 -0.2620  0.2358 -0.3502
18916TIP3    H178163   6.255   4.836   5.780  0.0316 -0.7049 -0.2255
18916TIP3    H278164   6.323   4.796   5.651  0.4888 -0.1288 -0.1719
18917TIP3   OH278165   4.110   2.358  14.393 -0.4308  0.0517  0.5888
18917TIP3    H178166   4.134   2.267  14.405 -0.3275  0.0474  0.3443
18917TIP3    H278167   4.020   2.364  14.426  0.0499  0.1631  1.9327
18918TIP3   OH278168   2.952   5.110   1.431  0.3790 -0.2414  0.5982
18918TIP3    H178169   2.949   5.051   1.507 -1.7269 -2.8905 -1.3027
18918TIP3    H278170   2.998   5.060   1.364  0.4709  1.2079 -0.4626
18919TIP3   OH278171   3.392   4.163   1.736 -0.1489 -0.2086  0.1734
18919TIP3    H178172   3.357   4.153   1.647  3.1803 -1.9236 -1.1106
18919TIP3    H278173   3.340   4.103   1.789 -0.7425 -0.8699 -1.1104
18920TIP3   OH278174   0.030   5.266   5.494 -0.1859  0.3042  0.0299
18920TIP3    H178175   0.106   5.208   5.502 -1.2344 -0.9152  1.9758
18920TIP3    H278176   0.060   5.350   5.529  0.4188 -0.0034  0.2729
18921TIP3   OH278177   6.439   6.293   4.527  0.7449 -0.0575  0.0250
18921TIP3    H178178   6.435   6.197   4.529 -0.6741 -0.0241  1.0349
18921TIP3    H278179   6.505   6.316   4.592  0.5205 -0.3526  0.3624
18922TIP3   OH278180   6.469   2.366   2.045  0.2981 -0.5012 -0.4047
18922TIP3    H178181   6.431   2.295   1.993 -2.0380  0.8168 -0.6624
18922TIP3    H278182   6.505   2.427   1.981  1.8529 -1.1545 -0.2035
18923TIP3   OH278183   2.935   5.057   5.148 -0.2180  0.4331 -0.3911
18923TIP3    H178184   2.921   5.121   5.218 -0.5020 -1.3407  1.3046
18923TIP3    H278185   2.849   5.048   5.106 -1.1522 -1.2372  1.6546
18924TIP3   OH278186   2.207   3.555  15.241 -0.8704 -0.1065 -0.3626
18924TIP3    H178187   2.293   3.589  15.268 -0.1034 -1.9999 -0.2743
18924TIP3    H278188   2.153   3.565  15.320 -1.1973  2.3230 -0.7965
18925TIP3   OH278189   2.573   6.157  15.307 -0.0533 -0.3662  0.3184
18925TIP3    H178190   2.642   6.166  15.242 -0.2679  2.2567  0.3539
18925TIP3    H278191   2.604   6.207  15.383 -1.0470 -0.9856  1.1722
18926TIP3   OH278192   6.518   2.097  15.350 -1.0348 -0.3336  0.1444
18926TIP3    H178193   6.476   2.074  15.267  0.9031  0.3102 -1.0658
18926TIP3    H278194   6.568   2.019  15.374 -0.5311 -0.0480  0.0187
18927TIP3   OH278195   2.894   6.258   5.273 -0.7057 -0.1743  0.2937
18927TIP3    H178196   2.911   6.177   5.320  2.7775 -0.3683 -0.9651
18927TIP3    H278197   2.933   6.326   5.328 -2.4189  0.5367  0.7032
18928TIP3   OH278198   2.389   3.498   6.030  0.4959  0.6931 -0.6348
18928TIP3    H178199   2.398   3.588   5.998 -0.0657 -0.2440 -3.7512
18928TIP3    H278200   2.294   3.485   6.037  0.5855  0.6050  0.8263
18929TIP3   OH278201   1.171   2.003  11.585  0.4088 -0.1502  0.4198
18929TIP3    H178202   1.119   1.928  11.615 -0.0207  1.3136  3.7497
18929TIP3    H278203   1.248   1.964  11.544 -1.4168 -2.3649 -1.1884
18930TIP3   OH278204   0.701   3.775   5.988 -0.0624 -0.0286  0.1730
18930TIP3    H178205   0.664   3.709   6.046  0.8368 -0.1844  0.5808
18930TIP3    H278206   0.795   3.758   5.989 -0.0416 -0.1827 -1.5129
18931TIP3   OH278207   5.282   5.528  11.180 -0.0201 -0.4256 -0.4551
18931TIP3    H178208   5.334   5.449  11.161 -0.6337 -1.2463  1.1106
18931TIP3    H278209   5.326   5.568  11.255 -1.3955 -0.9561  0.6879
18932TIP3   OH278210   6.257   3.991  16.866 -0.0327 -0.0850 -0.2950
18932TIP3    H178211   6.270   4.043  16.787 -0.6171  1.2920  0.4837
18932TIP3    H278212   6.345   3.958  16.888  0.1863 -0.1904 -1.3189
18933TIP3   OH278213   5.183   1.717   1.978 -0.2406  0.3050  0.3491
18933TIP3    H178214   5.208   1.632   2.014 -1.7739  0.3025  1.5156
18933TIP3    H278215   5.152   1.698   1.889  3.4985  0.3005 -1.1131
18934TIP3   OH278216   3.832   4.840  14.379 -0.5432 -0.0439  0.1791
18934TIP3    H178217   3.886   4.897  14.323 -0.6293  1.8484  1.8995
18934TIP3    H278218   3.746   4.881  14.380 -0.6123 -0.1806  1.4686
18935TIP3   OH278219   1.552   5.353  10.078  0.0455 -0.4005  0.2002
18935TIP3    H178220   1.512   5.391  10.156 -1.2765  0.7833 -0.9714
18935TIP3    H278221   1.549   5.259  10.092 -1.2087 -0.2551  1.1199
18936TIP3   OH278222   0.452   5.233  15.855  0.0870 -0.1796 -0.0377
18936TIP3    H178223   0.528   5.274  15.896 -0.8201 -0.7947  2.4269
18936TIP3    H278224   0.397   5.306  15.828  1.6652  0.2889 -2.2865
18937TIP3   OH278225   5.672   4.690   0.241 -0.2122  0.2128 -0.1153
18937TIP3    H178226   5.696   4.780   0.220  3.7239 -0.6089  0.1389
18937TIP3    H278227   5.645   4.652   0.158 -1.9456  1.5462 -0.2225
18938TIP3   OH278228   4.859   4.875   5.551  0.9087 -0.4223  0.9442
18938TIP3    H178229   4.862   4.966   5.583 -1.6804 -0.4031  1.3355
18938TIP3    H278230   4.828   4.883   5.461  0.2541 -0.9396  1.1237
18939TIP3   OH278231   5.092   1.213   4.596 -0.1827  0.5078 -0.0910
18939TIP3    H178232   5.032   1.231   4.524 -1.4987 -0.5980  0.6717
18939TIP3    H278233   5.138   1.295   4.611 -2.0988  1.6448 -0.1743
18940TIP3   OH278234   5.998   3.131   5.956 -0.1614 -0.4797 -0.2799
18940TIP3    H178235   5.988   3.140   6.051  0.5340  2.2894 -0.3666
18940TIP3    H278236   5.909   3.129   5.922 -0.4783  1.6911  0.2936
18941TIP3   OH278237   6.150   3.756   0.924  0.3816  0.3196 -0.0293
18941TIP3    H178238   6.228   3.744   0.869  0.9923 -0.8482  1.0269
18941TIP3    H278239   6.171   3.831   0.979  0.0886  1.0073 -0.8429
18942TIP3   OH278240   0.725   2.573  12.172  0.3057  0.4962  0.0017
18942TIP3    H178241   0.652   2.522  12.208 -0.2276  0.6203 -0.8688
18942TIP3    H278242   0.705   2.664  12.194  0.8923  0.4084  0.9321
18943TIP3   OH278243   1.663   6.643   4.349 -0.0605 -0.1658  0.0474
18943TIP3    H178244   1.632   6.567   4.300  2.8708 -0.5580 -1.4599
18943TIP3    H278245   1.708   6.607   4.425 -0.3042  0.1640  0.3492
18944TIP3   OH278246   2.632   4.524  11.316  0.0931 -0.2368 -0.4641
18944TIP3    H178247   2.554   4.512  11.369  0.3607  0.2358  0.0519
18944TIP3    H278248   2.629   4.615  11.288  2.1168  0.8697  2.3721
18945TIP3   OH278249   0.889   4.317  12.616 -0.2996  0.2503  0.1022
18945TIP3    H178250   0.919   4.261  12.688 -1.8683  0.4036  0.9229
18945TIP3    H278251   0.804   4.280  12.591 -0.0066  0.4913 -1.3757
18946TIP3   OH278252   4.675   5.805  17.040 -0.1214  0.3022  0.2480
18946TIP3    H178253   4.633   5.875  16.991  2.3934  0.5026 -1.8897
18946TIP3    H278254   4.673   5.730  16.981 -0.4760 -0.6749  1.4639
18947TIP3   OH278255   5.155   6.776   0.973 -0.2054 -0.0029  0.7057
18947TIP3    H178256   5.141   6.842   0.905  0.7941  0.6691  1.1281
18947TIP3    H278257   5.218   6.715   0.935 -1.3560 -0.9315  0.1993
18948TIP3   OH278258   6.377   1.046  13.011 -0.8403 -0.4081 -0.1966
18948TIP3    H178259   6.323   1.074  13.084 -2.7044 -0.5907 -1.4400
18948TIP3    H278260   6.418   0.964  13.041  1.8253  1.5440  2.1265
18949TIP3   OH278261   0.692   1.669  15.425 -0.1574  0.7819 -0.1280
18949TIP3    H178262   0.748   1.731  15.472  0.1709  0.8927 -0.6527
18949TIP3    H278263   0.607   1.712  15.419 -0.0852  0.9414 -0.0070
18950TIP3   OH278264   3.143   2.367  14.186  0.3787  0.2627 -0.2085
18950TIP3    H178265   3.204   2.326  14.247  0.8562 -0.6023 -1.2335
18950TIP3    H278266   3.145   2.311  14.108 -2.3429 -0.3124  0.0102
18951TIP3   OH278267   5.127   6.461  17.264  0.1413  0.0172  0.4504
18951TIP3    H178268   5.195   6.394  17.266 -0.0860 -0.2429 -0.2610
18951TIP3    H278269   5.062   6.431  17.326 -1.5721 -2.1927 -2.1949
18952TIP3   OH278270   2.267   4.118  12.127 -0.1127 -0.0255  0.2759
18952TIP3    H178271   2.278   4.064  12.206 -1.9759  0.0371  0.6252
18952TIP3    H278272   2.172   4.123  12.115  0.1247  0.0723 -1.9242
18953TIP3   OH278273   5.253   2.658   6.285 -0.3828  0.0905  1.0604
18953TIP3    H178274   5.277   2.566   6.275  0.1879  0.1322  1.9096
18953TIP3    H278275   5.207   2.662   6.369 -1.4473  0.3987  0.4964
18954TIP3   OH278276   5.932   4.470   0.649  0.2781 -0.6641 -0.2109
18954TIP3    H178277   5.963   4.379   0.653 -2.4188 -1.6737 -0.0292
18954TIP3    H278278   5.928   4.498   0.741  2.3151  0.1656 -0.3191
18955TIP3   OH278279   0.635   6.309   0.228 -0.1151 -0.4633  0.1147
18955TIP3    H178280   0.699   6.251   0.269  0.5251  0.5278  0.5510
18955TIP3    H278281   0.556   6.256   0.219  0.1528 -1.1093  1.4002
18956TIP3   OH278282   3.830   3.125  14.975  0.6230  0.3853 -0.8932
18956TIP3    H178283   3.768   3.075  14.921  2.3418 -0.1969 -2.4542
18956TIP3    H278284   3.849   3.068  15.049 -1.6122  1.1011  0.3103
18957TIP3   OH278285   2.762   4.362  11.869  0.2456  0.1965  0.2168
18957TIP3    H178286   2.694   4.387  11.807  0.6336 -1.3053 -0.8764
18957TIP3    H278287   2.742   4.271  11.891  1.9425 -0.3381 -0.2501
18958TIP3   OH278288   4.349   2.400   2.002  0.2657  0.0418  0.0348
18958TIP3    H178289   4.372   2.470   2.064 -0.0436  0.0079  0.1918
18958TIP3    H278290   4.411   2.409   1.930  1.1382 -0.4016  0.7125
18959TIP3   OH278291   3.470   6.187   3.642  0.0730  0.0314  0.1028
18959TIP3    H178292   3.536   6.203   3.574 -2.8951 -0.5017 -3.1936
18959TIP3    H278293   3.514   6.128   3.704  3.6500  2.2632 -0.0103
18960TIP3   OH278294   1.782   6.582  11.165  0.0723  0.1169 -0.0348
18960TIP3    H178295   1.834   6.516  11.119  0.4925  0.4892 -0.0972
18960TIP3    H278296   1.746   6.637  11.095 -0.8461 -0.4516 -0.0274
18961TIP3   OH278297   0.963   4.859  13.179 -0.1586 -0.2787  0.0509
18961TIP3    H178298   1.037   4.804  13.206 -0.5140 -0.3389  0.9405
18961TIP3    H278299   0.929   4.816  13.100  2.4076  1.2609 -2.0444
18962TIP3   OH278300   4.098   0.173  16.691  0.4634 -0.4451 -0.3412
18962TIP3    H178301   4.016   0.223  16.688 -0.5033 -1.9263 -0.0552
18962TIP3    H278302   4.165   0.234  16.661 -0.7735  0.7612 -0.7646
18963TIP3   OH278303   0.259   1.967  15.090  0.5316  0.0780 -0.6862
18963TIP3    H178304   0.170   1.947  15.119  0.9715 -0.4026  0.3853
18963TIP3    H278305   0.315   1.912  15.145  1.5497  1.0603 -0.7067
18964TIP3   OH278306   1.753   5.627  10.168  0.2392  0.0393 -0.0769
18964TIP3    H178307   1.798   5.552  10.129  1.5268 -0.4231  2.1894
18964TIP3    H278308   1.823   5.683  10.201 -0.7589  0.0145  2.2454
18965TIP3   OH278309   5.718   3.698  12.133 -0.1220  0.1105  0.1891
18965TIP3    H178310   5.701   3.754  12.057 -0.1383  0.0054  0.1152
18965TIP3    H278311   5.785   3.637  12.104 -0.3229 -0.1032  0.1727
18966TIP3   OH278312   2.809   6.134   5.650 -0.4039  0.7923 -0.6927
18966TIP3    H178313   2.864   6.177   5.715 -0.2298  1.6615 -1.3969
18966TIP3    H278314   2.870   6.113   5.578 -0.6493  0.1110 -0.7119
18967TIP3   OH278315   5.302   3.145  13.876 -0.1877  0.3552  0.0628
18967TIP3    H178316   5.241   3.080  13.839  1.5547 -0.5620 -1.3375
18967TIP3    H278317   5.343   3.100  13.949 -0.2000  0.4941  0.1558
18968TIP3   OH278318   0.878   0.106   3.867  0.4042 -0.5296  0.2357
18968TIP3    H178319   0.847   0.116   3.777  1.0434 -0.6047  0.0012
18968TIP3    H278320   0.893   0.012   3.877  0.8589 -0.4606  0.2366
18969TIP3   OH278321   3.702   0.872  13.578 -0.1336 -0.6451  0.0032
18969TIP3    H178322   3.695   0.830  13.664  0.6171 -0.0263  0.3822
18969TIP3    H278323   3.775   0.827  13.535 -0.6996 -1.1547 -0.4343
18970TIP3   OH278324   1.443   2.599   4.098  0.2695  0.1814  0.5416
18970TIP3    H178325   1.519   2.608   4.156  0.7307  0.2333 -0.0617
18970TIP3    H278326   1.438   2.505   4.080  0.5901  0.2564  0.0558
18971TIP3   OH278327   0.787   0.357  16.258 -0.5337 -0.2036 -0.1172
18971TIP3    H178328   0.747   0.294  16.198 -0.5906 -0.6349  0.3684
18971TIP3    H278329   0.873   0.320  16.277 -0.7044 -0.3189  0.4448
18972TIP3   OH278330   5.171   2.887   4.047  0.4399 -0.5888 -1.0100
18972TIP3    H178331   5.200   2.922   3.963  0.3934 -0.9660 -1.1810
18972TIP3    H278332   5.097   2.943   4.072 -1.5711 -2.3730 -2.7030
18973TIP3   OH278333   0.346   1.604   5.375  0.6387 -0.1649 -0.2728
18973TIP3    H178334   0.368   1.697   5.369  2.3176 -0.3911  1.3601
18973TIP3    H278335   0.339   1.575   5.284 -0.5891  1.6682 -0.8077
18974TIP3   OH278336   2.258   4.445  15.735 -0.1687  0.8966 -0.3349
18974TIP3    H178337   2.193   4.465  15.667  1.0075 -1.7111 -2.4242
18974TIP3    H278338   2.223   4.368  15.780  0.6268  0.5415 -0.3040
18975TIP3   OH278339   4.924   4.945   2.831  0.7569  0.4477  0.5238
18975TIP3    H178340   4.838   4.903   2.822  1.6933 -1.1796 -2.4114
18975TIP3    H278341   4.927   4.974   2.922 -2.6304  0.0240  0.9139
18976TIP3   OH278342   4.623   5.875  13.759 -0.6472  0.1925  0.4918
18976TIP3    H178343   4.556   5.909  13.819 -0.9506 -2.8384  2.0788
18976TIP3    H278344   4.615   5.780  13.766  3.2415 -0.3438  0.1018
18977TIP3   OH278345   5.952   2.536   5.974 -0.4885  0.5216 -0.1967
18977TIP3    H178346   5.933   2.626   5.999 -2.4189  0.2099 -0.3482
18977TIP3    H278347   5.866   2.498   5.956  0.3020 -1.2815 -0.3795
18978TIP3   OH278348   0.074   1.663  14.528 -0.2519  0.5780  0.3130
18978TIP3    H178349   0.056   1.635  14.618 -0.4338  0.2870  0.1857
18978TIP3    H278350   0.165   1.636  14.512 -0.9152 -1.4051 -0.3596
18979TIP3   OH278351   5.973   3.395   5.216  0.4658  0.1064 -0.2835
18979TIP3    H178352   5.884   3.363   5.230  0.4159 -0.6684 -2.1092
18979TIP3    H278353   6.025   3.315   5.203  1.4708  0.5417  0.8917
18980TIP3   OH278354   1.450   4.753  13.235 -0.2478  0.2691  0.0836
18980TIP3    H178355   1.464   4.695  13.310 -0.7179 -0.1588 -0.1520
18980TIP3    H278356   1.532   4.749  13.186 -0.7705 -1.3962 -0.7322
18981TIP3   OH278357   4.553   2.784   6.403 -0.0260 -0.0107  0.0824
18981TIP3    H178358   4.471   2.738   6.419 -0.4286  1.2844  2.0631
18981TIP3    H278359   4.528   2.876   6.394  1.0704  0.2311 -0.7154
18982TIP3   OH278360   3.811   4.593  14.472  0.8540 -0.5474  0.0391
18982TIP3    H178361   3.813   4.682  14.437  0.0519 -0.3400  0.4903
18982TIP3    H278362   3.811   4.604  14.567 -1.3560 -0.9266  0.1262
18983TIP3   OH278363   3.704   3.045   2.392 -0.2509 -0.4300 -0.1994
18983TIP3    H178364   3.796   3.040   2.366 -0.1551 -0.6474  0.1702
18983TIP3    H278365   3.697   3.129   2.439 -0.3770 -0.1362 -0.7344
18984TIP3   OH278366   3.737   2.559   5.532 -0.3841  0.2709 -0.0980
18984TIP3    H178367   3.762   2.535   5.621 -0.5727  1.2446  0.2256
18984TIP3    H278368   3.654   2.607   5.542  0.3572  1.7053 -0.6377
18985TIP3   OH278369   6.371   5.294  14.381  0.0747 -0.7306 -0.0875
18985TIP3    H178370   6.450   5.281  14.328  0.3165 -1.4941  0.4417
18985TIP3    H278371   6.337   5.206  14.396 -1.2922 -0.3643 -0.9036
18986TIP3   OH278372   0.253   2.393  12.181 -0.3187 -0.1031 -0.2573
18986TIP3    H178373   0.168   2.428  12.154  0.2434  0.0645 -1.8781
18986TIP3    H278374   0.312   2.413  12.109  1.2622  0.3219  1.0958
18987TIP3   OH278375   3.087   6.564  12.648 -0.4453 -0.7087 -0.4420
18987TIP3    H178376   3.007   6.539  12.694 -1.4916  0.2778 -1.6841
18987TIP3    H278377   3.109   6.487  12.595 -0.6578 -0.9214 -0.2263
18988TIP3   OH278378   1.403   2.282  17.051  0.5471 -0.3402  0.3368
18988TIP3    H178379   1.362   2.196  17.048 -0.2034  0.0150 -1.2205
18988TIP3    H278380   1.491   2.269  17.017  0.4902 -0.5223  0.2601
18989TIP3   OH278381   2.986   5.473   3.078 -0.2230 -0.6889  0.0630
18989TIP3    H178382   3.016   5.410   3.013  0.9863  1.0697 -1.1967
18989TIP3    H278383   2.900   5.442   3.105 -0.0672 -2.3283 -1.2117
18990TIP3   OH278384   4.199   0.987   1.131 -0.1843  0.1224  1.0056
18990TIP3    H178385   4.199   0.918   1.197  0.4149 -0.3080  0.5649
18990TIP3    H278386   4.165   1.064   1.177 -3.3014 -1.0383  0.8591
18991TIP3   OH278387   1.105   4.153  12.959 -1.0084 -0.2486 -0.3176
18991TIP3    H178388   1.155   4.176  12.881  0.0460 -1.2743  0.0135
18991TIP3    H278389   1.137   4.065  12.982 -1.3901 -0.0170  1.1845
18992TIP3   OH278390   3.548   5.529   2.566 -0.6914  0.3368 -0.1435
18992TIP3    H178391   3.616   5.542   2.500 -0.2293 -0.5475  0.1553
18992TIP3    H278392   3.570   5.591   2.635 -0.8261  0.8260 -0.5253
18993TIP3   OH278393   6.735   4.671  14.354  0.4281  0.5160  0.3539
18993TIP3    H178394   6.761   4.638  14.440  0.4180 -1.9354 -0.5228
18993TIP3    H278395   6.799   4.634  14.294 -1.5785 -0.7426 -1.1205
18994TIP3   OH278396   2.611   3.048   4.088  0.3377 -0.0819 -0.1297
18994TIP3    H178397   2.603   3.041   3.993 -0.7690  0.2042 -0.0733
18994TIP3    H278398   2.527   3.017   4.122  0.7931 -0.3728  0.7678
18995TIP3   OH278399   2.589   4.012  15.251  0.1818 -0.0265 -0.5049
18995TIP3    H178400   2.665   3.975  15.296  0.0395  1.0438  0.6669
18995TIP3    H278401   2.615   4.013  15.159  0.6500 -1.8546 -0.4342
18996TIP3   OH278402   2.773   0.096   1.541 -0.1855 -0.1571 -0.7576
18996TIP3    H178403   2.682   0.092   1.571  0.2936 -3.5907  0.6417
18996TIP3    H278404   2.771   0.061   1.452  0.0011 -3.1418  0.3039
18997TIP3   OH278405   1.471   2.924  16.973 -0.3108  0.6439 -0.1497
18997TIP3    H178406   1.527   2.934  16.896  0.0408 -1.0859 -0.1504
18997TIP3    H278407   1.392   2.972  16.951  0.3437  1.3724 -1.0029
18998TIP3   OH278408   2.194   1.007   4.869 -0.1308  0.3487  0.6078
18998TIP3    H178409   2.234   1.001   4.783  0.0927 -0.7943  0.7695
18998TIP3    H278410   2.131   1.079   4.862  1.8341  2.1341  0.3158
18999TIP3   OH278411   1.501   4.622   0.211 -0.3274  0.1211 -0.1615
18999TIP3    H178412   1.532   4.614   0.301  0.5768 -1.1477 -0.5540
18999TIP3    H278413   1.581   4.629   0.159 -0.5718 -3.4007 -1.2255
19000TIP3   OH278414   0.685   3.796   0.421 -0.0818 -0.2915  0.3845
19000TIP3    H178415   0.649   3.732   0.359  0.4413  0.1691 -0.4201
19000TIP3    H278416   0.775   3.810   0.391  0.1852 -0.0585  1.2614
19001TIP3   OH278417   3.589   6.113   5.373 -0.5629 -0.0518  0.1748
19001TIP3    H178418   3.604   6.207   5.376  1.4007 -0.0607 -3.3851
19001TIP3    H278419   3.672   6.075   5.401 -1.3016 -0.7654  1.4702
19002TIP3   OH278420   2.317   1.107  11.885 -0.2966 -0.3482  0.4463
19002TIP3    H178421   2.370   1.158  11.946  0.0375 -0.5419  0.3189
19002TIP3    H278422   2.241   1.078  11.936  0.4980 -1.3994  1.0579
19003TIP3   OH278423   3.425   4.236   1.045  0.4280  0.3401 -0.7468
19003TIP3    H178424   3.471   4.164   1.001 -0.8069 -0.2033 -1.1840
19003TIP3    H278425   3.344   4.247   0.995  0.3467  1.6878 -0.3629
19004TIP3   OH278426   3.590   3.005  12.598 -0.2132 -0.5976 -0.3417
19004TIP3    H178427   3.606   2.941  12.529  0.9879 -0.3098 -0.3421
19004TIP3    H278428   3.632   2.968  12.676 -3.1518 -1.8637  0.8234
19005TIP3   OH278429   5.465   6.207  16.811 -0.3207  0.6934  0.5896
19005TIP3    H178430   5.416   6.281  16.846 -0.2969  0.7301  0.5444
19005TIP3    H278431   5.411   6.130  16.832  1.4179  0.2289  4.2313
19006TIP3   OH278432   6.485   5.027  15.464  0.1685  0.2311 -0.2890
19006TIP3    H178433   6.570   5.002  15.499  0.8410  2.2420 -0.3909
19006TIP3    H278434   6.470   4.967  15.391  1.2730 -0.4071 -0.0140
19007TIP3   OH278435   4.996   0.924  15.244  0.1206 -0.0756 -1.0970
19007TIP3    H178436   5.061   0.974  15.292  0.4314 -0.6705 -0.8877
19007TIP3    H278437   5.029   0.834  15.246 -1.8712 -0.8925  1.1681
19008TIP3   OH278438   1.960   5.016   6.095 -0.7692 -0.1538  0.5284
19008TIP3    H178439   1.905   5.041   6.021  0.7293 -0.6286 -0.8209
19008TIP3    H278440   1.926   4.932   6.124  1.1623 -2.2204 -2.5338
19009TIP3   OH278441   6.175   3.639  14.761 -0.2060  0.2768  0.4340
19009TIP3    H178442   6.122   3.644  14.682  0.9274 -2.1596 -0.5852
19009TIP3    H278443   6.181   3.545  14.780 -0.7794  0.7918  3.6982
19010TIP3   OH278444   0.516   3.174  13.495  0.0411  0.1345  0.1652
19010TIP3    H178445   0.553   3.261  13.478 -0.9503  0.4151 -0.6221
19010TIP3    H278446   0.444   3.191  13.556 -0.1577 -0.1388  0.0043
19011TIP3   OH278447   6.664   3.899   5.601 -0.2900 -0.3266 -0.2842
19011TIP3    H178448   6.601   3.916   5.671 -0.6454 -0.6875 -0.5073
19011TIP3    H278449   6.734   3.962   5.615  0.1724 -1.1014  1.0436
19012TIP3   OH278450   3.762   6.734   0.761 -0.2782  0.5246  0.8201
19012TIP3    H178451   3.668   6.739   0.741 -0.3569  4.8473  1.3058
19012TIP3    H278452   3.765   6.704   0.852 -1.1301  0.0105  0.6976
19013TIP3   OH278453   2.845   0.185   4.798  0.7642  1.0891  0.3872
19013TIP3    H178454   2.775   0.243   4.769  0.1601  1.4595  2.4413
19013TIP3    H278455   2.818   0.156   4.885  2.2557 -0.3055  0.4399
19014TIP3   OH278456   5.720   3.034  16.676  0.1447 -0.7672 -0.2376
19014TIP3    H178457   5.688   3.059  16.590  0.3183 -1.2324 -0.4380
19014TIP3    H278458   5.643   3.035  16.732  0.5195  3.1789  0.4902
19015TIP3   OH278459   4.016   1.351   5.107  0.0867 -0.2843 -0.3951
19015TIP3    H178460   4.040   1.291   5.178 -0.3637  0.8718  0.7894
19015TIP3    H278461   3.989   1.294   5.035  1.5200 -1.5153 -0.0009
19016TIP3   OH278462   5.009   3.999   0.268 -0.3120  0.6466  0.5797
19016TIP3    H178463   4.933   4.054   0.287 -0.8693 -0.4311  1.5433
19016TIP3    H278464   5.066   4.055   0.214 -2.1801  1.1775 -0.9388
19017TIP3   OH278465   3.409   5.105   4.550  0.1083 -0.0364 -0.1753
19017TIP3    H178466   3.329   5.054   4.564 -0.9216  1.6711  0.4646
19017TIP3    H278467   3.411   5.166   4.624  1.0215  1.1805 -1.1672
19018TIP3   OH278468   4.417   3.348   3.847  0.4164  0.5432  0.0196
19018TIP3    H178469   4.509   3.375   3.843  1.1654 -1.9234 -0.8882
19018TIP3    H278470   4.382   3.396   3.922  1.9901  2.7588 -0.5523
19019TIP3   OH278471   1.421   2.028   3.385 -0.0666  0.1815  0.3796
19019TIP3    H178472   1.473   2.044   3.306  0.2834 -1.1117  0.3231
19019TIP3    H278473   1.468   2.072   3.455  0.0278  0.6959 -0.0041
19020TIP3   OH278474   5.929   6.199  11.116  0.3290  0.3591  0.2614
19020TIP3    H178475   6.002   6.180  11.058  0.0884  2.0108 -0.6175
19020TIP3    H278476   5.939   6.291  11.139 -1.8937  0.8520 -0.5205
19021TIP3   OH278477   1.249   2.117  11.021  0.0230 -0.8485 -0.4926
19021TIP3    H178478   1.191   2.182  10.981  1.2216  0.1315 -0.6858
19021TIP3    H278479   1.189   2.054  11.061 -1.4347  2.8314  4.0843
19022TIP3   OH278480   0.641   5.124   5.508 -0.1910  0.5564 -0.3169
19022TIP3    H178481   0.666   5.088   5.593 -1.2450  0.4775 -0.0244
19022TIP3    H278482   0.666   5.216   5.513  1.5700  0.1240 -0.6817
19023TIP3   OH278483   4.028   5.318  16.479 -0.0063 -0.6769 -0.5376
19023TIP3    H178484   3.974   5.350  16.406 -0.9502  0.7681  0.7333
19023TIP3    H278485   3.993   5.231  16.498 -2.1448  0.3173  0.4247
19024TIP3   OH278486   1.307   3.941   1.789  0.4328 -0.2652  0.0057
19024TIP3    H178487   1.291   3.853   1.755  3.3758 -0.2766 -1.7651
19024TIP3    H278488   1.354   3.927   1.871 -1.4136 -0.2745  1.0981
19025TIP3   OH278489   3.605   5.040  12.209 -0.2670 -0.5161  0.1001
19025TIP3    H178490   3.666   4.977  12.170  0.7316  0.0452  0.7088
19025TIP3    H278491   3.580   4.999  12.293  1.8550  0.6810  1.3906
19026TIP3   OH278492   3.776   3.639  12.425  0.3184  0.1346  0.2278
19026TIP3    H178493   3.855   3.685  12.455 -0.3128  0.1332  1.9710
19026TIP3    H278494   3.773   3.559  12.477 -1.0750  0.3592  0.5258
19027TIP3   OH278495   3.227   2.297   3.143 -0.0911  0.2029 -0.4435
19027TIP3    H178496   3.311   2.266   3.179  0.9073  0.7443 -2.1950
19027TIP3    H278497   3.162   2.264   3.204  1.3269 -0.9941  0.5045
19028TIP3   OH278498   4.683   3.182  14.977  0.0095 -0.2103 -0.2279
19028TIP3    H178499   4.680   3.256  14.916  0.1866 -0.2263 -0.2567
19028TIP3    H278500   4.647   3.217  15.059 -1.2713 -0.4978 -0.6506
19029TIP3   OH278501   0.858   4.060   0.473 -0.1874 -0.4415 -0.2213
19029TIP3    H178502   0.937   4.007   0.479  0.0448  0.0957  2.7537
19029TIP3    H278503   0.872   4.115   0.396  2.4481 -0.2446  0.3074
19030TIP3   OH278504   0.988   2.776  16.437 -0.9515 -0.3760  0.1681
19030TIP3    H178505   0.935   2.744  16.509  0.7263 -1.2530  1.0780
19030TIP3    H278506   0.998   2.870  16.453 -1.8166 -0.2900  0.2296
19031TIP3   OH278507   1.359   1.067  15.319 -0.1787  0.5985  0.3347
19031TIP3    H178508   1.348   0.980  15.356 -1.7661  0.8575  0.5415
19031TIP3    H278509   1.330   1.058  15.228  0.5704  0.7132  0.0733
19032TIP3   OH278510   3.240   0.413   5.299  0.3439  1.1312 -0.2724
19032TIP3    H178511   3.146   0.417   5.319  0.2442  0.9137 -0.6838
19032TIP3    H278512   3.283   0.437   5.381 -0.0754  1.4828 -0.1489
19033TIP3   OH278513   1.022   3.311   5.865 -0.3287 -0.2653 -0.1283
19033TIP3    H178514   0.979   3.290   5.782  1.5460 -0.2688 -1.1639
19033TIP3    H278515   1.105   3.263   5.862  0.1404  0.3862  1.3937
19034TIP3   OH278516   6.494   4.119  13.531  0.0046  0.7109 -0.1069
19034TIP3    H178517   6.461   4.029  13.537 -0.1039  0.6732 -1.1147
19034TIP3    H278518   6.569   4.112  13.471  1.1025  1.0024  1.1775
19035TIP3   OH278519   0.161   1.660  12.620 -0.1366 -0.4015 -0.0057
19035TIP3    H178520   0.231   1.600  12.595  0.0215 -0.3892  0.3993
19035TIP3    H278521   0.135   1.630  12.707  0.4220  0.5412  0.4991
19036TIP3   OH278522   1.587   4.492  17.177  0.2132 -0.4148 -0.2111
19036TIP3    H178523   1.675   4.468  17.206  0.0954  0.5447  1.0191
19036TIP3    H278524   1.593   4.586  17.159 -0.4267 -0.4578 -0.6691
19037TIP3   OH278525   6.509   0.292   5.154 -0.3462  0.6645  0.1792
19037TIP3    H178526   6.476   0.205   5.175 -1.5751  1.1142  0.1838
19037TIP3    H278527   6.502   0.341   5.236 -1.4265  1.2800 -0.2495
19038TIP3   OH278528   0.126   3.806  12.047 -0.0820 -0.3599  0.0268
19038TIP3    H178529   0.138   3.900  12.062 -0.2138 -0.4829  0.9958
19038TIP3    H278530   0.205   3.779  12.000  0.6186 -0.0184  0.9770
19039TIP3   OH278531   3.909   2.486  16.020  0.2583  0.3310 -0.3270
19039TIP3    H178532   3.881   2.518  15.934 -1.4378  0.1342  0.1162
19039TIP3    H278533   3.953   2.561  16.061 -0.2971  0.9176 -0.7806
19040TIP3   OH278534   5.301   2.920  15.491 -0.1289  0.0813 -0.6124
19040TIP3    H178535   5.395   2.910  15.508 -0.1101  1.6922  0.3682
19040TIP3    H278536   5.274   2.833  15.460  1.8044 -0.2320 -1.5994
19041TIP3   OH278537   0.996   2.026   3.602  0.2222 -0.5705  0.0144
19041TIP3    H178538   0.909   2.053   3.571 -0.1526 -0.9434  0.7197
19041TIP3    H278539   1.022   1.955   3.543  0.6474  0.4345 -1.0430
19042TIP3   OH278540   6.146   2.606   3.506  0.0016  0.6814 -0.6432
19042TIP3    H178541   6.137   2.517   3.471  0.6501 -0.1368  1.0851
19042TIP3    H278542   6.241   2.618   3.516 -0.1344  1.0679  0.2857
19043TIP3   OH278543   3.368   6.489  13.728 -0.3057 -0.2168  0.3967
19043TIP3    H178544   3.312   6.412  13.717  0.2836 -0.6703  0.5299
19043TIP3    H278545   3.367   6.532  13.642 -0.0247 -0.7995  0.0904
19044TIP3   OH278546   6.206   1.473   2.357 -0.4329  0.1647 -0.1467
19044TIP3    H178547   6.209   1.550   2.300 -1.0084  1.0869  1.0443
19044TIP3    H278548   6.247   1.502   2.439 -1.8678 -0.3596  0.7920
19045TIP3   OH278549   5.273   2.817  13.886  0.7315 -0.5106  0.1364
19045TIP3    H178550   5.235   2.828  13.799 -0.2849  0.9550  0.7173
19045TIP3    H278551   5.206   2.851  13.945  2.8076  2.0180  1.2314
19046TIP3   OH278552   0.235   0.397   0.268  0.5209  0.0090  0.2028
19046TIP3    H178553   0.280   0.362   0.346  0.1452 -1.2447 -0.1211
19046TIP3    H278554   0.305   0.409   0.204  0.5869 -0.6089  0.1591
19047TIP3   OH278555   5.513   2.773   4.659  0.0924 -0.4367  0.2620
19047TIP3    H178556   5.588   2.811   4.612 -0.5940 -0.1924 -0.6708
19047TIP3    H278557   5.552   2.712   4.722  1.1380  0.6116  0.6669
19048TIP3   OH278558   5.510   5.735  14.862  0.1254 -0.1246  0.3292
19048TIP3    H178559   5.547   5.726  14.774 -0.1567 -1.0251  0.3023
19048TIP3    H278560   5.580   5.775  14.914 -0.0146  1.2739 -0.5126
19049TIP3   OH278561   6.729   0.356  16.046  0.1623 -0.3105  0.7788
19049TIP3    H178562   6.720   0.445  16.012 -0.9551 -0.0909  1.5967
19049TIP3    H278563   6.817   0.354  16.083 -0.9140  1.6338  3.8897
19050TIP3   OH278564   4.918   1.082   0.412  0.4832 -0.3956  0.3150
19050TIP3    H178565   4.873   1.019   0.469 -1.3547 -0.5619 -1.2547
19050TIP3    H278566   4.866   1.085   0.332  1.8575  1.3652 -0.5947
19051TIP3   OH278567   2.049   4.071  12.902  0.2140  0.2553  0.5926
19051TIP3    H178568   2.078   3.981  12.910  2.4013  0.9336  0.9736
19051TIP3    H278569   2.083   4.100  12.817  0.7614  1.0896  1.0696
19052TIP3   OH278570   3.756   2.708   1.563  0.0181 -0.9774  0.4436
19052TIP3    H178571   3.848   2.683   1.564  0.0537 -0.8329  1.3468
19052TIP3    H278572   3.708   2.626   1.574  0.0392 -1.0181  0.2459
19053TIP3   OH278573   6.519   2.885   1.995  0.1033 -0.6342 -0.5593
19053TIP3    H178574   6.590   2.841   1.949  1.6533  1.5807 -0.4418
19053TIP3    H278575   6.556   2.909   2.080 -1.4940 -1.2977  0.3874
19054TIP3   OH278576   0.804   3.984  14.335  0.0307 -0.1321 -0.1467
19054TIP3    H178577   0.851   4.011  14.414  1.9737  2.9233 -2.1204
19054TIP3    H278578   0.760   4.064  14.305 -0.0324 -0.9784 -2.5214
19055TIP3   OH278579   3.485   5.954  12.161 -0.0109 -0.1568 -0.1360
19055TIP3    H178580   3.503   5.862  12.145 -1.0423 -0.0694 -2.0079
19055TIP3    H278581   3.429   5.954  12.239  1.8781 -0.8890  1.3125
19056TIP3   OH278582   6.159   4.440   1.367  0.5122 -0.6864 -0.6158
19056TIP3    H178583   6.170   4.535   1.376  0.0082 -0.7926  1.8967
19056TIP3    H278584   6.120   4.429   1.280  0.0554  1.4687 -0.7582
19057TIP3   OH278585   2.513   1.204  12.728  0.5417 -0.9709  0.4477
19057TIP3    H178586   2.573   1.145  12.773  0.9593 -0.9253 -0.0472
19057TIP3    H278587   2.468   1.251  12.799  0.0983 -1.9787  0.8479
19058TIP3   OH278588   5.678   3.875   5.553 -0.2663  0.4573 -0.0968
19058TIP3    H178589   5.604   3.847   5.608 -0.2022  0.3907 -0.0434
19058TIP3    H278590   5.738   3.800   5.553 -0.3132  0.4196 -0.3437
19059TIP3   OH278591   2.537   3.742   5.163  0.3870 -0.2264 -0.3279
19059TIP3    H178592   2.460   3.716   5.112  0.3935  0.1987 -0.5621
19059TIP3    H278593   2.599   3.774   5.097  1.1736 -1.5293 -0.2536
19060TIP3   OH278594   1.191   0.111  14.999  0.2763  0.5358  0.3674
19060TIP3    H178595   1.209   0.108  15.093  0.1781  1.4715  0.4326
19060TIP3    H278596   1.265   0.160  14.963 -0.4410  1.5141  0.1786
19061TIP3   OH278597   5.332   2.005   2.949 -0.1303 -0.5163  0.0644
19061TIP3    H178598   5.355   2.095   2.924 -0.4109 -0.8141 -1.3679
19061TIP3    H278599   5.251   2.015   2.999 -0.9999 -0.0607 -1.3737
19062TIP3   OH278600   3.734   2.962   4.631  0.1617 -0.5971  0.5254
19062TIP3    H178601   3.737   3.048   4.673  1.0795  0.0338 -0.7546
19062TIP3    H278602   3.734   2.900   4.704  0.0317  0.4784  1.4680
19063TIP3   OH278603   1.679   3.911   0.640  0.1124 -0.3750  0.0352
19063TIP3    H178604   1.738   3.836   0.645  0.3989 -0.6837 -4.2731
19063TIP3    H278605   1.735   3.985   0.618 -0.4553  0.6910  1.9641
19064TIP3   OH278606   3.526   0.176   1.758 -0.2366  0.1772  0.2115
19064TIP3    H178607   3.600   0.234   1.738  1.8170 -2.2079  0.3849
19064TIP3    H278608   3.566   0.100   1.800 -2.3751 -2.5233 -2.1970
19065TIP3   OH278609   0.032   5.284   3.643  0.2202 -0.1403 -0.3604
19065TIP3    H178610  -0.005   5.372   3.635  0.5535  0.0764  0.4099
19065TIP3    H278611   0.106   5.283   3.582 -0.6133 -0.3494 -1.3941
19066TIP3   OH278612   5.213   2.875  12.657  0.0563 -0.3417 -0.8100
19066TIP3    H178613   5.258   2.807  12.706 -0.4475 -0.7159 -0.8636
19066TIP3    H278614   5.283   2.930  12.622  0.4306 -0.2640  0.0416
19067TIP3   OH278615   4.893   1.695   0.764  0.2552  0.0953  0.7948
19067TIP3    H178616   4.863   1.785   0.756 -2.1339 -0.8188 -3.2979
19067TIP3    H278617   4.825   1.651   0.815  0.5184  0.2456  1.2790
19068TIP3   OH278618   4.030   4.329  11.082 -0.4644 -0.0653 -0.5021
19068TIP3    H178619   4.022   4.241  11.121 -0.1719  0.0727 -0.1159
19068TIP3    H278620   3.980   4.385  11.141  0.8431  0.3198  0.2849
19069TIP3   OH278621   5.155   0.354  16.341  0.8196  0.5063  0.4173
19069TIP3    H178622   5.110   0.273  16.366  0.4007  0.1119 -1.4046
19069TIP3    H278623   5.101   0.424  16.376  0.1759 -0.0022  0.4569
19070TIP3   OH278624   0.102   4.998   4.908 -0.2207  0.4457  0.4533
19070TIP3    H178625   0.144   4.913   4.923 -0.8768  0.3615  1.9258
19070TIP3    H278626   0.059   5.019   4.991  0.1566  2.3538  0.2105
19071TIP3   OH278627   6.460   0.210   0.128  0.2602  0.2164  0.0902
19071TIP3    H178628   6.412   0.130   0.107  1.5041 -0.1293 -1.6686
19071TIP3    H278629   6.402   0.281   0.099  0.3191 -0.1516 -0.9687
19072TIP3   OH278630   1.865   0.102  16.080  0.3258 -0.6942  1.1526
19072TIP3    H178631   1.783   0.112  16.031 -0.3167 -1.4747  2.0110
19072TIP3    H278632   1.932   0.091  16.013 -0.5650 -2.0300  0.4255
19073TIP3   OH278633   0.293   5.214  16.220 -0.0106  0.2593 -0.1480
19073TIP3    H178634   0.323   5.298  16.185  2.0401  0.8645  2.7104
19073TIP3    H278635   0.216   5.235  16.273  0.9140  0.5301  1.1402
19074TIP3   OH278636   2.374   0.693   0.241 -0.0852  0.6942  0.4670
19074TIP3    H178637   2.376   0.649   0.326 -1.9575  2.1008  1.2936
19074TIP3    H278638   2.432   0.768   0.252  1.4627 -0.3391 -0.2791
19075TIP3   OH278639   0.742   6.289  12.821  0.5270  1.3882  0.6017
19075TIP3    H178640   0.697   6.204  12.816  2.8077  0.0959  0.7874
19075TIP3    H278641   0.736   6.324  12.732  2.5134 -0.6471 -0.4350
19076TIP3   OH278642   5.342   3.002   1.859 -0.2426  0.4848 -0.3907
19076TIP3    H178643   5.420   2.959   1.895 -0.2485  0.3249 -0.5677
19076TIP3    H278644   5.362   3.015   1.766 -0.5741  0.1019 -0.5187
19077TIP3   OH278645   2.271   1.681   0.616 -0.4903  0.4753 -0.1033
19077TIP3    H178646   2.200   1.736   0.650 -0.1776  1.3311 -0.7911
19077TIP3    H278647   2.254   1.674   0.523  1.0195  1.8128 -0.5314
19078TIP3   OH278648   2.887   6.359  13.004 -0.0438  0.7644  0.7294
19078TIP3    H178649   2.968   6.376  13.052  0.4058  0.8151 -0.0232
19078TIP3    H278650   2.894   6.414  12.926  0.0419 -0.5799 -0.2418
19079TIP3   OH278651   2.252   0.887   3.566  0.0281 -0.0441  0.8586
19079TIP3    H178652   2.308   0.909   3.492 -0.1982  1.7497  1.1943
19079TIP3    H278653   2.177   0.843   3.527  1.4130 -2.1245  0.3604
19080TIP3   OH278654   1.248   2.237   4.788 -0.5692 -0.3952  0.0205
19080TIP3    H178655   1.251   2.313   4.847  0.7485 -0.0428 -0.4708
19080TIP3    H278656   1.176   2.257   4.727  0.7190  1.2008 -1.0463
19081TIP3   OH278657   1.917   6.237  12.991  0.2061  0.0224 -0.3804
19081TIP3    H178658   1.999   6.232  13.041 -0.1352  0.4725  0.2301
19081TIP3    H278659   1.945   6.227  12.900  0.7743 -1.3598 -0.0784
19082TIP3   OH278660   0.108   1.901   0.978  0.1089 -0.2622  0.1028
19082TIP3    H178661   0.196   1.916   1.014  0.0490  1.6849 -0.4467
19082TIP3    H278662   0.121   1.902   0.883 -0.2252 -2.0875  0.0072
19083TIP3   OH278663   3.201   3.759   1.870  0.1953  0.2523  0.3801
19083TIP3    H178664   3.123   3.797   1.829  0.5630 -0.4650 -1.0274
19083TIP3    H278665   3.237   3.830   1.923 -0.3913  1.1531 -0.4098
19084TIP3   OH278666   3.966   1.590   1.417 -0.4387  0.3235  0.0065
19084TIP3    H178667   3.963   1.667   1.473 -1.0589 -1.2542  2.3065
19084TIP3    H278668   3.970   1.516   1.479  1.1685 -1.4615 -2.0854
19085TIP3   OH278669   4.224   1.166  10.357  0.1729 -0.1857  0.4318
19085TIP3    H178670   4.296   1.199  10.410  0.6006 -0.5958  0.1163
19085TIP3    H278671   4.169   1.242  10.341  0.8321  0.2550  0.2007
19086TIP3   OH278672   0.692   0.687   5.390 -0.3808 -0.7231 -0.3035
19086TIP3    H178673   0.698   0.661   5.482 -1.1153 -1.1096 -0.3499
19086TIP3    H278674   0.605   0.729   5.383 -0.3716 -0.7857 -0.8391
19087TIP3   OH278675   3.017   2.057  12.088  0.0791 -0.1026  0.2322
19087TIP3    H178676   3.075   1.992  12.049  0.4950  0.3140  0.1525
19087TIP3    H278677   3.065   2.091  12.163  0.9070  1.7950 -1.0452
19088TIP3   OH278678   3.263   5.503  11.152 -0.2665 -0.3321  0.3228
19088TIP3    H178679   3.312   5.580  11.122 -1.0872 -0.0025 -0.2006
19088TIP3    H278680   3.214   5.474  11.075 -3.3992  1.2785  1.5215
19089TIP3   OH278681   3.315   1.092   3.387  0.2051 -0.5086 -0.0827
19089TIP3    H178682   3.346   1.180   3.408 -1.3746  0.1974 -0.5223
19089TIP3    H278683   3.239   1.080   3.444 -1.2832 -0.4435 -1.9418
19090TIP3   OH278684   4.354   3.633  15.248 -0.2902  0.7575  0.6858
19090TIP3    H178685   4.286   3.696  15.223 -0.9025  0.6646  2.0591
19090TIP3    H278686   4.316   3.547  15.227 -0.6123  0.7069  1.4340
19091TIP3   OH278687   2.594   6.725   6.448 -0.2744  0.2439  0.1760
19091TIP3    H178688   2.547   6.785   6.507 -0.0052 -1.5661  2.3683
19091TIP3    H278689   2.532   6.654   6.432  0.8994 -1.0666  1.2750
19092TIP3   OH278690   6.780   4.810  11.641 -0.0916 -0.1724 -0.5244
19092TIP3    H178691   6.812   4.807  11.731 -0.6454 -0.0896 -0.3223
19092TIP3    H278692   6.854   4.846  11.591  1.3092 -2.9035 -0.6169
19093TIP3   OH278693   5.896   1.223   2.099 -0.1164 -0.0561  0.0009
19093TIP3    H178694   5.977   1.270   2.119  0.4591 -0.8961 -0.2673
19093TIP3    H278695   5.868   1.259   2.015  2.0264 -2.2369 -1.8305
19094TIP3   OH278696   5.243   1.532  15.646 -0.1669  0.5059 -0.0740
19094TIP3    H178697   5.188   1.460  15.616  2.6784 -0.9761 -2.1886
19094TIP3    H278698   5.247   1.593  15.572  0.5914  0.8414  0.2265
19095TIP3   OH278699   1.796   0.216  13.325 -0.0199 -0.0729 -0.0564
19095TIP3    H178700   1.889   0.237  13.338  0.4028 -0.2840 -2.3841
19095TIP3    H278701   1.792   0.175  13.239 -2.2532 -0.3949  0.1387
19096TIP3   OH278702   6.575   4.283   2.384  0.0625  0.9544  0.0415
19096TIP3    H178703   6.561   4.222   2.457 -2.2473  0.7554 -0.4785
19096TIP3    H278704   6.503   4.265   2.324 -0.3040  3.7156 -0.4802
19097TIP3   OH278705   4.236   4.250   0.371  0.2110 -0.7354 -0.1553
19097TIP3    H178706   4.260   4.336   0.407  0.7059 -0.7973 -0.3250
19097TIP3    H278707   4.143   4.258   0.351 -0.2576 -0.9240  1.7644
19098TIP3   OH278708   5.672   0.274   0.112 -0.1158 -0.0446 -0.1301
19098TIP3    H178709   5.591   0.260   0.062  0.1573  0.0060 -0.5900
19098TIP3    H278710   5.726   0.197   0.093 -0.1894 -0.2447  0.4492
19099TIP3   OH278711   3.466   2.937  15.590 -0.2302  0.1501  0.6979
19099TIP3    H178712   3.449   2.890  15.508 -3.6197 -0.4393  1.5906
19099TIP3    H278713   3.560   2.925  15.605 -0.3965 -4.3956 -0.3528
19100TIP3   OH278714   2.896   2.067   0.315 -0.3504  0.0091 -0.1257
19100TIP3    H178715   2.889   2.085   0.221  0.5339  0.5893 -0.0895
19100TIP3    H278716   2.819   2.013   0.335 -1.3860  1.1595 -0.8744
19101TIP3   OH278717   3.967   4.457   1.391 -0.2918 -0.0665 -0.6365
19101TIP3    H178718   3.932   4.498   1.470 -0.5086 -1.4683  0.0218
19101TIP3    H278719   4.052   4.498   1.378 -0.1720  0.0459  0.4368
19102TIP3   OH278720   6.630   2.477  12.912 -0.3515 -0.2498  0.1820
19102TIP3    H178721   6.577   2.547  12.875  2.4549  1.7288 -0.3693
19102TIP3    H278722   6.639   2.414  12.840 -0.9340 -0.0062 -0.1129
19103TIP3   OH278723   0.715   5.981   0.716 -0.4446  0.0653  0.2166
19103TIP3    H178724   0.623   5.967   0.736 -0.2519 -0.4365  0.8375
19103TIP3    H278725   0.744   6.046   0.780 -0.5081  0.6877 -0.3791
19104TIP3   OH278726   2.335   1.813  15.630  0.4337 -0.7217  0.2084
19104TIP3    H178727   2.264   1.768  15.585  0.0694  0.6106 -0.5912
19104TIP3    H278728   2.309   1.813  15.722  0.1050 -1.4910  0.1272
19105TIP3   OH278729   0.991   5.831  13.821  0.5862  0.1542  0.5871
19105TIP3    H178730   1.053   5.817  13.893 -0.2705  0.8884  1.4942
19105TIP3    H278731   0.957   5.744  13.801  0.7489 -0.0427  1.1393
19106TIP3   OH278732   5.271   3.396  13.271  0.5396 -0.1623  0.2070
19106TIP3    H178733   5.351   3.391  13.218  1.0663  2.6427  0.5609
19106TIP3    H278734   5.289   3.341  13.347  2.6791  1.3106  0.8574
19107TIP3   OH278735   1.396   2.325   2.366 -0.6642  0.2540  0.6415
19107TIP3    H178736   1.316   2.278   2.343  0.3582 -1.8966  1.2085
19107TIP3    H278737   1.388   2.409   2.322 -2.9330 -0.1488  0.1604
19108TIP3   OH278738   0.872   3.025  12.346 -0.2376  0.0709 -0.5476
19108TIP3    H178739   0.815   2.950  12.363 -2.2992  2.1842  3.2662
19108TIP3    H278740   0.927   3.031  12.425 -0.0473  2.4227 -0.7915
19109TIP3   OH278741   4.915   3.370  14.642 -0.2476  0.4871 -0.0550
19109TIP3    H178742   4.903   3.389  14.549  0.3586 -1.9421 -0.7007
19109TIP3    H278743   4.998   3.411  14.664  0.1331  0.1751 -0.8688
19110TIP3   OH278744   1.789   3.332  14.699 -0.7534 -0.3931 -0.6314
19110TIP3    H178745   1.706   3.297  14.665 -0.6841  1.0745 -2.4867
19110TIP3    H278746   1.778   3.427  14.694  0.3942 -0.1635  0.8297
19111TIP3   OH278747   1.352   3.638  13.461  0.2434  0.4350  0.0267
19111TIP3    H178748   1.381   3.596  13.380 -0.5756 -1.1482  0.5328
19111TIP3    H278749   1.297   3.711  13.432  0.3347  0.1676 -0.8475
19112TIP3   OH278750   0.917   0.608   1.335 -0.2592 -0.4922 -0.1922
19112TIP3    H178751   0.838   0.607   1.281 -1.3013  0.0474  1.2468
19112TIP3    H278752   0.899   0.546   1.406 -0.2163  1.0245  1.2114
19113TIP3   OH278753   0.762   5.838   4.471 -0.1398  0.7480 -0.3431
19113TIP3    H178754   0.799   5.856   4.385 -0.0295 -0.0831 -0.4751
19113TIP3    H278755   0.680   5.888   4.473 -1.0793 -0.6869 -1.6536
19114TIP3   OH278756   1.817   5.062  13.010 -0.0453  0.3508 -0.1773
19114TIP3    H178757   1.847   5.137  12.958 -0.4894 -0.4732 -1.6662
19114TIP3    H278758   1.778   5.102  13.089  2.7853  1.5319  0.7370
19115TIP3   OH278759   0.282   1.300   4.387  0.0885 -0.0902 -0.1228
19115TIP3    H178760   0.289   1.248   4.307 -2.7638 -1.0702  0.1521
19115TIP3    H278761   0.295   1.237   4.458  0.6317  0.3969  0.2209
19116TIP3   OH278762   5.471   3.277   0.308  0.0300 -0.3636 -0.7298
19116TIP3    H178763   5.445   3.195   0.265 -1.2776  0.3177 -1.3065
19116TIP3    H278764   5.390   3.327   0.316  0.5440  0.2947  0.9478
19117TIP3   OH278765   4.250   6.285   0.231  0.1536  0.1914 -0.0943
19117TIP3    H178766   4.305   6.337   0.172 -1.3150 -0.5233 -2.2383
19117TIP3    H278767   4.289   6.197   0.229  2.8842  1.0366  3.8513
19118TIP3   OH278768   2.385   4.381   1.681 -0.0189  0.1829 -0.1336
19118TIP3    H178769   2.481   4.384   1.678  0.0028 -0.1242  0.2506
19118TIP3    H278770   2.363   4.429   1.761 -0.2165  0.8373 -0.5746
19119TIP3   OH278771   0.201   1.668  12.044  0.1585  0.3298  0.0453
19119TIP3    H178772   0.219   1.654  12.137 -0.0181  2.0036  0.3567
19119TIP3    H278773   0.130   1.731  12.042 -1.1539 -1.0994 -1.2412
19120TIP3   OH278774   1.859   3.006  11.870  0.9114  0.2407  0.1321
19120TIP3    H178775   1.883   3.079  11.927  0.8342 -0.5673  1.2333
19120TIP3    H278776   1.928   2.941  11.885  0.4963 -0.2650 -0.1566
19121TIP3   OH278777   0.008   4.591  15.916  0.1967  0.1790 -0.2226
19121TIP3    H178778  -0.037   4.511  15.945 -1.0168  0.5291 -1.0721
19121TIP3    H278779   0.030   4.636  15.998 -0.6426 -0.2074  0.2331
19122TIP3   OH278780   6.336   4.563   3.413 -0.2339  0.3289 -0.2031
19122TIP3    H178781   6.422   4.543   3.451  0.5307 -3.7801 -3.4086
19122TIP3    H278782   6.354   4.579   3.320 -2.6745  3.2580 -0.3239
19123TIP3   OH278783   1.015   5.887   3.674  0.0894 -0.7714 -0.2829
19123TIP3    H178784   0.945   5.857   3.733  0.9638 -1.1698  0.5940
19123TIP3    H278785   1.010   5.982   3.678 -1.0929 -0.7854 -1.0903
19124TIP3   OH278786   6.482   6.598  15.125 -0.6245 -0.7892 -0.0345
19124TIP3    H178787   6.452   6.507  15.130 -0.4779 -0.8221  0.2889
19124TIP3    H278788   6.555   6.602  15.187 -1.0029 -0.3033  0.3868
19125TIP3   OH278789   2.413   6.231  11.463 -0.3094  0.2028 -0.7322
19125TIP3    H178790   2.339   6.248  11.404 -0.9775  0.9001  0.2660
19125TIP3    H278791   2.460   6.315  11.466 -0.1926  0.1257 -0.4002
19126TIP3   OH278792   0.910   3.809   1.547 -0.1462 -0.0488 -0.2779
19126TIP3    H178793   0.945   3.886   1.592  0.4367  0.9672 -2.3471
19126TIP3    H278794   0.815   3.820   1.553 -0.1425 -0.7749  1.9834
19127TIP3   OH278795   6.043   0.076  11.584 -0.1037  0.5897 -0.2491
19127TIP3    H178796   6.118   0.121  11.623 -0.3880 -1.0874  2.5297
19127TIP3    H278797   6.081   0.007  11.530  0.3978 -0.1990  1.0794
19128TIP3   OH278798   1.239   4.195   6.435 -0.9556 -0.5561 -0.3592
19128TIP3    H178799   1.248   4.285   6.402 -3.3152  0.2141  0.8380
19128TIP3    H278800   1.300   4.190   6.508 -1.4682  0.4401  0.1621
19129TIP3   OH278801   4.077   2.600  11.494  0.0869 -0.3287  0.6933
19129TIP3    H178802   4.158   2.588  11.543  1.2150  2.3380 -0.3168
19129TIP3    H278803   4.008   2.593  11.560  1.2027 -1.4117  1.8025
19130TIP3   OH278804   0.945   2.760  11.577 -0.0200  0.1904 -0.3953
19130TIP3    H178805   0.880   2.830  11.576 -1.2847 -0.9169 -1.6831
19130TIP3    H278806   0.944   2.728  11.667 -2.3111 -0.6613 -0.6490
19131TIP3   OH278807   4.960   6.206   0.462  0.3429 -0.4206 -0.1713
19131TIP3    H178808   4.958   6.285   0.408  0.4037  0.7383  1.4450
19131TIP3    H278809   4.879   6.159   0.440  0.7167 -0.3833 -1.7701
19132TIP3   OH278810   1.678   0.160  15.840 -0.0798  0.5132  0.7001
19132TIP3    H178811   1.748   0.177  15.777  0.7513  0.9164  1.7100
19132TIP3    H278812   1.599   0.157  15.787  0.7262 -0.2875 -0.5206
19133TIP3   OH278813   2.988   4.144   6.726 -0.4078  0.2151 -0.0385
19133TIP3    H178814   2.988   4.136   6.630 -0.2967  1.0712 -0.1210
19133TIP3    H278815   3.072   4.106   6.753 -1.1669 -1.5980 -0.1170
19134TIP3   OH278816   1.124   1.711   2.860  0.3319 -0.5669  0.0328
19134TIP3    H178817   1.076   1.712   2.942  2.1069  2.6999  1.1899
19134TIP3    H278818   1.180   1.633   2.865 -0.3750 -1.0098  1.3683
19135TIP3   OH278819   1.412   2.642  15.279 -0.4485 -0.2435 -0.5133
19135TIP3    H178820   1.480   2.588  15.240  0.8506  0.9292  0.0543
19135TIP3    H278821   1.431   2.731  15.248  0.5109  0.7110  2.4931
19136TIP3   OH278822   6.571   3.440  15.447 -0.0003 -0.2313  0.0766
19136TIP3    H178823   6.600   3.527  15.473  1.5213 -0.4575 -0.7540
19136TIP3    H278824   6.478   3.437  15.471  0.1967  1.2058  1.1229
19137TIP3   OH278825   4.683   3.645  11.432  0.1362  0.6001  0.3663
19137TIP3    H178826   4.699   3.690  11.514  1.7179  0.2470  0.2771
19137TIP3    H278827   4.627   3.571  11.456 -0.5269  1.2579  0.8835
19138TIP3   OH278828   1.977   0.054   3.939  0.1608  0.1450 -0.3436
19138TIP3    H178829   1.968   0.144   3.970  0.6780 -0.0960  0.5503
19138TIP3    H278830   2.030   0.011   4.006 -1.4380 -1.2419  0.0999
19139TIP3   OH278831   1.032   2.784   4.594 -0.3629  0.0561  0.5638
19139TIP3    H178832   1.026   2.869   4.638 -1.4017  0.0053  0.5382
19139TIP3    H278833   1.052   2.722   4.664  3.9592  0.6881  0.1858
19140TIP3   OH278834   4.636   1.023  17.183  0.4279  0.3990 -0.5690
19140TIP3    H178835   4.557   1.076  17.172 -1.0224 -1.3318  0.8342
19140TIP3    H278836   4.604   0.933  17.178  2.1633 -0.3546  1.0482
19141TIP3   OH278837   1.996   4.698  11.946 -0.0305 -0.4055  0.0027
19141TIP3    H178838   1.941   4.636  11.994  1.7021 -3.0177 -1.1644
19141TIP3    H278839   2.046   4.743  12.014 -1.2727 -0.2763  0.8743
19142TIP3   OH278840   3.277   6.496   4.731 -0.2816 -0.0220  0.0679
19142TIP3    H178841   3.302   6.558   4.663  0.4689  1.0115  1.2490
19142TIP3    H278842   3.323   6.415   4.708  0.3892  0.4760 -0.3580
19143TIP3   OH278843   0.728   3.153   2.587  0.3082  0.2301 -0.3298
19143TIP3    H178844   0.679   3.074   2.606  1.4669 -0.1138  1.5420
19143TIP3    H278845   0.797   3.124   2.526 -0.3070  0.2002 -1.0277
19144TIP3   OH278846   5.145   4.084   1.464 -0.2262  0.4392  0.6220
19144TIP3    H178847   5.212   4.079   1.532  0.4575  2.2651  0.1423
19144TIP3    H278848   5.162   4.167   1.419 -1.4076 -0.1314 -0.9982
19145TIP3   OH278849   5.038   2.632   1.545  0.6757 -0.3648  0.1867
19145TIP3    H178850   5.123   2.666   1.519  0.5095 -0.6795 -0.8312
19145TIP3    H278851   5.052   2.537   1.554  0.4628 -0.4042  0.1193
19146TIP3   OH278852   1.076   5.035   4.896 -0.1763 -0.4728  0.0160
19146TIP3    H178853   1.014   5.090   4.944  1.4544 -0.2645  1.9866
19146TIP3    H278854   1.096   4.963   4.955  3.1568  0.6625  0.4770
19147TIP3   OH278855   4.547   2.433  16.638 -0.2217 -0.4831  0.0939
19147TIP3    H178856   4.582   2.515  16.673 -0.5827 -0.5490  0.6307
19147TIP3    H278857   4.510   2.457  16.553  1.1570 -0.4220 -0.5198
19148TIP3   OH278858   1.537   1.255   3.151 -0.3984 -0.4777  0.1333
19148TIP3    H178859   1.489   1.320   3.101  0.9865  0.3259 -0.1993
19148TIP3    H278860   1.514   1.272   3.242  0.2764  0.7892  0.0865
19149TIP3   OH278861   3.903   0.174   0.298  0.2574 -0.3392 -0.1437
19149TIP3    H178862   3.917   0.197   0.390  1.8449 -2.2382  0.1430
19149TIP3    H278863   3.869   0.255   0.259  2.9484  1.6808  1.3186
19150TIP3   OH278864   4.161   4.420   1.054 -0.5166  0.7285  0.0704
19150TIP3    H178865   4.247   4.392   1.022 -0.7832  2.0852 -2.0463
19150TIP3    H278866   4.123   4.468   0.980 -2.1068  2.2350  1.7786
19151TIP3   OH278867   3.354   3.186   0.679  0.4632  0.1179 -0.5196
19151TIP3    H178868   3.318   3.245   0.612  0.5659  0.8045  0.0207
19151TIP3    H278869   3.375   3.244   0.752 -0.0877 -0.6993  0.2895
19152TIP3   OH278870   2.661   6.091   2.872 -0.1109 -0.0347 -0.3617
19152TIP3    H178871   2.695   6.013   2.829 -0.1664 -0.5217  0.4542
19152TIP3    H278872   2.736   6.126   2.920 -0.5876 -0.7889  0.9798
19153TIP3   OH278873   6.217   3.897  14.920 -0.0258  0.1574  0.4450
19153TIP3    H178874   6.133   3.935  14.894 -0.0873 -0.3864 -0.1748
19153TIP3    H278875   6.223   3.816  14.869  1.1782  0.5210 -0.0227
19154TIP3   OH278876   0.633   6.067  13.506 -0.4524  0.4283  0.3942
19154TIP3    H178877   0.607   5.975  13.513 -0.7787  0.4082 -0.7426
19154TIP3    H278878   0.659   6.077  13.414 -0.8442  1.5634  0.3886
19155TIP3   OH278879   4.745   4.456   3.264  0.1549  0.2127 -0.2538
19155TIP3    H178880   4.799   4.452   3.343  1.4396 -0.8808 -1.1618
19155TIP3    H278881   4.661   4.490   3.295  0.1962 -1.3851  1.8190
19156TIP3   OH278882   4.680   4.656  11.427 -0.3635  0.2690 -0.1449
19156TIP3    H178883   4.771   4.652  11.455 -0.1142  1.4420 -0.7382
19156TIP3    H278884   4.643   4.730  11.475 -0.9352 -0.0160 -0.1311
19157TIP3   OH278885   0.399   5.576  13.715  0.4761 -0.8696 -0.5008
19157TIP3    H178886   0.385   5.602  13.806 -0.0326  3.2415 -1.5547
19157TIP3    H278887   0.489   5.544  13.713  1.3935  1.3268  1.0936
19158TIP3   OH278888   4.284   4.627  11.441  0.2193 -0.0934 -0.1080
19158TIP3    H178889   4.246   4.691  11.502  1.3694 -0.3235  0.9009
19158TIP3    H278890   4.367   4.666  11.414 -0.0311 -0.2440 -1.1257
19159TIP3   OH278891   4.911   4.707   6.701 -0.4703 -0.3495 -0.4932
19159TIP3    H178892   4.847   4.736   6.636  0.1480  1.4549 -0.3502
19159TIP3    H278893   4.995   4.718   6.657 -0.2060 -3.0541 -0.8178
19160TIP3   OH278894   3.077   1.191  11.474  0.6627  0.5721  0.3953
19160TIP3    H178895   3.087   1.267  11.416  1.8995  0.3807  0.3392
19160TIP3    H278896   3.156   1.191  11.528  0.3984 -0.3400  0.8046
19161TIP3   OH278897   1.320   2.875  14.103 -0.1711 -0.1846  0.4772
19161TIP3    H178898   1.237   2.923  14.091  0.5429  0.7647 -0.9954
19161TIP3    H278899   1.309   2.830  14.186 -2.8403 -1.4631 -0.4356
19162TIP3   OH278900   6.299   2.435  15.056  0.4867 -0.0226 -0.1421
19162TIP3    H178901   6.323   2.393  15.139 -2.0013 -0.5893  0.3875
19162TIP3    H278902   6.338   2.522  15.061  2.1813 -0.7779  0.6350
19163TIP3   OH278903   1.494   0.570   0.163 -0.3256  0.3340  0.3280
19163TIP3    H178904   1.511   0.664   0.171  0.3202  0.5348 -2.3552
19163TIP3    H278905   1.459   0.560   0.074  0.7110 -2.0930  0.1158
19164TIP3   OH278906   1.295   2.211   3.811  0.4188  0.4456  0.8638
19164TIP3    H178907   1.357   2.221   3.739 -0.2308 -0.4756  0.1475
19164TIP3    H278908   1.307   2.120   3.841 -0.4026  0.3322  0.8742
19165TIP3   OH278909   6.542   2.826  15.367 -0.5552 -0.0510 -0.2602
19165TIP3    H178910   6.534   2.782  15.283 -0.5584 -2.0334  0.7232
19165TIP3    H278911   6.636   2.824  15.387 -0.7306 -1.0715  0.5166
19166TIP3   OH278912   3.342   4.380   1.280  0.0828  0.4554  0.8289
19166TIP3    H178913   3.415   4.340   1.232  0.3044 -0.0161  1.5401
19166TIP3    H278914   3.381   4.455   1.324 -0.2193  1.1571 -0.0820
19167TIP3   OH278915   1.525   1.053   1.924  0.3072 -0.5249  0.0353
19167TIP3    H178916   1.459   1.037   1.991  0.9769 -0.5361  0.6956
19167TIP3    H278917   1.550   0.966   1.893  1.7204 -0.6690  1.4658
19168TIP3   OH278918   0.776   4.210   3.304 -0.0493 -0.5648  0.2697
19168TIP3    H178919   0.856   4.263   3.301  0.5689 -1.5147 -1.3465
19168TIP3    H278920   0.807   4.120   3.293 -1.3331 -0.9676 -0.1897
19169TIP3   OH278921   6.124   4.237  11.522 -0.0453  0.0012  0.8007
19169TIP3    H178922   6.199   4.251  11.578 -0.5561  1.8457  1.0801
19169TIP3    H278923   6.050   4.276  11.570 -0.5314  1.4385 -1.0019
19170TIP3   OH278924   2.396   3.641   4.969  0.4227  0.4079 -0.1499
19170TIP3    H178925   2.421   3.571   4.907  1.6251  0.8004 -0.1436
19170TIP3    H278926   2.340   3.699   4.917  0.6595  0.2424 -0.6027
19171TIP3   OH278927   3.299   1.630   1.713  0.2168  0.1265 -0.5421
19171TIP3    H178928   3.338   1.627   1.801  2.2654 -4.3270 -1.3394
19171TIP3    H278929   3.212   1.592   1.725 -0.2947  1.3587 -0.2036
19172TIP3   OH278930   6.743   6.132  14.063  0.1229 -0.1740  0.7106
19172TIP3    H178931   6.734   6.155  14.156 -1.3920  0.1047  0.5259
19172TIP3    H278932   6.739   6.216  14.017 -1.5695 -0.4457  0.2761
19173TIP3   OH278933   5.703   4.044  13.120 -0.0847  0.3002 -0.0442
19173TIP3    H178934   5.644   4.083  13.056  0.2401  1.3863  0.2977
19173TIP3    H278935   5.756   4.117  13.152  0.3423 -0.3701  0.8364
19174TIP3   OH278936   4.545   4.454   0.591 -0.3074 -0.8264  0.3430
19174TIP3    H178937   4.552   4.436   0.684  0.9149 -0.3812  0.3486
19174TIP3    H278938   4.524   4.548   0.586 -0.8809 -0.9594  0.1806
19175TIP3   OH278939   4.708   2.064  12.591 -0.5896 -0.0077  0.2941
19175TIP3    H178940   4.625   2.076  12.545 -1.8910 -3.3644  1.4034
19175TIP3    H278941   4.754   1.996  12.540 -0.4838 -1.2224  1.9260
19176TIP3   OH278942   3.209   5.425  14.403  0.3089 -0.4813  0.6890
19176TIP3    H178943   3.237   5.409  14.493  0.8587 -0.4331  0.5298
19176TIP3    H278944   3.276   5.483  14.367 -0.6633  0.6984  0.6909
19177TIP3   OH278945   4.715   0.395  10.474 -0.2108 -0.2961 -0.0065
19177TIP3    H178946   4.726   0.476  10.425 -0.4650 -0.0783  0.2906
19177TIP3    H278947   4.643   0.413  10.534 -1.0728 -1.1220 -0.7434
19178TIP3   OH278948   6.390   4.312   1.369  0.4152  0.5498 -0.5937
19178TIP3    H178949   6.372   4.237   1.312 -1.0641  0.0981  0.4258
19178TIP3    H278950   6.306   4.357   1.376  0.8633  1.2751  0.2888
19179TIP3   OH278951   5.929   5.417   4.887  0.3117 -0.0583 -0.0208
19179TIP3    H178952   5.885   5.377   4.812 -1.2161  0.3278  0.6438
19179TIP3    H278953   5.926   5.511   4.869 -0.0139  0.0311  0.5032
19180TIP3   OH278954   5.508   1.044  13.299 -0.0004 -0.3106  0.6508
19180TIP3    H178955   5.592   1.008  13.271 -1.2702 -0.8717 -2.9344
19180TIP3    H278956   5.521   1.138  13.300  0.4542 -0.3298 -0.9447
19181TIP3   OH278957   6.217   2.670  16.057 -0.0303  0.6382 -0.2120
19181TIP3    H178958   6.233   2.614  16.133 -0.3890 -0.3405 -0.8413
19181TIP3    H278959   6.304   2.688  16.022  0.0282 -0.6878 -0.8087
19182TIP3   OH278960   4.848   6.351   4.831 -0.4574 -0.0466 -0.4207
19182TIP3    H178961   4.774   6.411   4.838 -0.2725  0.0055  2.2180
19182TIP3    H278962   4.916   6.391   4.884  1.5507 -0.0866 -2.7946
19183TIP3   OH278963   2.845   6.765  14.138 -0.4464 -0.1390 -0.1885
19183TIP3    H178964   2.920   6.711  14.163 -0.4286 -0.9896 -1.8728
19183TIP3    H278965   2.862   6.788  14.047 -0.3935  2.9186  0.5100
19184TIP3   OH278966   4.281   4.422  11.067 -0.3556 -0.0299 -0.4800
19184TIP3    H178967   4.192   4.392  11.084  0.1039 -0.2473  1.9247
19184TIP3    H278968   4.334   4.381  11.136  1.1234  2.3099 -0.1125
19185TIP3   OH278969   2.325   1.788  12.616 -0.4542 -0.5303 -0.4903
19185TIP3    H178970   2.344   1.852  12.548 -1.0249 -0.4982 -0.6274
19185TIP3    H278971   2.410   1.749  12.637  0.2416  1.6359  1.0084
19186TIP3   OH278972   0.185   1.367   2.414  0.0431  0.6880 -0.3044
19186TIP3    H178973   0.255   1.415   2.458 -0.0555 -0.0261  0.6633
19186TIP3    H278974   0.207   1.275   2.428  0.0535  0.4240 -1.8405
19187TIP3   OH278975   6.498   3.888   0.322 -0.0603  0.0346  0.1958
19187TIP3    H178976   6.518   3.959   0.383 -1.1693 -1.8174  2.8925
19187TIP3    H278977   6.563   3.897   0.252  0.7076  2.8103  1.1547
19188TIP3   OH278978   3.581   1.321  15.167 -0.1141  0.3439 -0.2915
19188TIP3    H178979   3.542   1.245  15.210  2.3071 -0.8329 -0.0275
19188TIP3    H278980   3.563   1.307  15.074 -1.1513  0.3711 -0.1116
19189TIP3   OH278981   5.915   4.765  15.376 -1.0805  0.0041 -0.3372
19189TIP3    H178982   5.934   4.702  15.445 -0.7290 -0.5534 -0.9266
19189TIP3    H278983   5.822   4.785  15.386 -1.0489 -0.1246  0.2475
19190TIP3   OH278984   5.954   3.586  16.162  0.1733 -0.4451 -0.1876
19190TIP3    H178985   5.877   3.592  16.106  0.8558 -0.2551 -1.1443
19190TIP3    H278986   5.921   3.601  16.251 -0.7082  0.8999 -0.7043
19191TIP3   OH278987   1.799   5.350   1.702  0.3007 -0.8556 -0.4110
19191TIP3    H178988   1.826   5.371   1.612 -0.3382 -0.1525 -0.4432
19191TIP3    H278989   1.819   5.429   1.752 -0.0983 -0.9515 -0.0952
19192TIP3   OH278990   4.762   1.101   3.290 -0.0140  0.4313  0.1871
19192TIP3    H178991   4.753   1.075   3.382  1.9695 -0.3293  0.1987
19192TIP3    H278992   4.791   1.192   3.294 -0.6042  0.6231  0.2758
19193TIP3   OH278993   2.899   3.988   3.451  0.6130  0.1851  0.3043
19193TIP3    H178994   2.916   3.937   3.531 -0.3057  0.3727  0.6329
19193TIP3    H278995   2.804   3.979   3.437  0.3870  1.9400  0.4791
19194TIP3   OH278996   2.737   2.757  13.458  0.4826 -0.0113  0.4628
19194TIP3    H178997   2.767   2.676  13.498  0.8059 -0.0436  0.1485
19194TIP3    H278998   2.652   2.735  13.420 -0.3210  0.2593  1.9824
19195TIP3   OH278999   3.510   1.976  16.258 -0.3078  1.0616 -0.0232
19195TIP3    H179000   3.459   2.043  16.212 -1.0811  0.3361 -0.2448
19195TIP3    H279001   3.478   1.893  16.222  0.3813  0.5590  0.5097
19196TIP3   OH279002   4.206   2.080  14.824 -0.3608  0.8181 -0.2449
19196TIP3    H179003   4.228   2.024  14.749 -0.4812  2.3299 -1.4613
19196TIP3    H279004   4.126   2.042  14.860 -1.2166  0.9904 -1.8927
19197TIP3   OH279005   5.478   4.491  11.640  0.7362  0.4325 -0.5270
19197TIP3    H179006   5.519   4.412  11.677  0.7854  0.9308  0.5106
19197TIP3    H279007   5.431   4.530  11.713 -2.0910 -0.3821 -1.7971
19198TIP3   OH279008   4.911   2.626   3.795 -0.5588 -0.5526  0.2177
19198TIP3    H179009   4.973   2.600   3.862 -0.5899  1.3167  1.0463
19198TIP3    H279010   4.939   2.581   3.716  2.1169  0.5268  0.4649
19199TIP3   OH279011   1.079   5.852   5.185  0.0038 -0.2994 -0.2598
19199TIP3    H179012   1.063   5.825   5.275  0.2368 -2.2677 -0.7738
19199TIP3    H279013   1.170   5.881   5.184  1.0316 -3.2856 -0.4822
19200TIP3   OH279014   5.840   4.019  12.190  0.5011  0.2328  0.2359
19200TIP3    H179015   5.876   3.941  12.232 -1.2272 -0.8991 -0.2515
19200TIP3    H279016   5.859   4.007  12.097 -0.6716 -0.1628  0.0296
19201TIP3   OH279017   2.286   6.344  12.531  0.9402  0.1400 -0.0999
19201TIP3    H179018   2.329   6.335  12.616  0.9062  0.5197 -0.0407
19201TIP3    H279019   2.355   6.329  12.467  0.5543 -2.2889 -0.0424
19202TIP3   OH279020   2.112   4.482  13.169  0.1514 -0.3989  0.0970
19202TIP3    H179021   2.148   4.394  13.160  0.0729 -0.5522  1.1112
19202TIP3    H279022   2.184   4.533  13.205  0.7656  0.4046 -2.1251
19203TIP3   OH279023   1.103   0.037  14.054 -0.1391  0.1299 -0.0415
19203TIP3    H179024   1.022   0.088  14.047  0.8834  1.8347  0.0162
19203TIP3    H279025   1.103  -0.019  13.977 -1.1289  0.4785 -0.3130
19204TIP3   OH279026   3.249   3.144   5.993 -0.0079  0.5155 -0.3480
19204TIP3    H179027   3.315   3.077   6.013 -0.1477  1.0805  2.4139
19204TIP3    H279028   3.217   3.173   6.079 -0.0520  4.0244 -1.3807
19205TIP3   OH279029   5.643   3.338  15.393 -0.5104 -0.1580  0.1217
19205TIP3    H179030   5.554   3.305  15.377 -0.6491  0.2415  0.0603
19205TIP3    H279031   5.645   3.422  15.348  0.7538 -1.3236 -2.1934
19206TIP3   OH279032   2.551   5.120   4.280  0.5636  0.1989 -0.1699
19206TIP3    H179033   2.616   5.092   4.344  1.8435 -1.1659 -1.9564
19206TIP3    H279034   2.600   5.129   4.199 -1.4770 -0.9574 -1.6225
19207TIP3   OH279035   1.016   0.794  13.624 -0.0374 -0.1632 -0.4827
19207TIP3    H179036   1.084   0.727  13.616  1.8521  1.7643 -1.9086
19207TIP3    H279037   1.065   0.874  13.644 -2.2884  0.6662  2.2077
19208TIP3   OH279038   1.004   0.070  15.222  0.5186  0.0743  0.4550
19208TIP3    H179039   1.037   0.057  15.134  0.3243 -0.1710  0.4184
19208TIP3    H279040   0.919   0.026  15.223  0.4596  0.1893  0.7239
19209TIP3   OH279041   5.922   5.870   0.456  0.3701 -0.2459  0.0753
19209TIP3    H179042   5.853   5.934   0.475  0.7002 -0.5678  2.7541
19209TIP3    H279043   5.991   5.922   0.415 -0.5984  0.4725 -0.7186
19210TIP3   OH279044   4.289   3.833   6.559 -0.3056 -0.1047 -0.6450
19210TIP3    H179045   4.226   3.832   6.631 -0.2137  1.8438 -0.4921
19210TIP3    H279046   4.236   3.836   6.479 -0.4453  1.3661 -0.5213
19211TIP3   OH279047   4.478   6.171   0.575 -0.5820  0.3420 -0.1020
19211TIP3    H179048   4.463   6.193   0.667 -0.0864  0.0079  0.0628
19211TIP3    H279049   4.436   6.086   0.563  1.7709 -1.0048  0.5796
19212TIP3   OH279050   2.831   1.260   4.652 -0.3049 -0.0849 -0.5552
19212TIP3    H179051   2.907   1.306   4.690 -0.0576 -1.0856  0.2000
19212TIP3    H279052   2.847   1.168   4.671  0.1670 -0.7564 -3.7498
19213TIP3   OH279053   2.166   2.242  12.185 -0.4701  0.2504  0.1498
19213TIP3    H179054   2.157   2.155  12.224  0.1265  0.3794  0.5990
19213TIP3    H279055   2.218   2.227  12.106  1.2230  0.4053  1.1658
19214TIP3   OH279056   5.708   0.696  16.352 -0.0665  0.2976  0.1106
19214TIP3    H179057   5.791   0.650  16.336 -0.2448  0.0288 -0.0382
19214TIP3    H279058   5.711   0.771  16.291  0.2889  0.5717  0.4615
19215TIP3   OH279059   1.461   4.713  17.050 -0.3337  0.0255  0.1466
19215TIP3    H179060   1.426   4.745  17.134  1.5497  0.0584  0.9817
19215TIP3    H279061   1.468   4.792  16.996  0.3670  0.3553  0.7042
19216TIP3   OH279062   2.968   1.895  12.782 -0.0514 -0.0844 -0.6403
19216TIP3    H179063   3.028   1.939  12.721 -2.0479  1.5186 -1.5639
19216TIP3    H279064   2.891   1.875  12.730 -2.1182  1.9245  1.4070
19217TIP3   OH279065   1.230   6.286  12.220 -0.3593  0.0378 -0.2194
19217TIP3    H179066   1.206   6.195  12.238 -0.8465  0.2481  0.2364
19217TIP3    H279067   1.157   6.337  12.255 -0.3428  0.5802 -0.9620
19218TIP3   OH279068   0.009   3.322   0.883  0.1991  0.0879  0.0132
19218TIP3    H179069  -0.051   3.394   0.901 -2.2207 -1.6735 -0.4891
19218TIP3    H279070  -0.046   3.244   0.884  2.5111 -1.6607 -0.5111
19219TIP3   OH279071   4.858   3.106  10.661  0.0135  0.3071 -0.3972
19219TIP3    H179072   4.820   3.160  10.731 -0.3622 -0.5421  0.0614
19219TIP3    H279073   4.810   3.133  10.583 -1.9491 -1.0944  0.2530
19220TIP3   OH279074   4.676   6.038   4.449 -0.3095  0.8360  0.1402
19220TIP3    H179075   4.618   6.107   4.480  2.3159  1.7741  3.6547
19220TIP3    H279076   4.734   6.081   4.387 -1.3638  0.6383 -1.0167
19221TIP3   OH279077   0.130   4.024   4.136  0.4794  0.6042 -0.0105
19221TIP3    H179078   0.193   4.093   4.114 -0.3224  1.9499  1.7500
19221TIP3    H279079   0.133   4.018   4.231  1.1488 -2.4354 -0.1255
19222TIP3   OH279080   1.652   0.107   2.556  0.6772 -0.0650  0.3729
19222TIP3    H179081   1.635   0.087   2.464  0.8840 -0.4143  0.4101
19222TIP3    H279082   1.734   0.062   2.576  2.4583  2.6829 -0.1862
19223TIP3   OH279083   0.751   2.253   0.017 -0.2971  0.6011 -0.1889
19223TIP3    H179084   0.816   2.184   0.030 -0.5164  0.2978 -0.6771
19223TIP3    H279085   0.800   2.327  -0.017 -0.3110  0.1085 -1.3405
19224TIP3   OH279086   6.591   0.551  13.463 -0.3834  0.3697 -0.0573
19224TIP3    H179087   6.672   0.602  13.458 -0.0805 -0.0674  0.2491
19224TIP3    H279088   6.619   0.467  13.501 -1.0216  0.3128  0.2950
19225TIP3   OH279089   1.200   5.091   3.891 -0.2646  0.1224 -0.0737
19225TIP3    H179090   1.162   5.132   3.968 -2.1821 -0.9379 -0.3820
19225TIP3    H279091   1.167   5.001   3.893  1.4661 -0.5761 -0.9339
19226TIP3   OH279092   6.735   3.922  14.079 -0.0181 -0.0841  0.3917
19226TIP3    H179093   6.762   3.831  14.091 -0.5368 -0.1593  1.0550
19226TIP3    H279094   6.672   3.938  14.149 -1.2094  0.2783 -0.7150
19227TIP3   OH279095   2.775   5.114   2.762 -0.2849  0.0765  0.7451
19227TIP3    H179096   2.753   5.041   2.819  0.6272 -0.5726  0.2810
19227TIP3    H279097   2.692   5.161   2.751 -0.7006 -0.4141  1.7026
19228TIP3   OH279098   6.176   0.030   1.152  0.1048  0.4317 -0.4837
19228TIP3    H179099   6.178   0.024   1.248 -0.9027  1.3442 -0.3766
19228TIP3    H279100   6.151   0.121   1.135  0.7369  0.4050 -1.6296
19229TIP3   OH279101   1.510   5.927  12.365 -0.5683  0.0471 -0.3943
19229TIP3    H179102   1.575   5.996  12.377  0.2770 -0.6789 -0.6950
19229TIP3    H279103   1.435   5.954  12.419 -1.4027  2.5874 -2.6156
19230TIP3   OH279104   1.230   3.469  13.854  0.2396 -0.4945  0.0355
19230TIP3    H179105   1.300   3.479  13.789  0.2921  0.8048  0.2623
19230TIP3    H279106   1.174   3.545  13.839  1.1610  0.8005  2.5836
19231TIP3   OH279107   2.504   4.326  10.830  0.1763 -0.6305 -0.1347
19231TIP3    H179108   2.591   4.289  10.847  1.1548  1.8506  0.7660
19231TIP3    H279109   2.509   4.415  10.864 -2.8581 -0.4904  0.2037
19232TIP3   OH279110   0.652   3.230   3.570 -0.4348 -0.3292 -0.1327
19232TIP3    H179111   0.610   3.166   3.627  0.8328 -0.7077  0.4107
19232TIP3    H279112   0.593   3.305   3.572 -1.8137 -1.3520 -0.5632
19233TIP3   OH279113   5.442   5.958  11.233 -0.6014 -0.3756  0.1234
19233TIP3    H179114   5.357   5.998  11.250 -0.9668 -0.2803 -1.7382
19233TIP3    H279115   5.505   6.029  11.242 -0.5916 -0.5762  2.1475
19234TIP3   OH279116   0.655   5.405   0.290  0.4462 -0.0576  0.2747
19234TIP3    H179117   0.676   5.345   0.361  2.2728 -1.9023 -1.6538
19234TIP3    H279118   0.679   5.357   0.210 -0.3075  2.3521 -1.5282
19235TIP3   OH279119   6.482   4.008   1.058  0.1795 -0.0299  0.0418
19235TIP3    H179120   6.545   3.954   1.010  0.6886  0.6403 -0.0685
19235TIP3    H279121   6.461   4.079   0.998 -0.4558 -0.0894  0.1940
19236TIP3   OH279122   3.718   6.270  15.991  0.0040 -0.3113 -0.1802
19236TIP3    H179123   3.642   6.228  15.951 -1.2462  0.2021  1.5265
19236TIP3    H279124   3.697   6.273  16.085  1.0022  2.0928  0.0394
19237TIP3   OH279125   3.463   6.740   3.377  0.2413  0.2564  0.0560
19237TIP3    H179126   3.473   6.785   3.293  1.5713  0.4382  0.2904
19237TIP3    H279127   3.538   6.680   3.380 -0.5432 -0.7117  0.5235
19238TIP3   OH279128   0.255   5.631   3.211 -0.0683 -0.3422 -0.0759
19238TIP3    H179129   0.261   5.684   3.290 -0.8997 -1.0266  0.4654
19238TIP3    H279130   0.291   5.686   3.142  0.5979  0.2953  0.7620
19239TIP3   OH279131   2.229   2.936  14.483 -0.0161 -0.0909  0.2164
19239TIP3    H179132   2.201   2.845  14.489 -0.5137  0.1201  1.2072
19239TIP3    H279133   2.180   2.972  14.409 -0.1548 -0.4918  0.1112
19240TIP3   OH279134   4.154   5.249   5.376  0.0199 -0.0692  0.3828
19240TIP3    H179135   4.132   5.174   5.432 -1.3653 -0.8895 -1.1612
19240TIP3    H279136   4.101   5.321   5.411 -1.9639 -0.9388 -0.6655
19241TIP3   OH279137   3.970   4.456  14.840  0.2563  0.0307  0.0286
19241TIP3    H179138   3.983   4.372  14.884  0.5787 -1.0138 -1.9295
19241TIP3    H279139   3.881   4.452  14.806 -0.2488  1.1266  1.1308
19242TIP3   OH279140   4.468   1.026  12.582  0.8753  0.7013  0.0624
19242TIP3    H179141   4.434   0.965  12.517  1.6044 -1.1112  1.2909
19242TIP3    H279142   4.432   1.111  12.556 -2.6379 -0.6390 -0.0813
19243TIP3   OH279143   0.531   5.657   0.272  0.3427  0.4245 -0.0919
19243TIP3    H179144   0.446   5.619   0.248 -0.1378  0.7606  1.0474
19243TIP3    H279145   0.587   5.581   0.290 -0.0384  0.2184  0.2256
19244TIP3   OH279146   4.682   4.782  13.089 -0.1636  0.6370  0.3468
19244TIP3    H179147   4.730   4.700  13.081 -0.2629  0.6712 -0.6319
19244TIP3    H279148   4.749   4.848  13.107 -0.0518  0.3981  0.8230
19245TIP3   OH279149   5.591   3.855  11.945  0.2565  0.3773  0.1256
19245TIP3    H179150   5.567   3.947  11.946  2.4724  1.0415  2.8690
19245TIP3    H279151   5.564   3.824  11.858 -2.2537  3.0716 -0.1966
19246TIP3   OH279152   4.049   2.327   1.119  0.0771 -0.1457  0.5607
19246TIP3    H179153   4.121   2.283   1.074 -0.1005 -0.3205  0.4416
19246TIP3    H279154   3.978   2.262   1.120  0.3633 -0.4748  1.8746
19247TIP3   OH279155   3.512   3.375   1.507 -0.1742  0.4186 -0.0524
19247TIP3    H179156   3.532   3.298   1.561 -0.5676  0.1105 -0.3444
19247TIP3    H279157   3.420   3.364   1.482 -0.7789  1.9051  1.3940
19248TIP3   OH279158   5.464   5.924  12.225 -0.0059  0.9455  0.0508
19248TIP3    H179159   5.369   5.927  12.209 -0.4005 -3.3896  0.3023
19248TIP3    H279160   5.497   5.861  12.161  2.8921  2.6852 -0.3453
19249TIP3   OH279161   6.080   3.906  15.380  0.4448 -0.1806 -0.1373
19249TIP3    H179162   6.152   3.965  15.360  0.9112 -0.9095 -0.6782
19249TIP3    H279163   6.055   3.868  15.296  2.1517 -2.9563  0.4767
19250TIP3   OH279164   4.611   5.572   0.804 -0.5326 -0.3578 -0.2864
19250TIP3    H179165   4.680   5.538   0.861  1.6482  0.7736 -2.1025
19250TIP3    H279166   4.630   5.533   0.718 -0.8508  1.6280 -1.3102
19251TIP3   OH279167   0.236   1.429  11.874  0.2750 -0.3685  0.1912
19251TIP3    H179168   0.220   1.515  11.913 -1.1489 -0.3504 -0.3567
19251TIP3    H279169   0.187   1.431  11.792  1.9079 -0.9687 -0.8622
19252TIP3   OH279170   6.320   0.980   3.621 -0.0947  0.2337  0.4877
19252TIP3    H179171   6.276   1.065   3.630  0.6898  0.6830  0.1483
19252TIP3    H279172   6.331   0.950   3.711 -1.8189 -0.2809  0.5608
19253TIP3   OH279173   2.194   2.006  16.167 -0.0894 -0.4629  0.6575
19253TIP3    H179174   2.154   2.076  16.116 -3.5926 -1.1464  2.1130
19253TIP3    H279175   2.288   2.020  16.159 -0.5819  3.8629  0.2097
19254TIP3   OH279176   0.058   4.966   1.047 -0.0947 -0.2596 -0.7292
19254TIP3    H179177   0.101   4.880   1.052 -0.2362 -0.3330 -0.7566
19254TIP3    H279178   0.093   5.015   1.121 -0.5812 -0.5985 -0.2692
19255TIP3   OH279179   0.519   4.415  14.701  0.3125  0.0518  0.0431
19255TIP3    H179180   0.457   4.408  14.628 -0.4103 -0.9108  0.7173
19255TIP3    H279181   0.513   4.331  14.745  2.6332 -0.3320 -0.2464
19256TIP3   OH279182   3.565   4.021   2.365 -0.4397 -0.0876  0.3511
19256TIP3    H179183   3.488   3.985   2.321  0.4272 -2.1227  0.3765
19256TIP3    H279184   3.591   3.953   2.427  1.3498  0.5503  0.3584
19257TIP3   OH279185   0.834   5.388   4.292 -0.1560  0.0430 -0.0204
19257TIP3    H179186   0.881   5.358   4.370  0.9913  0.4354 -0.5304
19257TIP3    H279187   0.761   5.440   4.326  0.3706  0.2711  0.7931
19258TIP3   OH279188   3.891   2.064  15.483 -0.0467  0.4602 -0.2734
19258TIP3    H179189   3.925   2.066  15.572 -1.2747  1.0067  0.2161
19258TIP3    H279190   3.796   2.055  15.495 -0.1282 -0.6581 -1.5509
19259TIP3   OH279191   2.747   2.221  15.837 -0.0946 -0.0635  0.0879
19259TIP3    H179192   2.745   2.133  15.875 -0.9728 -0.8218 -1.5945
19259TIP3    H279193   2.825   2.262  15.876  0.9808 -1.9837  0.0919
19260TIP3   OH279194   3.472   1.698  14.849  0.9864  0.7191  0.2753
19260TIP3    H179195   3.452   1.784  14.888  0.1253  0.3206  0.7625
19260TIP3    H279196   3.546   1.665  14.900  0.4577  0.6046  0.9913
19261TIP3   OH279197   5.408   0.582   6.216  0.0708  0.6067 -0.9446
19261TIP3    H179198   5.384   0.629   6.296  3.2303  0.2379  0.3581
19261TIP3    H279199   5.415   0.491   6.243 -3.0318 -0.3121 -2.7627
19262TIP3   OH279200   5.965   3.966  16.669 -0.1540 -0.0778 -0.6079
19262TIP3    H179201   5.927   3.886  16.705 -0.6282  0.1396 -0.6176
19262TIP3    H279202   6.056   3.966  16.699  0.9121 -2.3430 -3.3187
19263TIP3   OH279203   3.511   2.243  13.289 -0.3060 -0.3846  0.4448
19263TIP3    H179204   3.419   2.242  13.266 -0.4295  1.6350  0.6209
19263TIP3    H279205   3.513   2.262  13.382  0.2728  0.5501  0.2617
19264TIP3   OH279206   5.700   6.607  13.018  0.6003 -0.1899  0.3789
19264TIP3    H179207   5.670   6.645  12.935 -0.1181  0.4086  0.9037
19264TIP3    H279208   5.692   6.678  13.081  1.0028 -0.6884  1.0011
19265TIP3   OH279209   4.265   5.040   1.854 -0.0336 -0.4987 -0.1042
19265TIP3    H179210   4.333   5.055   1.919 -0.6421 -1.9181  0.9111
19265TIP3    H279211   4.312   5.036   1.771  1.1671 -1.6822  0.6008
19266TIP3   OH279212   3.783   4.427  10.729 -0.3396  0.0929 -0.1853
19266TIP3    H179213   3.712   4.491  10.728 -0.8320 -0.4340 -1.6099
19266TIP3    H279214   3.740   4.343  10.747  0.0356 -0.1031 -0.1841
19267TIP3   OH279215   1.851   1.804  14.450 -0.2813 -0.1055 -0.6653
19267TIP3    H179216   1.915   1.767  14.390  1.3333  1.7969 -0.2028
19267TIP3    H279217   1.843   1.739  14.520  1.5046 -0.1962 -0.5012
19268TIP3   OH279218   1.207   1.843  16.375 -0.5638 -0.1350  0.0331
19268TIP3    H179219   1.257   1.843  16.293  0.3239  0.1883  0.5577
19268TIP3    H279220   1.185   1.934  16.389  0.3808 -0.0049  0.7846
19269TIP3   OH279221   1.803   1.187  13.569  0.6085 -0.1027 -0.3138
19269TIP3    H179222   1.897   1.188  13.590  0.6781 -0.2875 -0.6234
19269TIP3    H279223   1.798   1.209  13.476  0.3126  0.3735 -0.1927
19270TIP3   OH279224   4.042   6.194   3.113 -0.2508 -0.4671  0.1268
19270TIP3    H179225   3.963   6.217   3.163  0.1116 -2.0148  1.4907
19270TIP3    H279226   4.112   6.242   3.158 -0.3816  1.0458 -1.1901
19271TIP3   OH279227   0.431   6.163   4.746  0.1050  0.6274  0.0149
19271TIP3    H179228   0.393   6.251   4.741 -0.3397  0.3821 -1.4534
19271TIP3    H279229   0.524   6.178   4.763 -0.0070  1.3692  0.0298
19272TIP3   OH279230   4.060   0.947  16.533  0.1496  0.0114 -0.7535
19272TIP3    H179231   4.001   1.023  16.532 -1.0850 -0.9018 -2.1512
19272TIP3    H279232   4.003   0.873  16.551  1.3991 -0.5931  0.9183
19273TIP3   OH279233   0.307   0.634   3.725 -0.0806 -0.1897  0.1492
19273TIP3    H179234   0.249   0.560   3.742 -0.2792 -1.0526 -3.3729
19273TIP3    H279235   0.395   0.600   3.741 -0.2648 -0.6589  0.1772
19274TIP3   OH279236   1.197   5.800   0.201  0.0718 -0.2975  0.3395
19274TIP3    H179237   1.290   5.802   0.181  0.0016  2.0804 -0.0118
19274TIP3    H279238   1.191   5.822   0.294 -0.1471 -0.1325  0.2885
19275TIP3   OH279239   3.822   6.257  13.840  1.1469  0.1819 -0.2649
19275TIP3    H179240   3.764   6.294  13.774 -1.2742 -0.5032  1.3387
19275TIP3    H279241   3.893   6.216  13.790 -0.8636 -0.8200 -2.4996
19276TIP3   OH279242   5.215   3.448   6.855 -0.5366  0.4260  0.1083
19276TIP3    H179243   5.185   3.409   6.773  0.8594 -0.7979  0.1432
19276TIP3    H279244   5.231   3.373   6.913 -0.6714  1.2279  1.2145
19277TIP3   OH279245   3.019   3.642  16.426 -0.1763  0.7417  0.1319
19277TIP3    H179246   3.047   3.636  16.517  1.3875  0.0940 -0.3630
19277TIP3    H279247   2.987   3.554  16.404  2.6459 -0.1622 -0.8713
19278TIP3   OH279248   2.160   0.919  15.226  0.0309 -0.1867  0.2063
19278TIP3    H179249   2.179   0.856  15.157  0.5346 -0.6012  0.7195
19278TIP3    H279250   2.155   1.003  15.180 -2.3057 -0.7743 -0.7423
19279TIP3   OH279251   2.524   6.277  13.618  0.2053 -0.4353  0.0830
19279TIP3    H179252   2.550   6.332  13.545 -2.8473 -1.5657 -2.0593
19279TIP3    H279253   2.435   6.304  13.639  0.6172 -0.8371  2.8117
19280TIP3   OH279254   2.304   0.790  11.091  0.4808 -0.1381  0.7437
19280TIP3    H179255   2.304   0.719  11.155  1.0420 -0.2878  0.5800
19280TIP3    H279256   2.388   0.782  11.046 -0.7805 -1.3628 -1.5319
19281TIP3   OH279257   1.651   1.444  16.056  0.4101  0.8872 -0.0004
19281TIP3    H179258   1.637   1.519  15.999 -0.7487  0.5476 -0.1906
19281TIP3    H279259   1.619   1.472  16.141  1.5956  1.1931  0.3555
19282TIP3   OH279260   4.575   0.798   0.581  0.0327 -0.4479 -0.1566
19282TIP3    H179261   4.495   0.819   0.629 -0.7449  1.0509 -1.9423
19282TIP3    H279262   4.545   0.783   0.491  1.8319  1.3648 -1.1567
19283TIP3   OH279263   0.744   4.072   5.959  0.2476 -0.1986  0.1161
19283TIP3    H179264   0.779   4.024   6.035 -2.9534 -3.7751 -0.3734
19283TIP3    H279265   0.757   4.012   5.885 -2.9114  0.0574 -0.7818
19284TIP3   OH279266   2.135   1.421  11.877 -0.1624  0.3060 -0.1182
19284TIP3    H179267   2.138   1.485  11.805  1.3984  0.7374  0.2792
19284TIP3    H279268   2.134   1.336  11.833 -1.4571  0.5713 -0.6457
19285TIP3   OH279269   0.450   0.081   1.174  0.0902 -0.2405 -0.0817
19285TIP3    H179270   0.432  -0.012   1.186 -0.9726 -0.1697 -0.9595
19285TIP3    H279271   0.484   0.088   1.085  2.1094 -0.0146  0.6514
19286TIP3   OH279272   1.737   0.887   2.353  0.0376  0.0187  0.1030
19286TIP3    H179273   1.741   0.905   2.447 -0.9141 -3.0231  0.8372
19286TIP3    H279274   1.650   0.850   2.339 -0.7489  2.5516 -2.5006
19287TIP3   OH279275   2.145   2.352  13.533  0.6063 -0.5509 -0.5526
19287TIP3    H179276   2.065   2.304  13.512  0.3204  0.0181 -0.7737
19287TIP3    H279277   2.214   2.308  13.483  0.5388 -1.3848  0.0586
19288TIP3   OH279278   2.994   4.591  15.538 -0.4858 -0.1514 -0.2691
19288TIP3    H179279   2.908   4.632  15.543  0.0384  0.8123  1.4791
19288TIP3    H279280   2.986   4.511  15.590 -0.5272 -0.4938 -0.7860
19289TIP3   OH279281   4.610   4.290  17.191 -0.2377  0.4709 -0.3897
19289TIP3    H179282   4.564   4.286  17.107 -2.0845  0.1957  0.5731
19289TIP3    H279283   4.544   4.263  17.255  1.7197 -1.4304  0.9459
19290TIP3   OH279284   0.278   5.352   3.101  0.0852 -0.1017 -0.6334
19290TIP3    H179285   0.234   5.427   3.060  0.7767  0.5753 -0.1677
19290TIP3    H279286   0.295   5.380   3.191  1.1130 -0.4953 -0.6927
19291TIP3   OH279287   4.634   2.639   0.240  0.3585 -0.7012  0.2075
19291TIP3    H179288   4.641   2.661   0.147 -1.3730  0.1917  0.2444
19291TIP3    H279289   4.630   2.724   0.284  0.9808 -1.1148  1.0936
19292TIP3   OH279290   4.275   3.080   5.633 -0.6002  0.1687  0.2006
19292TIP3    H179291   4.250   3.008   5.691  1.6916 -1.2154 -0.4453
19292TIP3    H279292   4.317   3.144   5.691 -0.1437 -0.2808  0.3651
19293TIP3   OH279293   5.417   0.192   4.570 -0.0128  0.5986  0.1499
19293TIP3    H179294   5.362   0.136   4.625 -0.3913  0.4311 -0.3933
19293TIP3    H279295   5.374   0.191   4.485  0.5053  0.9560 -0.1177
19294TIP3   OH279296   1.672   6.522  16.526  0.4523  0.2710  0.3747
19294TIP3    H179297   1.610   6.595  16.527  0.1387  0.0112  0.4240
19294TIP3    H279298   1.660   6.482  16.440 -0.0338 -0.2609  0.6782
19295TIP3   OH279299   3.181   5.801   4.341  0.2540  0.0974  0.1526
19295TIP3    H179300   3.210   5.892   4.347  0.2754  0.0844  0.2574
19295TIP3    H279301   3.251   5.756   4.294  0.1610  0.1712 -0.0566
19296TIP3   OH279302   4.942   4.297  12.056 -0.3038  0.3083 -0.0868
19296TIP3    H179303   4.871   4.345  12.098  1.2231  2.3801  0.3259
19296TIP3    H279304   4.944   4.213  12.101 -0.9172  1.1629  1.6345
19297TIP3   OH279305   4.737   5.541  15.485  0.1369  0.2371  0.0822
19297TIP3    H179306   4.721   5.634  15.467 -0.2479  0.5251  1.7034
19297TIP3    H279307   4.792   5.541  15.563 -0.8133 -0.8989  0.7803
19298TIP3   OH279308   5.110   3.508   5.070  0.2347 -0.6041 -0.5452
19298TIP3    H179309   5.105   3.503   5.165  1.6068  1.1365 -0.3375
19298TIP3    H279310   5.020   3.525   5.042 -0.3362 -2.0535  0.3425
19299TIP3   OH279311   1.841   5.862  13.820  0.0638  0.3370 -0.1212
19299TIP3    H179312   1.801   5.865  13.733  0.2492 -0.2329 -0.2352
19299TIP3    H279313   1.769   5.875  13.881  0.0983  1.8796 -0.3790
19300TIP3   OH279314   2.334   1.843   5.202  0.3314  0.4819  0.8146
19300TIP3    H179315   2.285   1.907   5.151 -0.1467  0.6830  1.5065
19300TIP3    H279316   2.301   1.758   5.172  1.8571  0.4664 -1.0097
19301TIP3   OH279317   6.621   0.359   3.748 -0.1107 -0.0909  0.6330
19301TIP3    H179318   6.657   0.313   3.824  0.8779  1.1521  0.9496
19301TIP3    H279319   6.648   0.450   3.760 -1.5759  0.4878 -0.2367
19302TIP3   OH279320   4.928   4.269   2.553 -0.1921  0.0525 -0.2549
19302TIP3    H179321   4.930   4.295   2.461  1.1125  2.0124  0.2785
19302TIP3    H279322   4.918   4.351   2.602 -0.9696 -0.9492  1.3694
19303TIP3   OH279323   0.653   6.482   5.375 -0.2744  0.2237  0.5088
19303TIP3    H179324   0.741   6.454   5.349  0.0632  0.2385  1.6124
19303TIP3    H279325   0.629   6.424   5.447  0.1768  2.2677  2.4242
19304TIP3   OH279326   0.438   1.684   5.954 -0.2144 -0.0826 -0.2808
19304TIP3    H179327   0.468   1.703   5.866  1.7155 -0.2531  0.3042
19304TIP3    H279328   0.492   1.739   6.011 -0.2405 -1.2174  0.8851
19305TIP3   OH279329   2.339   2.158  11.997  0.2068 -0.1123  0.1962
19305TIP3    H179330   2.352   2.180  11.905 -1.4348  1.5515  0.2837
19305TIP3    H279331   2.422   2.180  12.039  1.1815 -1.4606 -0.9395
19306TIP3   OH279332   5.774   0.857  12.447 -0.7436 -0.0405  0.0691
19306TIP3    H179333   5.765   0.933  12.505 -3.0184  0.0384 -0.3033
19306TIP3    H279334   5.696   0.804  12.465 -0.7243 -0.7676 -1.8164
19307TIP3   OH279335   3.062   0.031   6.235  0.3498  0.1595 -0.2519
19307TIP3    H179336   3.048   0.120   6.201  3.6863  1.2608  0.7963
19307TIP3    H279337   3.029   0.034   6.325 -0.1450  0.1358 -0.4336
19308TIP3   OH279338   1.041   1.112   1.090 -0.0640  0.0040  0.0115
19308TIP3    H179339   0.963   1.062   1.113 -1.0135  1.1762 -0.5463
19308TIP3    H279340   1.111   1.047   1.083 -0.8878 -1.0004  0.9901
19309TIP3   OH279341   5.810   4.605  11.657 -0.0818 -0.2205 -0.1691
19309TIP3    H179342   5.841   4.692  11.682  0.1916 -0.7567  1.5613
19309TIP3    H279343   5.721   4.618  11.627  0.5319  0.8700 -1.6195
19310TIP3   OH279344   4.599   6.695   1.339  0.0373  0.1697 -0.0318
19310TIP3    H179345   4.528   6.755   1.363 -1.1632 -1.1220 -0.2426
19310TIP3    H279346   4.658   6.697   1.414 -1.9750 -1.2873  1.7221
19311TIP3   OH279347   5.903   0.496   3.679  0.2577  0.4324 -0.1286
19311TIP3    H179348   5.988   0.529   3.708  0.5797 -0.0464 -0.5097
19311TIP3    H279349   5.922   0.446   3.600 -0.4575  0.7856 -0.5371
19312TIP3   OH279350   1.941   2.005   3.651 -0.5612  0.0952  0.7562
19312TIP3    H179351   1.920   1.993   3.558 -1.4487  2.1239  0.6564
19312TIP3    H279352   1.884   1.943   3.697 -0.3583 -0.6782 -0.0084
19313TIP3   OH279353   5.786   0.958  12.180 -0.6919  0.1578 -0.3235
19313TIP3    H179354   5.799   0.943  12.274  3.0788  2.3521 -0.2817
19313TIP3    H279355   5.845   0.895  12.137 -0.0980  1.1574 -1.0175
19314TIP3   OH279356   1.591   4.014   5.872 -0.4585 -0.1851  0.7393
19314TIP3    H179357   1.563   3.923   5.864  1.8947 -0.9819  0.8866
19314TIP3    H279358   1.519   4.058   5.917 -1.6208 -1.9679  0.6978
19315TIP3   OH279359   1.094   3.976   4.032 -0.2501  0.2064 -0.0651
19315TIP3    H179360   1.123   3.886   4.012  0.5159  0.0582  1.6087
19315TIP3    H279361   1.030   3.995   3.963  0.5467 -1.1170 -1.2461
19316TIP3   OH279362   5.087   1.370  13.779  0.6301 -0.1570 -0.1520
19316TIP3    H179363   5.077   1.275  13.785 -0.1177 -0.0958 -0.2752
19316TIP3    H279364   5.036   1.395  13.702 -0.9610  0.5574  1.0580
19317TIP3   OH279365   4.739   6.067   0.519 -0.4924 -0.3604  0.1509
19317TIP3    H179366   4.723   5.979   0.485 -0.0471 -0.4614  0.1929
19317TIP3    H279367   4.659   6.090   0.565 -1.0456 -0.2899 -0.8230
19318TIP3   OH279368   5.547   5.850  12.712 -0.0207 -0.3151  0.3558
19318TIP3    H179369   5.618   5.787  12.718  0.8275  0.2371 -2.2098
19318TIP3    H279370   5.469   5.798  12.695 -0.1794 -0.8889  2.6176
19319TIP3   OH279371   4.058   0.399  13.570 -0.1358 -0.5539 -0.7531
19319TIP3    H179372   4.112   0.408  13.491  0.6485  1.8153 -0.0511
19319TIP3    H279373   4.121   0.387  13.641 -0.7556 -1.2477 -0.3033
19320TIP3   OH279374   3.610   0.031  15.190 -0.1921 -0.6076  0.1606
19320TIP3    H179375   3.691   0.007  15.235 -0.9493 -0.6001  1.5984
19320TIP3    H279376   3.600  -0.035  15.121  0.4408 -1.2970  0.7114
19321TIP3   OH279377   6.157   1.042  13.720  0.1611  0.0594  0.4459
19321TIP3    H179378   6.123   1.126  13.750 -0.4603 -0.5257  1.4459
19321TIP3    H279379   6.244   1.036  13.760  0.0748  0.0932  0.6429
19322TIP3   OH279380   2.672   0.935   4.161 -0.2299  0.0862 -0.2306
19322TIP3    H179381   2.630   0.850   4.176  1.9425 -1.0774 -0.3313
19322TIP3    H279382   2.702   0.962   4.248  1.5261 -0.6710 -0.5483
19323TIP3   OH279383   4.000   5.921  13.461  0.8169 -0.0316  0.1187
19323TIP3    H179384   4.056   5.851  13.428 -0.2887  0.0338 -2.0426
19323TIP3    H279385   3.957   5.883  13.538 -2.2142 -3.0783 -2.7409
19324TIP3   OH279386   1.750   0.342   3.607 -0.0422 -0.5218 -0.1163
19324TIP3    H179387   1.684   0.333   3.676  1.9081  1.1495  2.1142
19324TIP3    H279388   1.833   0.343   3.653  1.5668 -1.5583 -2.7486
19325TIP3   OH279389   5.541   4.443  11.360 -0.1823 -0.1950  0.1249
19325TIP3    H179390   5.601   4.370  11.371  0.8414  0.3918 -1.2749
19325TIP3    H279391   5.516   4.467  11.449  2.3167  0.0667  0.8261
19326TIP3   OH279392   5.041   0.964   2.878  0.0321 -0.3268 -0.2715
19326TIP3    H179393   5.002   1.037   2.926  0.1166 -2.0603  2.6401
19326TIP3    H279394   5.130   0.993   2.858  0.4693 -0.0090  1.9001
19327TIP3   OH279395   2.264   0.852  11.992 -0.1523  0.2037 -0.4769
19327TIP3    H179396   2.220   0.907  11.927 -1.1453  1.0574  0.8574
19327TIP3    H279397   2.215   0.770  11.992 -0.1224  0.1846 -0.8321
19328TIP3   OH279398   0.780   4.845   1.813 -0.2541 -0.6822 -0.3201
19328TIP3    H179399   0.775   4.941   1.811  1.5810 -0.5714 -0.9520
19328TIP3    H279400   0.777   4.819   1.721  0.6592 -1.1278 -0.2298
19329TIP3   OH279401   1.727   1.053   0.691  0.3139 -0.3226  0.2324
19329TIP3    H179402   1.662   0.992   0.726  0.3832 -1.0520 -0.8640
19329TIP3    H279403   1.798   1.052   0.755 -0.7364  0.4953  1.4541
19330TIP3   OH279404   0.126   1.807  12.382  0.3930 -0.1337 -0.2463
19330TIP3    H179405   0.205   1.776  12.338  0.8189 -1.3916  1.3100
19330TIP3    H279406   0.139   1.784  12.474 -1.4345  0.3494  0.1763
19331TIP3   OH279407   6.508   5.263  15.113  0.6201 -0.0859 -0.1443
19331TIP3    H179408   6.414   5.281  15.123  0.8635  0.3234  1.7653
19331TIP3    H279409   6.530   5.297  15.026 -0.8642  0.3744 -0.3639
19332TIP3   OH279410   2.009   0.148   2.913 -0.5324  0.1291  0.7955
19332TIP3    H179411   2.051   0.099   2.984  1.8635  0.5978 -0.2346
19332TIP3    H279412   2.059   0.229   2.907 -1.5215  0.6653 -0.5932
19333TIP3   OH279413   4.145   0.575   0.472 -0.0114  1.0634 -0.0989
19333TIP3    H179414   4.053   0.556   0.493 -0.3144  0.4097 -1.8288
19333TIP3    H279415   4.192   0.498   0.501 -0.1772  0.8971 -0.2682
19334TIP3   OH279416   5.066   3.046  12.807  0.3645 -0.1923  0.2414
19334TIP3    H179417   5.106   3.125  12.770  0.0364  0.8749  2.0199
19334TIP3    H279418   5.094   2.975  12.749  2.2510  0.9537 -0.3429
19335TIP3   OH279419   2.862   6.158   3.111 -0.6252  0.3707  0.3088
19335TIP3    H179420   2.857   6.066   3.138 -0.4979  0.2769  0.0130
19335TIP3    H279421   2.897   6.204   3.187  0.2865  0.0210  0.1089
19336TIP3   OH279422   5.401   3.921  14.770  0.5355  0.4358 -0.4101
19336TIP3    H179423   5.439   4.006  14.792 -0.0129  0.9425 -1.3509
19336TIP3    H279424   5.307   3.932  14.785  0.4186  0.1108 -0.9034
19337TIP3   OH279425   4.711   5.596  12.695 -0.2790  0.1236 -0.3641
19337TIP3    H179426   4.666   5.671  12.655  1.9741  0.5707 -2.2658
19337TIP3    H279427   4.711   5.616  12.789 -2.0017  1.1665 -0.5342
19338TIP3   OH279428   3.423   1.316   1.569  0.5334  0.3440 -0.0884
19338TIP3    H179429   3.483   1.243   1.555 -0.0748 -0.1415 -0.1940
19338TIP3    H279430   3.449   1.353   1.653 -0.0201 -0.8412  0.6271
19339TIP3   OH279431   5.685   2.532   1.325 -0.1489  0.1296  0.5657
19339TIP3    H179432   5.677   2.522   1.420 -0.6627 -0.9509  0.4243
19339TIP3    H279433   5.595   2.528   1.293 -0.2499  3.2015  0.2299
19340TIP3   OH279434   6.664   4.875   3.724 -0.4624  0.3488 -0.2320
19340TIP3    H179435   6.572   4.848   3.721 -0.2010 -0.5156 -1.1358
19340TIP3    H279436   6.700   4.843   3.641  1.3805 -2.0408  1.3637
19341TIP3   OH279437   3.348   6.380  11.603  0.1380  0.5346  0.3690
19341TIP3    H179438   3.409   6.330  11.657 -0.0228  1.1037  1.0821
19341TIP3    H279439   3.403   6.421  11.536  0.2932 -0.4499 -0.1333
19342TIP3   OH279440   6.475   6.734  11.241 -0.1910  0.8556  0.0727
19342TIP3    H179441   6.476   6.766  11.151  2.1773 -0.5108 -0.4913
19342TIP3    H279442   6.508   6.645  11.235  1.0873  1.0801  2.3854
19343TIP3   OH279443   2.107   5.881  17.118  0.1790  0.5643 -0.1098
19343TIP3    H179444   2.117   5.976  17.107  0.7831  0.4530 -0.6102
19343TIP3    H279445   2.094   5.848  17.028 -3.8773  0.5474  0.2641
19344TIP3   OH279446   6.118   4.879  15.746  0.0495 -0.1901 -0.3492
19344TIP3    H179447   6.029   4.848  15.759 -0.3393  1.3114  0.7147
19344TIP3    H279448   6.170   4.799  15.741 -0.9037 -1.0800  2.3426
19345TIP3   OH279449   6.044   2.063  10.890 -0.1642  0.0351  0.4590
19345TIP3    H179450   6.071   1.993  10.829 -0.4024  0.3327  0.0029
19345TIP3    H279451   5.961   2.031  10.927  0.1714 -0.3146  0.9094
19346TIP3   OH279452   1.732   4.993  14.313 -0.3123  0.1140  0.1719
19346TIP3    H179453   1.643   4.971  14.287 -1.1326  3.3559 -0.2155
19346TIP3    H279454   1.752   4.932  14.385 -2.4362 -1.3058 -0.3640
19347TIP3   OH279455   6.314   4.519  11.636 -0.4077  0.7321  0.6726
19347TIP3    H179456   6.393   4.570  11.618 -0.5959  1.2665  1.3291
19347TIP3    H279457   6.340   4.457  11.704 -0.3527  0.3945  0.3432
19348TIP3   OH279458   1.224   1.125   3.464  0.0111 -0.0713 -0.0732
19348TIP3    H179459   1.268   1.063   3.521 -0.4834  0.9205  1.4680
19348TIP3    H279460   1.291   1.190   3.443  0.4417 -0.9151 -1.4222
19349TIP3   OH279461   3.845   0.033   3.397  0.0022 -0.0573 -0.1971
19349TIP3    H179462   3.928   0.053   3.440  0.6999  1.4298 -2.1227
19349TIP3    H279463   3.855   0.065   3.308 -1.0167 -3.8576 -1.8731
19350TIP3   OH279464   1.230   2.547  13.611 -0.3850  0.1566 -0.1936
19350TIP3    H179465   1.254   2.574  13.700  0.4336 -0.9948 -0.0389
19350TIP3    H279466   1.135   2.538  13.613 -0.4252  0.6354  0.4111
19351TIP3   OH279467   5.590   1.023  17.042  0.0178 -0.2983 -0.1919
19351TIP3    H179468   5.672   1.012  17.091 -0.8901 -2.2859  1.0217
19351TIP3    H279469   5.615   1.010  16.951  0.9516 -1.7762  0.2372
19352TIP3   OH279470   4.126   2.933  14.641  0.2334 -0.5534 -0.1557
19352TIP3    H179471   4.057   2.922  14.706  1.1242 -0.0937  0.8990
19352TIP3    H279472   4.129   2.850  14.594 -1.0257 -0.5756 -0.2277
19353TIP3   OH279473   2.672   1.261   0.052 -0.2604 -0.1374  0.5526
19353TIP3    H179474   2.594   1.266  -0.003  1.5722  1.7181 -2.1658
19353TIP3    H279475   2.694   1.353   0.070  0.7709 -0.6463  2.0602
19354TIP3   OH279476   6.409   2.439   2.751 -0.2677 -0.4281  0.3383
19354TIP3    H179477   6.437   2.401   2.835 -1.6242  1.1694  1.5846
19354TIP3    H279478   6.314   2.430   2.751 -0.5690  1.9345  0.2615
19355TIP3   OH279479   4.248   6.603   0.813 -0.3867  0.0400 -0.0209
19355TIP3    H179480   4.225   6.514   0.787  0.6293 -0.3085  0.2488
19355TIP3    H279481   4.278   6.595   0.904  0.0710  0.5916 -0.1155
19356TIP3   OH279482   2.073   0.149   5.543 -0.0213  0.0528 -0.2393
19356TIP3    H179483   1.987   0.182   5.567  0.2967  0.0494  0.9991
19356TIP3    H279484   2.125   0.159   5.623  1.5791  1.5203 -1.3932
19357TIP3   OH279485   0.431   2.347  16.609 -0.1286 -0.3169 -0.1128
19357TIP3    H179486   0.380   2.272  16.641 -2.7974  1.1502 -0.6475
19357TIP3    H279487   0.426   2.411  16.680  0.9359 -0.0760 -0.2363
19358TIP3   OH279488   2.411   1.301  12.955  0.6429 -0.4916  0.0386
19358TIP3    H179489   2.358   1.224  12.972  0.7844 -0.4745  0.5720
19358TIP3    H279490   2.406   1.353  13.035  3.4014 -1.6239  1.0712
19359TIP3   OH279491   5.888   0.075  13.506 -0.2541 -0.2860 -0.2188
19359TIP3    H179492   5.866   0.117  13.589  0.7957  0.0914 -0.1229
19359TIP3    H279493   5.925   0.146  13.453  3.4748 -1.3868  0.6477
19360TIP3   OH279494   3.477   5.230   2.993 -0.0622 -0.2346 -0.1205
19360TIP3    H179495   3.386   5.237   3.022  0.0672 -1.9294  0.8184
19360TIP3    H279496   3.474   5.254   2.901 -1.3690  0.2159  0.0071
19361TIP3   OH279497   6.555   5.538  16.293 -0.2261  0.2921  0.6034
19361TIP3    H179498   6.585   5.602  16.357 -0.7092 -1.1678  2.3491
19361TIP3    H279499   6.459   5.545  16.295 -0.3425 -1.3192  1.7390
19362TIP3   OH279500   1.599   0.243   0.058 -0.1355 -0.3139 -0.3564
19362TIP3    H179501   1.641   0.329   0.063 -0.9361  0.0490  0.4130
19362TIP3    H279502   1.507   0.261   0.077 -0.6446 -1.0975 -1.9689
19363TIP3   OH279503   3.049   3.165   5.796 -0.1737 -0.1864  0.5119
19363TIP3    H179504   3.117   3.148   5.862 -1.7406 -0.2586  2.1673
19363TIP3    H279505   3.087   3.233   5.741  1.1032  0.0651  1.6252
19364TIP3   OH279506   3.903   1.818   0.504  0.7686  0.3421 -0.2724
19364TIP3    H179507   3.946   1.860   0.579  1.6676  0.5206 -0.8712
19364TIP3    H279508   3.958   1.840   0.430 -0.1335  0.1945 -1.0041
19365TIP3   OH279509   2.561   1.944   4.471 -0.0583 -0.1762  0.7068
19365TIP3    H179510   2.631   1.910   4.417 -0.2390  0.9114 -0.2388
19365TIP3    H279511   2.493   1.876   4.468 -1.0802  0.8147 -2.4355
19366TIP3   OH279512   2.635   6.182  11.937 -0.3981 -0.1038  1.1633
19366TIP3    H179513   2.548   6.156  11.905  0.6270 -1.2991 -0.8471
19366TIP3    H279514   2.658   6.258  11.884 -0.6493  0.9580  2.5073
19367TIP3   OH279515   1.810   3.513  16.248  0.5854  0.3462 -0.4464
19367TIP3    H179516   1.737   3.451  16.244  1.3859 -0.6319 -0.4749
19367TIP3    H279517   1.884   3.464  16.210  1.2933  1.2421 -0.2376
19368TIP3   OH279518   4.380   6.341   5.649  0.0296  0.2280 -0.2884
19368TIP3    H179519   4.294   6.346   5.692 -0.6573 -0.3777 -1.5189
19368TIP3    H279520   4.375   6.403   5.577  0.5123 -0.0232 -0.5461
19369TIP3   OH279521   0.405   0.899  12.802 -0.3753 -0.1069 -0.6218
19369TIP3    H179522   0.463   0.958  12.851 -2.2446  2.8491 -1.6620
19369TIP3    H279523   0.430   0.912  12.711  0.0592 -2.0659 -0.8166
19370TIP3   OH279524   1.171   2.751   3.079  0.1357 -0.4093 -0.1103
19370TIP3    H179525   1.164   2.686   3.149 -1.4448 -1.3880 -1.1168
19370TIP3    H279526   1.087   2.746   3.033  0.7150  0.9908 -1.4073
19371TIP3   OH279527   2.612   3.488  11.004  0.1129  0.2681 -0.2281
19371TIP3    H179528   2.626   3.550  11.075 -0.4714  1.1160 -0.8397
19371TIP3    H279529   2.602   3.542  10.925 -1.7975 -0.4730 -0.5721
19372TIP3   OH279530   4.683   3.403  14.833  0.1453  0.1475  0.2662
19372TIP3    H179531   4.748   3.417  14.763 -0.9450  0.7795 -0.6584
19372TIP3    H279532   4.659   3.491  14.860  1.5595 -0.0690  2.4682
19373TIP3   OH279533   5.101   4.905   0.044 -0.0734  0.4450  0.0806
19373TIP3    H179534   5.079   4.998   0.039  0.7179  0.7391  1.5413
19373TIP3    H279535   5.197   4.903   0.037 -0.0347 -0.1943  0.6894
19374TIP3   OH279536   5.338   2.379  16.503  0.3522  0.1998 -0.5331
19374TIP3    H179537   5.433   2.377  16.501  0.4415 -1.3326  1.3966
19374TIP3    H279538   5.316   2.355  16.593 -1.8694  0.5145 -0.9320
19375TIP3   OH279539   3.379   4.533  12.832 -0.1442  0.1011 -0.2596
19375TIP3    H179540   3.451   4.584  12.869 -0.8939  0.4763  0.7229
19375TIP3    H279541   3.415   4.496  12.751  1.1763  0.1947  0.2561
19376TIP3   OH279542   3.148   2.505   5.159 -0.2546  0.0832 -0.4826
19376TIP3    H179543   3.190   2.590   5.146 -0.0620  0.4606  2.1185
19376TIP3    H279544   3.218   2.442   5.146  0.1128  0.4531 -0.3305
19377TIP3   OH279545   0.552   5.351  12.936  0.0192  0.4964  0.2633
19377TIP3    H179546   0.559   5.442  12.968 -0.7734  1.5203 -2.2298
19377TIP3    H279547   0.587   5.354  12.847  0.5389 -1.8270  0.3256
19378TIP3   OH279548   5.179   4.487  14.021  0.4728 -0.3150 -0.1405
19378TIP3    H179549   5.196   4.408  13.970  0.6588  1.4185 -2.9877
19378TIP3    H279550   5.249   4.490  14.085  0.1521 -2.6906  0.3851
19379TIP3   OH279551   6.663   1.039  14.013  0.1313  0.1259  0.2804
19379TIP3    H179552   6.687   1.026  13.921 -0.4519  0.5347  0.0672
19379TIP3    H279553   6.592   0.976  14.029  0.6565 -0.3957  0.6399
19380TIP3   OH279554   6.059   2.293  16.781  0.0029  0.6615  0.0682
19380TIP3    H179555   6.059   2.287  16.876 -0.4098 -3.9293  0.0014
19380TIP3    H279556   6.151   2.279  16.756 -0.0215  1.0322 -0.2475
19381TIP3   OH279557   0.292   2.909   1.325 -0.2607  0.2260  0.6175
19381TIP3    H179558   0.298   2.888   1.232 -2.8005 -1.8146  0.7768
19381TIP3    H279559   0.269   3.002   1.327  0.7676  0.5426 -0.7227
19382TIP3   OH279560   2.026   6.293  13.815  0.0073 -1.0097  0.3569
19382TIP3    H179561   1.975   6.251  13.884 -2.3061  1.1729  0.1063
19382TIP3    H279562   2.027   6.386  13.839  2.3077 -0.7031 -0.6756
19383TIP3   OH279563   1.763   0.363   2.580  0.1733 -0.1700 -0.2402
19383TIP3    H179564   1.739   0.300   2.512  0.3568  0.5889 -1.0382
19383TIP3    H279565   1.716   0.334   2.658 -2.4810  0.5561 -1.4334
19384TIP3   OH279566   1.804   2.792   0.673 -0.1806  0.3312  0.0542
19384TIP3    H179567   1.811   2.845   0.594 -0.1472 -1.0819 -0.9338
19384TIP3    H279568   1.888   2.803   0.717  1.4638 -1.9335 -2.1887
19385TIP3   OH279569   4.129   2.082  14.444 -0.3832  0.2659  0.1642
19385TIP3    H179570   4.065   2.033  14.495  1.2739 -1.5618  0.5787
19385TIP3    H279571   4.140   2.031  14.364 -0.3333  1.2413 -0.4726
19386TIP3   OH279572   0.100   5.112   5.242 -0.2141 -0.1270  0.0984
19386TIP3    H179573   0.062   5.026   5.223 -0.0064  0.0336 -1.1793
19386TIP3    H279574   0.027   5.173   5.232  0.0402  0.0301 -0.9211
19387TIP3   OH279575   5.005   5.513   3.807 -0.5802 -0.1291  0.3374
19387TIP3    H179576   5.022   5.553   3.892 -0.2399 -0.5232  0.4562
19387TIP3    H279577   5.019   5.419   3.820 -0.8205 -0.2289 -0.0786
19388TIP3   OH279578   1.674   2.233  16.891  0.7109 -0.0170 -0.0714
19388TIP3    H179579   1.698   2.141  16.898  1.2119  0.0932 -0.2877
19388TIP3    H279580   1.758   2.279  16.884  0.4347  0.3505 -1.1697
19389TIP3   OH279581   0.990   6.530   6.512 -0.1669 -0.9631  0.3559
19389TIP3    H179582   0.972   6.538   6.419  1.5294  1.0969  0.1157
19389TIP3    H279583   1.056   6.598   6.530 -2.1632  0.4026  3.5130
19390TIP3   OH279584   2.904   4.484   0.325  0.0019 -0.2098 -0.3566
19390TIP3    H179585   2.838   4.499   0.392  0.6910 -1.2193  0.5962
19390TIP3    H279586   2.857   4.493   0.242 -1.4409 -1.3771  0.2914
19391TIP3   OH279587   1.287   5.990  12.507  0.1275  0.3037  0.7955
19391TIP3    H179588   1.242   6.012  12.589 -2.5663  1.7111 -0.9250
19391TIP3    H279589   1.234   6.031  12.439  2.1143 -1.0343 -1.7134
19392TIP3   OH279590   3.310   5.353  13.259  0.0393  0.1182 -0.1874
19392TIP3    H179591   3.309   5.387  13.348  0.4878 -0.2844 -0.0288
19392TIP3    H279592   3.402   5.332  13.242 -0.1039 -0.1783 -0.6039
19393TIP3   OH279593   3.004   1.811   0.514 -0.1085 -0.2554  0.3750
19393TIP3    H179594   3.098   1.796   0.520 -0.5307 -2.8763  2.0991
19393TIP3    H279595   2.973   1.747   0.450 -0.5810  1.9612 -1.7949
19394TIP3   OH279596   4.278   3.837   1.989  0.2250  0.7519  0.0174
19394TIP3    H179597   4.310   3.807   1.904  2.1621  0.1048  0.9266
19394TIP3    H279598   4.357   3.855   2.040 -0.6827 -2.2525  2.8787
19395TIP3   OH279599   3.330   1.086   4.996  0.4613  0.2010 -0.5072
19395TIP3    H179600   3.373   1.101   4.912  1.5983  1.4994  0.2632
19395TIP3    H279601   3.315   1.174   5.031 -2.7821 -0.1761 -0.6522
19396TIP3   OH279602   0.664   6.476  14.293 -0.7052 -0.1530 -0.1016
19396TIP3    H179603   0.637   6.562  14.326 -1.0611 -0.2640 -0.0975
19396TIP3    H279604   0.678   6.489  14.199 -0.8535 -0.1084 -0.1191
19397TIP3   OH279605   4.814   4.261   5.176  0.4291  0.2591 -0.0740
19397TIP3    H179606   4.786   4.330   5.116 -1.5408 -0.2439  0.2055
19397TIP3    H279607   4.775   4.284   5.260 -1.2416 -1.7151 -0.2243
19398TIP3   OH279608   1.998   4.161   5.727  0.1118  0.1805 -0.5448
19398TIP3    H179609   2.064   4.093   5.735  0.3868  0.6073  1.4387
19398TIP3    H279610   1.914   4.115   5.734  0.2953  0.0084  0.8481
19399TIP3   OH279611   4.276   1.203  16.850 -0.0727  0.2996  0.4653
19399TIP3    H179612   4.222   1.272  16.887  0.4087  1.2324 -0.5261
19399TIP3    H279613   4.245   1.192  16.760  0.4872 -0.0883  0.3087
19400TIP3   OH279614   2.881   2.293   4.522  0.0816  0.1445  0.1786
19400TIP3    H179615   2.912   2.282   4.612 -0.9847  0.7108  0.6305
19400TIP3    H279616   2.795   2.251   4.521 -0.0590  0.4380 -0.4834
19401TIP3   OH279617   2.760   0.347   0.099  0.5327 -0.0348 -0.5325
19401TIP3    H179618   2.851   0.376   0.092  1.1021 -1.6787 -0.4147
19401TIP3    H279619   2.713   0.401   0.036  1.3234  1.8167  0.4092
19402TIP3   OH279620   4.283   4.585   2.564  0.4786  0.0911 -0.0381
19402TIP3    H179621   4.320   4.498   2.575 -0.6859 -0.2507  1.4193
19402TIP3    H279622   4.290   4.602   2.470  3.3316 -0.3475 -0.0025
19403TIP3   OH279623   3.018   4.948  14.317 -0.2854 -0.0282  0.2593
19403TIP3    H179624   3.093   4.942  14.375 -0.4057  0.0154  0.4190
19403TIP3    H279625   3.047   5.006  14.246 -0.3549  0.4427  0.6095
19404TIP3   OH279626   1.559   3.504   2.519  0.0026 -0.5097 -0.4530
19404TIP3    H179627   1.587   3.547   2.438 -0.1817 -0.9225 -0.7388
19404TIP3    H279628   1.491   3.442   2.492  0.5953 -1.3245 -0.1196
19405TIP3   OH279629   2.396   5.847   5.073 -0.6767  0.3020  0.8285
19405TIP3    H179630   2.333   5.912   5.106 -0.3919  1.5020 -0.8608
19405TIP3    H279631   2.471   5.856   5.132 -0.1769  2.3896 -0.0137
19406TIP3   OH279632   2.882   2.909   2.698 -0.3449 -0.5966 -0.3975
19406TIP3    H179633   2.907   2.816   2.700  1.6896 -0.1188 -1.4067
19406TIP3    H279634   2.848   2.922   2.609 -2.6966 -0.8025  0.3911
19407TIP3   OH279635   0.203   4.263   6.306  0.0293 -0.2890  0.2072
19407TIP3    H179636   0.272   4.227   6.362 -1.4922 -1.1682  1.6272
19407TIP3    H279637   0.127   4.208   6.323 -1.0860  0.7245 -1.1946
19408TIP3   OH279638   5.483   3.322  13.764 -0.1619 -0.0783  0.6856
19408TIP3    H179639   5.444   3.365  13.688  0.7283 -1.0915 -0.3769
19408TIP3    H279640   5.417   3.258  13.792 -0.7321  0.6907  1.1597
19409TIP3   OH279641   0.699   5.584  13.057  0.1851 -0.5052 -0.2066
19409TIP3    H179642   0.764   5.516  13.076 -0.6824 -1.4806 -0.6139
19409TIP3    H279643   0.695   5.637  13.136  2.8437  0.7845 -0.8088
19410TIP3   OH279644   0.716   2.727  16.051 -0.2967 -0.1734  0.0622
19410TIP3    H179645   0.807   2.753  16.068 -0.1497 -0.4583 -0.2736
19410TIP3    H279646   0.718   2.690  15.963 -0.4892 -1.3757  0.5541
19411TIP3   OH279647   3.109   2.307  16.761  0.6420  0.1226  0.0950
19411TIP3    H179648   3.104   2.359  16.841  0.1494 -0.5097  0.4859
19411TIP3    H279649   3.143   2.222  16.790 -1.1729 -0.6962 -0.0479
19412TIP3   OH279650   4.432   2.394   0.029 -0.7487 -0.5604 -0.0251
19412TIP3    H179651   4.406   2.431  -0.055  0.2165 -0.7106 -0.3960
19412TIP3    H279652   4.384   2.312   0.035 -1.2392 -0.2888 -0.1740
19413TIP3   OH279653   6.240   4.759  13.290 -0.3550 -0.2012  0.4815
19413TIP3    H179654   6.150   4.773  13.320 -0.6929 -0.0672 -0.5803
19413TIP3    H279655   6.277   4.701  13.356 -1.1800 -0.1610  1.0038
19414TIP3   OH279656   4.347   5.126  15.275  0.1803  0.4931 -0.0846
19414TIP3    H179657   4.335   5.198  15.213  0.8894  0.7608  0.0791
19414TIP3    H279658   4.434   5.140  15.311 -0.7608  1.2234  2.0874
19415TIP3   OH279659   5.850   2.449  16.672 -0.8956  0.1642  0.1975
19415TIP3    H179660   5.944   2.435  16.678 -0.9309  0.5685  2.5260
19415TIP3    H279661   5.841   2.544  16.658 -0.9644  0.2249  0.6452
19416TIP3   OH279662   0.060   1.390  16.727 -0.3853 -0.5667  0.2227
19416TIP3    H179663   0.147   1.351  16.717  0.3121  1.0301 -0.3116
19416TIP3    H279664  -0.001   1.322  16.697  0.6958 -1.5870  0.2792
19417TIP3   OH279665   2.523   1.688  14.563  0.0638  0.0290  0.0523
19417TIP3    H179666   2.581   1.751  14.605 -0.6856 -0.8303  2.5730
19417TIP3    H279667   2.449   1.740  14.532  0.4589  0.6404  0.1344
19418TIP3   OH279668   0.997   1.115  14.557 -0.1101  0.7904  0.2724
19418TIP3    H179669   0.909   1.111  14.521  0.0366  0.3835 -0.0496
19418TIP3    H279670   1.012   1.208  14.574 -0.9896  0.7645  1.3249
19419TIP3   OH279671   4.803   1.914   1.168 -0.0199  0.4822 -0.6595
19419TIP3    H179672   4.848   1.845   1.119 -1.0331 -0.8048  0.1700
19419TIP3    H279673   4.745   1.868   1.228 -1.7621  2.0761 -1.0176
19420TIP3   OH279674   5.318   5.438  17.071  0.2706  0.0127  1.0836
19420TIP3    H179675   5.338   5.360  17.123  0.1094  0.2188  1.4555
19420TIP3    H279676   5.223   5.434  17.058  0.4055 -0.4732  0.1045
19421TIP3   OH279677   1.683   4.546  15.266 -0.4704 -0.6362  0.1519
19421TIP3    H179678   1.637   4.629  15.258 -1.6001 -1.2240  0.3111
19421TIP3    H279679   1.759   4.555  15.208 -2.0710 -0.5009 -2.0833
19422TIP3   OH279680   0.928   2.512   2.379 -0.2092  0.4029 -0.1038
19422TIP3    H179681   0.853   2.544   2.329 -0.3766  0.7413  0.3593
19422TIP3    H279682   0.971   2.592   2.411 -1.3154  0.1976  2.0816
19423TIP3   OH279683   4.036   2.222  11.025 -0.7421  0.0712 -0.7543
19423TIP3    H179684   4.083   2.229  10.942  0.8787 -1.6055 -0.0432
19423TIP3    H279685   4.068   2.296  11.077 -2.4968  1.7237 -1.8783
19424TIP3   OH279686   1.741   3.909   2.168  0.5649 -0.0057 -0.0537
19424TIP3    H179687   1.803   3.853   2.122 -0.1345 -1.1229  0.3391
19424TIP3    H279688   1.793   3.985   2.196  0.9111  1.0692 -3.1839
19425TIP3   OH279689   1.951   5.793  14.600 -0.3684 -0.0303  0.0310
19425TIP3    H179690   1.964   5.885  14.623 -0.1639  0.1792 -0.9175
19425TIP3    H279691   1.856   5.784  14.591 -0.2871  0.4920 -1.5108
19426TIP3   OH279692   2.087   1.694  15.585 -0.2310  0.6631 -0.3380
19426TIP3    H179693   2.042   1.773  15.554  0.5836  1.4960  0.5382
19426TIP3    H279694   2.039   1.668  15.664 -1.8315 -1.0125 -1.7736
19427TIP3   OH279695   1.569   1.731  16.829 -0.6106  0.0871 -0.3009
19427TIP3    H179696   1.646   1.689  16.790  0.4561  1.7498 -0.0789
19427TIP3    H279697   1.511   1.658  16.851  0.5075 -1.1566 -1.2721
19428TIP3   OH279698   1.364   4.518   1.882  0.3808 -0.0878 -0.1769
19428TIP3    H179699   1.387   4.579   1.811 -1.0995 -0.7388 -1.2601
19428TIP3    H279700   1.444   4.468   1.896  0.9783  0.6689 -0.7485
19429TIP3   OH279701   3.005   5.418  15.736  0.4421  0.6535  0.1356
19429TIP3    H179702   3.096   5.446  15.743  0.6208  0.2343 -0.4028
19429TIP3    H279703   3.002   5.366  15.656 -0.0236 -0.2630  0.7294
19430TIP3   OH279704   6.450   2.041   5.755  0.4708 -0.3572  0.4413
19430TIP3    H179705   6.484   2.022   5.667 -1.7280  0.8273 -0.7525
19430TIP3    H279706   6.405   1.961   5.780 -3.1899  0.7704 -1.7812
19431TIP3   OH279707   5.910   2.702   3.628 -0.2026 -0.5778  0.1897
19431TIP3    H179708   5.997   2.672   3.601  0.6975  1.1525  1.0391
19431TIP3    H279709   5.897   2.784   3.580 -0.9952 -0.3736  0.7360
19432TIP3   OH279710   0.810   6.229  15.542  0.3171  0.1640 -0.5070
19432TIP3    H179711   0.856   6.161  15.590  0.4836  0.5279 -0.1361
19432TIP3    H279712   0.745   6.262  15.605  1.5613  1.7090  0.0478
19433TIP3   OH279713   6.312   0.865  16.512  0.0958 -0.4203  0.1263
19433TIP3    H179714   6.302   0.887  16.419 -1.7206 -1.5517  0.0080
19433TIP3    H279715   6.317   0.950  16.556  0.6380  0.1313 -0.9569
19434TIP3   OH279716   6.017   1.717  11.038 -0.2036  0.4606  0.1787
19434TIP3    H179717   5.957   1.722  10.963 -0.6766 -2.3479  0.2848
19434TIP3    H279718   6.084   1.783  11.019 -0.4795  0.0760 -2.5323
19435TIP3   OH279719   2.339   6.489   2.518 -0.1651  0.7330  0.3826
19435TIP3    H179720   2.293   6.454   2.594 -0.8743  0.0959 -0.3248
19435TIP3    H279721   2.400   6.554   2.554  0.6206 -0.6567  1.6496
19436TIP3   OH279722   6.615   2.073   6.142 -0.1282 -0.2544  0.3919
19436TIP3    H179723   6.521   2.082   6.131 -0.2230 -0.3515  1.0469
19436TIP3    H279724   6.644   2.160   6.170  0.0945 -0.0229 -0.5445
19437TIP3   OH279725   3.831   4.960   1.052  0.4104 -0.2180 -0.3039
19437TIP3    H179726   3.801   5.051   1.049  0.1348 -0.3124 -0.4001
19437TIP3    H279727   3.867   4.950   1.140  2.2614  0.5585 -0.9298
19438TIP3   OH279728   4.971   5.717   2.537  0.0880 -0.0360  0.3608
19438TIP3    H179729   4.995   5.658   2.609 -0.5616  0.0558  0.6586
19438TIP3    H279730   4.886   5.753   2.562 -0.9186 -1.2113 -1.1797
19439TIP3   OH279731   1.229   3.256  11.920  0.8330  0.0286  0.0173
19439TIP3    H179732   1.151   3.304  11.949  0.2517 -1.6758  1.4408
19439TIP3    H279733   1.294   3.324  11.903 -0.3356  1.3826  0.7653
19440TIP3   OH279734   4.364   2.407  11.498 -0.3269  0.5787  0.1250
19440TIP3    H179735   4.416   2.327  11.495 -2.0754 -0.6056  0.0372
19440TIP3    H279736   4.368   2.442  11.409 -0.7402 -0.2112 -0.2123
19441TIP3   OH279737   1.063   4.897  12.659  1.0537  0.4749  0.0032
19441TIP3    H179738   0.979   4.943  12.653  0.2451 -0.9430 -0.0296
19441TIP3    H279739   1.089   4.907  12.751  0.1091 -0.2724  0.3791
19442TIP3   OH279740   1.210   2.874  12.446  0.1536  0.3362 -0.0058
19442TIP3    H179741   1.208   2.787  12.408 -2.7403  0.1366  0.3974
19442TIP3    H279742   1.222   2.933  12.372 -0.5375 -0.3055 -0.6419
19443TIP3   OH279743   4.637   5.412   2.438 -0.5165 -0.1098  0.2053
19443TIP3    H179744   4.629   5.383   2.347 -1.5346  0.6014  0.0485
19443TIP3    H279745   4.570   5.480   2.447  1.4322  1.8215  0.6876
19444TIP3   OH279746   1.094   2.767  12.954  0.2216 -0.1148 -0.2236
19444TIP3    H179747   1.157   2.700  12.979  0.1982  0.0135  0.1916
19444TIP3    H279748   1.100   2.833  13.023  0.6312  0.5733 -0.9074
19445TIP3   OH279749   1.333   2.110  13.407  0.7243  0.2170 -0.2958
19445TIP3    H179750   1.239   2.122  13.422  0.5959  1.4872 -1.8725
19445TIP3    H279751   1.345   2.015  13.409 -0.3068  0.0834  1.3726
19446TIP3   OH279752   3.960   1.006   3.567 -0.0853 -0.0254 -0.2835
19446TIP3    H179753   4.045   1.009   3.524 -1.0116  2.9618 -2.2555
19446TIP3    H279754   3.923   1.094   3.553 -2.5522 -0.4577  2.4773
19447TIP3   OH279755   6.694   2.727  13.073  0.6909 -0.7820 -0.9355
19447TIP3    H179756   6.608   2.685  13.067 -0.1942  0.9697 -1.0028
19447TIP3    H279757   6.747   2.665  13.123 -0.4509 -2.1132 -1.3009
19448TIP3   OH279758   0.020   3.985   2.364 -0.3439  0.5585  0.1766
19448TIP3    H179759   0.008   4.054   2.299  0.5346 -0.1469 -0.7568
19448TIP3    H279760  -0.063   3.937   2.364 -1.1518  1.8693  1.1902
19449TIP3   OH279761   5.556   6.217  12.823 -0.0840  0.0893  0.0941
19449TIP3    H179762   5.563   6.308  12.793  2.9934  0.2568  0.9521
19449TIP3    H279763   5.534   6.224  12.916 -0.7527 -0.0922 -0.0475
19450TIP3   OH279764   3.669   2.552  13.253 -0.0826 -0.0906 -0.8322
19450TIP3    H179765   3.699   2.466  13.283  1.6636  0.6497 -0.3139
19450TIP3    H279766   3.584   2.563  13.295 -0.2442 -1.4660 -0.7318
19451TIP3   OH279767   0.175   3.079   4.505 -0.1986  0.1056 -0.3377
19451TIP3    H179768   0.215   3.103   4.422  0.6382 -0.5553 -0.1431
19451TIP3    H279769   0.180   3.158   4.559  0.7811  0.0523 -0.3454
19452TIP3   OH279770   1.144   3.320  14.095 -0.0359  0.1452  0.0948
19452TIP3    H179771   1.051   3.300  14.083 -0.3514  0.8926  1.1403
19452TIP3    H279772   1.176   3.339  14.007 -1.2491  1.3595 -0.1294
19453TIP3   OH279773   4.265   6.349   3.243 -0.1461  0.5611  0.0011
19453TIP3    H179774   4.345   6.304   3.218 -0.6425 -0.3872  0.0784
19453TIP3    H279775   4.254   6.417   3.176  0.1659  0.0266 -0.6022
19454TIP3   OH279776   0.859   3.710   4.867 -0.2899  0.3081  0.0442
19454TIP3    H179777   0.942   3.725   4.912  0.2907 -0.7645 -0.6131
19454TIP3    H279778   0.845   3.616   4.874 -1.5924  0.5124  0.3539
19455TIP3   OH279779   2.142   6.167   5.685  0.1050  0.1927  0.3109
19455TIP3    H179780   2.136   6.193   5.777 -0.2206  0.0185  0.3405
19455TIP3    H279781   2.057   6.129   5.666  0.3072 -0.1321  0.0465
19456TIP3   OH279782   0.304   4.665   2.257  0.9013  0.4684 -0.3274
19456TIP3    H179783   0.243   4.714   2.312  0.2142 -1.1635  0.4555
19456TIP3    H279784   0.303   4.710   2.173  0.6432  2.0191  0.4723
19457TIP3   OH279785   2.132   5.166  13.208  0.2983 -0.4303 -0.0600
19457TIP3    H179786   2.136   5.076  13.176  0.4633 -0.1635 -0.8307
19457TIP3    H279787   2.169   5.218  13.136 -0.2126  0.2952  0.1909
19458TIP3   OH279788   2.060   1.476   1.131 -0.2781  0.3494  0.3627
19458TIP3    H179789   2.015   1.561   1.130 -1.5700 -0.3191 -0.3407
19458TIP3    H279790   2.078   1.457   1.039 -1.4815 -0.8837  0.3564
19459TIP3   OH279791   6.298   3.836   5.657 -0.1089  0.2902  0.0434
19459TIP3    H179792   6.364   3.872   5.716 -0.7060  1.5785 -0.0392
19459TIP3    H279793   6.254   3.768   5.708  0.6964  0.0143  0.3868
19460TIP3   OH279794   2.845   6.445  16.582 -0.4060 -0.7235 -0.0809
19460TIP3    H179795   2.871   6.403  16.500  1.4491 -1.4511  0.8220
19460TIP3    H279796   2.870   6.382  16.650  1.4868  1.3438  1.2515
19461TIP3   OH279797   5.291   5.263   5.623 -0.7070 -0.4152  0.3406
19461TIP3    H179798   5.209   5.230   5.587 -0.8582 -1.1200  1.3101
19461TIP3    H279799   5.265   5.313   5.700 -0.1156 -2.4168  1.9231
19462TIP3   OH279800   6.137   1.066   0.400  0.3534 -0.4223 -0.0907
19462TIP3    H179801   6.097   1.077   0.487  0.3851  0.3604 -0.1615
19462TIP3    H279802   6.161   1.155   0.374  1.0387 -0.7413 -0.5773
19463TIP3   OH279803   5.851   5.658  12.169 -0.2422 -0.1240  0.3634
19463TIP3    H179804   5.776   5.694  12.123  1.7795  2.1636 -1.4337
19463TIP3    H279805   5.837   5.683  12.261 -1.0093  1.5337 -0.1673
19464TIP3   OH279806   4.996   0.662   2.968  0.6805  0.2443  0.4967
19464TIP3    H179807   5.032   0.573   2.969 -0.1108 -0.0887  0.0808
19464TIP3    H279808   5.069   0.717   2.938  1.1622 -0.2657  0.7242
19465TIP3   OH279809   5.826   5.848   1.377 -0.1177  0.3841  0.3229
19465TIP3    H179810   5.844   5.884   1.463 -2.5159  1.3851  0.4966
19465TIP3    H279811   5.794   5.759   1.395  2.2341 -0.5605  0.1716
19466TIP3   OH279812   1.409   1.368  11.903  0.0041 -0.0689 -0.2813
19466TIP3    H179813   1.396   1.319  11.984 -1.0613 -1.1838 -1.0898
19466TIP3    H279814   1.355   1.446  11.912 -0.2553 -0.2830  0.0081
19467TIP3   OH279815   6.082   2.201   5.901  0.0723 -0.4515  0.0485
19467TIP3    H179816   6.130   2.135   5.950  0.1582  0.1555  0.7920
19467TIP3    H279817   6.067   2.272   5.963  3.8171  2.2623 -1.7427
19468TIP3   OH279818   6.776   3.650   2.751  0.3536  0.1277  0.0650
19468TIP3    H179819   6.840   3.589   2.712  0.1045  0.0387 -0.2103
19468TIP3    H279820   6.755   3.611   2.836  0.1224 -0.2229 -0.1504
19469TIP3   OH279821   0.381   3.335   6.005  0.1572 -0.4612 -0.0737
19469TIP3    H179822   0.369   3.284   6.085  3.4055 -1.5110 -0.0970
19469TIP3    H279823   0.348   3.422   6.026 -1.2530 -1.3361  1.5605
19470TIP3   OH279824   0.467   0.109   3.512 -0.0369 -0.2263  0.2788
19470TIP3    H179825   0.383   0.076   3.544  0.1119  0.1179  1.0482
19470TIP3    H279826   0.486   0.055   3.435 -1.5039  0.4267 -0.5953
19471TIP3   OH279827   5.723   6.744  11.749 -0.5328 -0.0906 -0.2881
19471TIP3    H179828   5.815   6.749  11.774 -0.8827 -0.0344  1.0719
19471TIP3    H279829   5.719   6.787  11.664  0.8020 -0.7037 -0.6928
19472TIP3   OH279830   3.238   3.667   4.553  0.3008  0.1687  0.1146
19472TIP3    H179831   3.283   3.747   4.580  1.5267 -1.1292  2.2219
19472TIP3    H279832   3.294   3.629   4.485  0.5071  0.3685  0.1714
19473TIP3   OH279833   2.350   2.310   0.605 -0.4675  0.3532  0.6434
19473TIP3    H179834   2.356   2.313   0.700  2.1334  0.0077  0.5711
19473TIP3    H279835   2.361   2.401   0.577 -0.2754  0.3374  0.6636
19474TIP3   OH279836   6.020   2.903   4.406 -0.0596 -0.1232 -0.1046
19474TIP3    H179837   5.970   2.841   4.352 -0.5078  0.8526 -0.8232
19474TIP3    H279838   6.103   2.858   4.422 -0.7163 -1.2922  0.1501
19475TIP3   OH279839   4.365   4.913   6.244 -0.2971 -0.5155  0.0016
19475TIP3    H179840   4.415   4.880   6.170  0.1506  1.8558 -0.8512
19475TIP3    H279841   4.432   4.940   6.307 -0.4040  2.0949 -0.8874
19476TIP3   OH279842   6.676   4.464  16.598  0.1251 -0.6928 -0.0428
19476TIP3    H179843   6.724   4.546  16.587 -0.6151 -0.2792 -0.2974
19476TIP3    H279844   6.671   4.451  16.692  1.7215 -1.3448 -0.0345
19477TIP3   OH279845   6.191   0.217   0.600 -0.2107 -0.3036 -0.8107
19477TIP3    H179846   6.201   0.229   0.505 -1.1674 -0.5649 -0.9508
19477TIP3    H279847   6.146   0.296   0.630  0.8066  0.1479 -0.4344
19478TIP3   OH279848   4.922   0.415   1.917  0.1512  0.5803 -0.2692
19478TIP3    H179849   4.987   0.461   1.970 -0.0600 -0.1760  0.6998
19478TIP3    H279850   4.886   0.349   1.977  0.0310 -0.4343 -1.4224
19479TIP3   OH279851   0.734   4.533   1.848  0.2512 -0.1325  0.0462
19479TIP3    H179852   0.734   4.539   1.752 -1.2647  0.0941  0.0337
19479TIP3    H279853   0.716   4.440   1.865  0.4080 -0.1498  0.1181
19480TIP3   OH279854   4.650   0.422  13.582  0.1269  0.2140  0.3008
19480TIP3    H179855   4.642   0.457  13.493  0.5322  1.8531  0.8620
19480TIP3    H279856   4.574   0.366  13.593 -1.1139  1.6879 -0.3693
19481TIP3   OH279857   0.813   0.585  12.257  0.3825 -0.0271  0.2205
19481TIP3    H179858   0.762   0.529  12.198 -0.2154  1.3947 -0.6643
19481TIP3    H279859   0.753   0.604  12.329  0.9279 -1.3061  1.0595
19482TIP3   OH279860   4.461   1.199   3.199 -0.2968 -0.0689  0.0049
19482TIP3    H179861   4.489   1.281   3.158  0.1535 -0.7108 -1.0160
19482TIP3    H279862   4.454   1.137   3.126  2.3453 -1.7726  1.0337
19483TIP3   OH279863   1.376   3.187  10.712 -0.0048 -0.1621  0.4297
19483TIP3    H179864   1.416   3.274  10.702 -0.6260  0.2380  1.2729
19483TIP3    H279865   1.282   3.205  10.721 -0.1185 -0.9083  0.7831
19484TIP3   OH279866   5.348   3.804   1.673  0.7193 -0.5897  0.3577
19484TIP3    H179867   5.274   3.775   1.621 -1.5979  2.0410  1.9021
19484TIP3    H279868   5.347   3.746   1.750 -0.8243  0.3787  1.1225
19485TIP3   OH279869   5.925   1.985   4.194 -0.1852  0.0371  0.4366
19485TIP3    H179870   5.845   1.941   4.221 -0.8484  0.8630 -0.1391
19485TIP3    H279871   5.984   1.915   4.168 -0.5746 -0.6030  1.2197
19486TIP3   OH279872   6.514   5.553   2.402 -0.0227  0.3830 -0.0252
19486TIP3    H179873   6.468   5.608   2.466  1.2777  1.4562  0.0154
19486TIP3    H279874   6.537   5.474   2.451 -0.8297  0.3024  0.2496
19487TIP3   OH279875   2.911   2.499  14.160 -0.4122 -0.4202 -0.1474
19487TIP3    H179876   2.994   2.457  14.182  0.6115  1.0197 -1.1634
19487TIP3    H279877   2.935   2.583  14.121 -2.3560  0.2265 -0.0782
19488TIP3   OH279878   2.605   6.418  15.997 -0.0224  0.1220 -0.3757
19488TIP3    H179879   2.699   6.401  15.992 -0.2212 -1.0357 -0.5046
19488TIP3    H279880   2.574   6.411  15.907 -0.6590 -2.4019 -0.0469
19489TIP3   OH279881   1.014   5.194  10.515 -0.2190  0.0318  0.1344
19489TIP3    H179882   1.102   5.188  10.553  0.6687  1.8917 -1.4811
19489TIP3    H279883   0.974   5.268  10.560  0.0826  0.9281 -1.0252
19490TIP3   OH279884   3.002   2.897   0.468  0.6506  0.4065 -0.5120
19490TIP3    H179885   2.923   2.861   0.427  0.0208 -0.1616  1.1252
19490TIP3    H279886   2.970   2.955   0.536  1.5770 -0.9385  1.1561
19491TIP3   OH279887   0.781   4.426   4.382 -0.2001 -0.0504  0.3320
19491TIP3    H179888   0.719   4.364   4.421 -1.3803 -0.0067 -1.3861
19491TIP3    H279889   0.839   4.372   4.328  1.4653 -0.1182  2.0664
19492TIP3   OH279890   0.363   2.703  13.532 -0.3904  0.4984 -0.2595
19492TIP3    H179891   0.434   2.648  13.565 -1.0457 -1.5471 -2.0034
19492TIP3    H279892   0.392   2.731  13.445 -0.7594  1.6175 -0.0450
19493TIP3   OH279893   0.615   3.831  15.885 -0.4386 -0.1751 -0.0631
19493TIP3    H179894   0.706   3.816  15.912 -0.3035  0.5905 -0.0878
19493TIP3    H279895   0.577   3.882  15.956 -0.4150  0.8236 -0.7554
19494TIP3   OH279896   2.634   2.157  11.279 -0.3209  0.1976  0.2023
19494TIP3    H179897   2.603   2.076  11.238 -0.8664  0.6652 -0.3379
19494TIP3    H279898   2.690   2.197  11.213 -0.2917  0.4025  0.3506
19495TIP3   OH279899   5.396   3.373   6.386  0.0154  0.3743  0.4319
19495TIP3    H179900   5.487   3.369   6.414  0.3295  1.7319 -0.3039
19495TIP3    H279901   5.395   3.438   6.316 -0.9420 -2.0137 -1.9384
19496TIP3   OH279902   4.159   1.076  11.716 -0.2143 -0.1449  0.5467
19496TIP3    H179903   4.109   1.084  11.634 -1.8591 -0.9967  1.4184
19496TIP3    H279904   4.113   1.009  11.766 -0.1216  1.3678  2.7981
19497TIP3   OH279905   4.644   0.885   3.134 -0.1212  0.5667 -0.4338
19497TIP3    H179906   4.680   0.972   3.151  0.2573  0.9095 -2.6649
19497TIP3    H279907   4.557   0.902   3.098 -0.1123  0.0264 -0.7168
19498TIP3   OH279908   0.561   4.542  13.675 -0.6335  0.5396 -0.2372
19498TIP3    H179909   0.628   4.489  13.632 -1.3341  0.3848 -1.1689
19498TIP3    H279910   0.591   4.632  13.664  0.9842  0.3566  2.0769
19499TIP3   OH279911   4.876   2.896  12.092 -0.3365 -0.6222 -0.6693
19499TIP3    H179912   4.921   2.817  12.123  0.2458  0.1241  0.5136
19499TIP3    H279913   4.924   2.968  12.135 -1.8583  0.2744 -0.4109
19500TIP3   OH279914   1.996   3.212   6.320 -0.0011 -0.1115 -0.2026
19500TIP3    H179915   1.943   3.231   6.242 -0.7690 -2.0908 -0.2153
19500TIP3    H279916   2.070   3.272   6.314 -0.3424  0.1720 -2.1672
19501TIP3   OH279917   4.783   3.948   2.493  0.4284 -0.1016 -0.1067
19501TIP3    H179918   4.817   3.912   2.575  1.3668 -0.3908 -0.6071
19501TIP3    H279919   4.861   3.974   2.444 -0.1299  0.2693 -0.8149
19502TIP3   OH279920   5.324   0.451  14.733 -0.4197  0.2392 -0.2601
19502TIP3    H179921   5.308   0.421  14.823 -0.7457  0.1394 -0.3497
19502TIP3    H279922   5.311   0.373  14.679  3.9989 -0.8959 -0.0879
19503TIP3   OH279923   0.469   3.465  14.033 -0.0684 -0.2103  0.0393
19503TIP3    H179924   0.377   3.458  14.008  0.0823 -1.5208 -0.1970
19503TIP3    H279925   0.518   3.444  13.953  0.4095 -2.2700  0.8120
19504TIP3   OH279926   3.838   4.708   4.949  0.0457 -0.2823  0.4510
19504TIP3    H179927   3.774   4.699   5.019 -1.1596 -0.0470 -0.5811
19504TIP3    H279928   3.826   4.630   4.895  1.4876 -0.8415  0.8836
19505TIP3   OH279929   1.039   1.935   1.249 -0.0990  0.4660  0.4381
19505TIP3    H179930   1.115   1.982   1.217 -1.0537  2.0046  0.3049
19505TIP3    H279931   1.059   1.843   1.234  2.6017  0.6326  2.2831
19506TIP3   OH279932   0.015   5.434   2.872 -0.1826 -0.1362  0.1637
19506TIP3    H179933   0.097   5.483   2.883  0.9729 -1.9190  0.0203
19506TIP3    H279934   0.021   5.395   2.785 -1.6321  0.4517 -0.2231
19507TIP3   OH279935   6.350   3.576   2.917  0.4234 -0.1027  0.0738
19507TIP3    H179936   6.277   3.526   2.956 -0.4177 -0.8639 -2.2502
19507TIP3    H279937   6.428   3.527   2.942 -0.2341 -1.5610 -0.5642
19508TIP3   OH279938   1.431   5.666   6.375 -0.3154  0.0782 -0.2785
19508TIP3    H179939   1.440   5.687   6.468 -1.2431  0.4717 -0.2643
19508TIP3    H279940   1.393   5.745   6.337  0.3221  0.0156 -1.0411
19509TIP3   OH279941   6.281   2.736  12.555 -0.2110 -0.5363 -0.1195
19509TIP3    H179942   6.244   2.820  12.529  1.0624 -0.3209 -1.3669
19509TIP3    H279943   6.345   2.757  12.623  0.9882 -0.3085 -1.2784
19510TIP3   OH279944   2.315   5.804  13.377 -0.4420  0.5339 -0.4099
19510TIP3    H179945   2.322   5.841  13.289  1.5417  0.4432 -0.3418
19510TIP3    H279946   2.297   5.880  13.433  0.0557  0.8695 -0.6931
19511TIP3   OH279947   1.749   5.329  14.179 -0.2153  0.6749 -0.1660
19511TIP3    H179948   1.725   5.295  14.093 -3.7174  0.5952  0.6999
19511TIP3    H279949   1.667   5.328  14.229  1.2759  2.5518  2.5638
19512TIP3   OH279950   6.085   1.840   0.043  0.3533  0.6683 -0.4252
19512TIP3    H179951   6.147   1.776   0.008 -0.2687  0.5457 -1.3403
19512TIP3    H279952   6.131   1.881   0.116  1.6345  0.8077 -1.2831
19513TIP3   OH279953   6.430   2.800  14.434  0.6375 -0.2823  0.2304
19513TIP3    H179954   6.380   2.808  14.515  1.3492 -0.4821  0.6929
19513TIP3    H279955   6.473   2.715  14.441 -0.9832 -1.3068 -1.3232
19514TIP3   OH279956   0.184   0.265  14.108  0.0477  0.4082 -0.3477
19514TIP3    H179957   0.094   0.250  14.081  0.0893  0.1006 -0.3204
19514TIP3    H279958   0.232   0.189  14.075  0.2316  0.3934 -0.0563
19515TIP3   OH279959   6.007   4.208  17.259 -0.1343  0.3508 -1.4251
19515TIP3    H179960   6.033   4.131  17.309  1.4524 -0.5861 -3.5078
19515TIP3    H279961   5.993   4.175  17.170  1.7417  2.5576 -2.6632
19516TIP3   OH279962   2.803   4.793  14.410 -0.2961  0.3260  0.5515
19516TIP3    H179963   2.849   4.718  14.448  1.1597  2.0336  2.4032
19516TIP3    H279964   2.873   4.848  14.374 -1.0272  2.0204  1.6063
19517TIP3   OH279965   3.808   5.261   2.473  0.1839  0.5369  0.5239
19517TIP3    H179966   3.786   5.349   2.444 -0.9934  0.7148  1.8558
19517TIP3    H279967   3.784   5.204   2.401 -2.8109  0.9379  1.0955
19518TIP3   OH279968   5.108   6.759   5.772 -0.0941  0.9456  0.2641
19518TIP3    H179969   5.180   6.709   5.734  0.5946  1.3887  0.9699
19518TIP3    H279970   5.095   6.721   5.859 -1.3684  0.2294 -0.2141
19519TIP3   OH279971   1.828   6.388  11.359 -0.4141 -0.3469 -0.4578
19519TIP3    H179972   1.806   6.298  11.334  1.2186 -1.3536  1.4368
19519TIP3    H279973   1.785   6.442  11.293 -3.0492 -2.3937 -0.6084
19520TIP3   OH279974   3.703   4.189   2.641  0.0561 -0.1055 -0.2880
19520TIP3    H179975   3.621   4.139   2.640  1.3753 -2.3956 -0.6560
19520TIP3    H279976   3.711   4.219   2.731 -1.6355  1.0055 -0.4618
19521TIP3   OH279977   3.692   2.921  13.484 -0.1193 -0.2694 -0.2713
19521TIP3    H179978   3.613   2.946  13.436 -0.6702 -0.0024  0.7398
19521TIP3    H279979   3.718   2.838  13.446 -0.4782 -0.0114 -1.0996
19522TIP3   OH279980   6.599   4.014   2.021  0.3040 -0.1145  0.4282
19522TIP3    H179981   6.648   3.951   2.073  0.3619  1.0619  1.8465
19522TIP3    H279982   6.611   3.984   1.930  0.7128 -1.8426  1.0063
19523TIP3   OH279983   6.166   6.730   5.571  0.1830 -0.0666  0.0275
19523TIP3    H179984   6.073   6.735   5.550  0.4109  2.6301 -0.6791
19523TIP3    H279985   6.202   6.813   5.541  2.3823  0.0026  2.4579
19524TIP3   OH279986   5.060   0.574   3.500 -0.4768  0.0647 -0.0198
19524TIP3    H179987   4.966   0.555   3.497 -0.4808 -0.1780  1.1993
19524TIP3    H279988   5.083   0.592   3.409 -1.9724  1.4399 -0.1841
19525TIP3   OH279989   5.466   6.262   1.601  0.0801 -0.6511 -0.1718
19525TIP3    H179990   5.382   6.284   1.642  0.3110 -0.3427  0.1449
19525TIP3    H279991   5.453   6.277   1.508  0.2987  1.1182  0.0425
19526TIP3   OH279992   4.352   0.895  16.345 -0.0144  0.5298  0.2057
19526TIP3    H179993   4.361   0.802  16.324  0.6822 -0.1109  2.9209
19526TIP3    H279994   4.280   0.898  16.409 -1.7589  2.2491 -1.6900
19527TIP3   OH279995   5.576   0.868  11.894  0.5142 -0.1543  0.7342
19527TIP3    H179996   5.517   0.882  11.968  1.1002  0.0548  1.1583
19527TIP3    H279997   5.620   0.785  11.913 -0.5017 -0.9461 -0.1671
19528TIP3   OH279998   4.092   5.860   5.126  0.4469 -0.0809  0.0224
19528TIP3    H179999   4.062   5.948   5.147  0.1019 -0.2195  0.1227
19528TIP3    H280000   4.186   5.869   5.113  0.7301 -0.0112  1.8210
19529TIP3   OH280001   4.042   1.672   1.039  0.2281  0.0883 -0.1615
19529TIP3    H180002   3.955   1.654   1.002 -0.1328  1.1849  0.0856
19529TIP3    H280003   4.049   1.768   1.035  0.6623  0.1532  1.5074
19530TIP3   OH280004   4.210   4.805  14.851  0.3510 -0.2911 -0.3744
19530TIP3    H180005   4.134   4.802  14.794 -1.4114 -0.0828  1.8212
19530TIP3    H280006   4.176   4.783  14.938  2.7190  0.2533  0.7898
19531TIP3   OH280007   0.266   5.585   0.230 -0.1567 -0.1351  0.4528
19531TIP3    H180008   0.212   5.628   0.296  0.2931  1.7534 -0.3201
19531TIP3    H280009   0.244   5.629   0.148  2.9631  1.2712  0.1996
19532TIP3   OH280010   2.379   4.337  12.305  0.1830  0.1144 -0.0717
19532TIP3    H180011   2.377   4.288  12.223 -0.8186 -0.3629  0.2197
19532TIP3    H280012   2.453   4.300  12.353  0.1508 -0.3062 -0.3421
19533TIP3   OH280013   4.200   1.390  10.893  0.2057 -0.1946 -0.0741
19533TIP3    H180014   4.189   1.379  10.988 -0.2957 -2.5405 -0.3338
19533TIP3    H280015   4.141   1.461  10.870  1.0693  1.1029  1.4784
19534TIP3   OH280016   3.044   0.015  11.988  0.7794 -0.5304 -0.0103
19534TIP3    H180017   3.135   0.008  12.017  1.1761  0.9794 -0.7906
19534TIP3    H280018   3.051   0.045  11.897 -0.5031 -0.7158 -0.1827
19535TIP3   OH280019   1.244   5.352  11.109 -0.0690  0.4175  0.6349
19535TIP3    H180020   1.280   5.282  11.054  0.3363  0.5840  0.6893
19535TIP3    H280021   1.280   5.335  11.196 -0.3284  0.4340  0.7452
19536TIP3   OH280022   2.396   2.376   3.324 -0.1979 -0.4003  0.0766
19536TIP3    H180023   2.302   2.389   3.340 -0.3735 -1.3218 -0.1617
19536TIP3    H280024   2.428   2.331   3.402 -0.0058 -0.3323  0.0369
19537TIP3   OH280025   5.162   6.275   2.111  0.0692 -0.2738  0.4932
19537TIP3    H180026   5.122   6.188   2.109  2.0475 -1.2410 -0.8953
19537TIP3    H280027   5.223   6.271   2.184  0.4340 -0.1998  0.1954
19538TIP3   OH280028   4.043   0.010  17.068  0.1111 -0.2462  0.3011
19538TIP3    H180029   4.038   0.039  17.159  0.7934 -2.1474  1.0005
19538TIP3    H280030   4.128   0.041  17.037  1.4382 -2.4337  1.4643
19539TIP3   OH280031   4.059   5.510  15.208  0.3787  0.3992 -0.2676
19539TIP3    H180032   4.017   5.575  15.264  0.3314 -0.9099  1.2841
19539TIP3    H280033   4.141   5.552  15.181  1.1445  0.5326  2.0589
19540TIP3   OH280034   6.152   5.486  12.664 -0.1667  0.6619 -0.1205
19540TIP3    H180035   6.210   5.540  12.718  0.4968 -0.1763  0.0150
19540TIP3    H280036   6.100   5.550  12.615 -1.4243  1.4678  2.1224
19541TIP3   OH280037   5.612   6.682  14.844 -0.2227  0.0131  0.3706
19541TIP3    H180038   5.636   6.738  14.770 -0.6409  1.1007  1.0336
19541TIP3    H280039   5.590   6.744  14.914 -2.2644 -0.9334  0.6382
19542TIP3   OH280040   0.435   4.011   5.044 -0.3534  0.3242  0.1647
19542TIP3    H180041   0.508   3.971   4.997 -0.0655  0.3474  0.5854
19542TIP3    H280042   0.411   4.088   4.991  0.1656  0.5237  0.2129
19543TIP3   OH280043   6.584   3.974   0.073  0.1853 -0.2101  0.0354
19543TIP3    H180044   6.678   3.965   0.089  0.1363  0.5878  0.8638
19543TIP3    H280045   6.577   4.052   0.017 -0.0485  0.5015  1.0183
19544TIP3   OH280046   1.572   1.014   6.014 -0.2840 -0.1644  0.0355
19544TIP3    H180047   1.550   1.012   5.921 -0.7090  0.9527  0.0845
19544TIP3    H280048   1.489   1.036   6.057 -0.1106 -0.7567  0.6885
19545TIP3   OH280049   1.223   6.605  13.556 -0.0242  0.4663  0.6493
19545TIP3    H180050   1.303   6.554  13.545 -0.7967 -0.6755  0.2247
19545TIP3    H280051   1.176   6.596  13.473  0.0486  2.3107  0.3612
19546TIP3   OH280052   0.594   1.443   1.673  0.0392 -0.0509 -0.1375
19546TIP3    H180053   0.556   1.530   1.668 -0.3194 -0.2624 -1.2333
19546TIP3    H280054   0.653   1.438   1.598  1.1814 -0.2352  0.7497
19547TIP3   OH280055   6.500   5.134   4.899 -0.1129  0.0347 -0.6475
19547TIP3    H180056   6.419   5.088   4.876 -0.3880  1.0923 -1.8848
19547TIP3    H280057   6.549   5.070   4.951 -1.4174 -0.8850 -0.4770
19548TIP3   OH280058   3.455   4.486   5.357  0.6492  0.1073  0.1191
19548TIP3    H180059   3.439   4.393   5.370  0.5765  0.1247  0.1625
19548TIP3    H280060   3.388   4.529   5.411 -0.9891  0.1961 -1.8580
19549TIP3   OH280061   4.987   2.116  13.437 -0.0104  0.2420 -0.9308
19549TIP3    H180062   5.077   2.085  13.441 -0.7168 -2.0313 -1.3376
19549TIP3    H280063   4.966   2.139  13.528  1.1670  1.4863 -0.9443
19550TIP3   OH280064   1.713   0.794  12.478  0.1075 -0.5647 -0.1324
19550TIP3    H180065   1.779   0.747  12.426  0.2190 -1.5772  0.8777
19550TIP3    H280066   1.667   0.725  12.525 -0.6429  0.2622  0.3603
19551TIP3   OH280067   6.511   2.021  16.402  0.6229  0.0770  0.0667
19551TIP3    H180068   6.588   1.980  16.365  0.3364  1.2910 -2.0650
19551TIP3    H280069   6.437   1.974  16.363  0.3150  0.9209 -0.4167
19552TIP3   OH280070   0.953   2.527  13.706 -0.4999  0.2644 -0.1593
19552TIP3    H180071   0.937   2.581  13.783  1.7008 -1.2304  1.4903
19552TIP3    H280072   0.901   2.448  13.722 -0.0949 -0.0168 -0.2196
19553TIP3   OH280073   4.135   1.068  13.904  0.1802 -0.1140 -0.2593
19553TIP3    H180074   4.216   1.038  13.944  1.3894  3.9612  0.8272
19553TIP3    H280075   4.156   1.080  13.812  0.3553 -0.4744 -0.2656
19554TIP3   OH280076   0.542   0.523   3.133  0.1207  0.1561 -0.1283
19554TIP3    H180077   0.504   0.436   3.130  0.9610 -0.3678  2.3047
19554TIP3    H280078   0.609   0.522   3.065 -1.4253 -0.2299 -1.7392
19555TIP3   OH280079   4.901   5.526  14.524 -0.1201  0.6942  0.8266
19555TIP3    H180080   4.894   5.452  14.585  1.5327  0.2170  0.5015
19555TIP3    H280081   4.862   5.493  14.443 -0.6069  0.6637  1.0667
19556TIP3   OH280082   5.207   5.643  15.108  0.1874  0.0672 -0.3363
19556TIP3    H180083   5.204   5.668  15.015  1.2067 -0.7116 -0.5994
19556TIP3    H280084   5.270   5.572  15.111  0.9033  0.7308  1.1174
19557TIP3   OH280085   3.269   3.929   5.722  0.5079 -0.2701 -0.3756
19557TIP3    H180086   3.241   4.020   5.710 -0.4190 -0.3049  1.3294
19557TIP3    H280087   3.360   3.936   5.750 -0.1820  0.3082  1.9342
19558TIP3   OH280088   0.566   1.261   0.472  0.2513  0.0886 -0.1909
19558TIP3    H180089   0.607   1.174   0.479 -0.3193 -0.2254 -0.6682
19558TIP3    H280090   0.592   1.305   0.553  0.4216 -0.5816  0.1337
19559TIP3   OH280091   0.541   4.329   4.714  0.0826 -0.4294  0.4798
19559TIP3    H180092   0.472   4.268   4.742 -0.1302 -1.1763 -1.4730
19559TIP3    H280093   0.578   4.362   4.795 -1.5929 -1.1393  1.5954
19560TIP3   OH280094   6.709   2.865   6.441  0.6005 -0.8095  0.4376
19560TIP3    H180095   6.747   2.952   6.453  1.0215 -0.9455  0.1347
19560TIP3    H280096   6.616   2.877   6.458  0.4720 -0.0674 -0.6662
19561TIP3   OH280097   4.908   2.860  13.154  0.4097  0.2721  0.0342
19561TIP3    H180098   4.847   2.930  13.134  0.6287  0.3482 -0.3778
19561TIP3    H280099   4.852   2.784  13.172  0.1948  0.3321 -0.3731
19562TIP3   OH280100   5.846   5.319   6.230  0.6484 -0.0492  0.4799
19562TIP3    H180101   5.815   5.383   6.295  1.0335 -0.7761  1.3875
19562TIP3    H280102   5.931   5.291   6.263  0.1306 -1.6432  0.5351
19563TIP3   OH280103   2.460   0.680   5.408  0.0753  0.0077  0.5399
19563TIP3    H180104   2.435   0.751   5.466  0.0004  0.0724  0.4281
19563TIP3    H280105   2.531   0.715   5.356 -0.8081  0.4314 -0.4047
19564TIP3   OH280106   3.058   4.707  16.991 -0.4045 -0.1580 -0.1239
19564TIP3    H180107   3.005   4.763  17.047  0.5449  0.9351 -0.2653
19564TIP3    H280108   3.068   4.626  17.040  0.6630  0.8827  1.4720
19565TIP3   OH280109   2.410   5.998   0.107  0.3807  0.0848 -0.3005
19565TIP3    H180110   2.377   5.969   0.023  1.7143 -0.6803 -0.6054
19565TIP3    H280111   2.494   6.040   0.087  1.0104 -0.6461  0.6707
19566TIP3   OH280112   5.272   1.818  10.768 -0.1507 -0.1861  0.1670
19566TIP3    H180113   5.187   1.782  10.792  0.2881 -1.0377  0.4963
19566TIP3    H280114   5.328   1.741  10.755  0.9431  0.3756  1.3504
19567TIP3   OH280115   6.448   5.866   1.773  0.1921  0.7174  0.4337
19567TIP3    H180116   6.407   5.783   1.796  0.1860  0.3706 -0.7846
19567TIP3    H280117   6.454   5.865   1.678  2.2836  1.1064  0.5178
19568TIP3   OH280118   6.706   2.266  11.038  0.2343 -0.2886  0.3245
19568TIP3    H180119   6.703   2.349  11.086 -0.7946  0.6263 -1.2483
19568TIP3    H280120   6.616   2.250  11.011  0.6815 -1.0525 -0.8087
19569TIP3   OH280121   5.948   4.730  14.686  0.5261 -0.5531 -0.3225
19569TIP3    H180122   5.922   4.807  14.634  1.6470 -0.6548 -1.0686
19569TIP3    H280123   6.022   4.760  14.739  0.6892 -0.9956 -0.2929
19570TIP3   OH280124   4.948   6.591   1.073 -0.2789 -0.2417  0.0718
19570TIP3    H180125   4.999   6.673   1.074  0.7908 -0.8891  0.8952
19570TIP3    H280126   4.857   6.620   1.079 -0.0414  0.9472 -1.4007
19571TIP3   OH280127   5.796   4.878   3.679  0.3037 -0.5076 -0.2413
19571TIP3    H180128   5.702   4.896   3.685  0.2502 -1.0130  0.5731
19571TIP3    H280129   5.806   4.790   3.714  0.9449 -0.9067 -1.3914
19572TIP3   OH280130   4.380   3.953   0.957 -0.9166 -0.0870  0.3018
19572TIP3    H180131   4.422   3.942   0.872 -0.4735 -1.2817  0.6575
19572TIP3    H280132   4.311   3.887   0.959 -1.0578  0.0674  0.7978
19573TIP3   OH280133   5.030   2.295  14.388  0.7092  0.0733  0.3962
19573TIP3    H180134   5.022   2.324  14.297 -0.1697 -0.9594  0.1212
19573TIP3    H280135   5.043   2.376  14.438  4.5261  0.5114 -0.9106
19574TIP3   OH280136   2.621   6.721   0.798 -0.0271 -0.0688 -0.0211
19574TIP3    H180137   2.598   6.723   0.706  2.1365  1.6869 -0.6085
19574TIP3    H280138   2.717   6.729   0.800  0.0917 -1.0264  2.3557
19575TIP3   OH280139   2.927   5.558   3.743  0.0559  0.2109 -0.5491
19575TIP3    H180140   3.012   5.559   3.699 -0.3077  0.6470 -1.2488
19575TIP3    H280141   2.868   5.519   3.679 -0.2277 -0.3485  0.0377
19576TIP3   OH280142   4.195   4.046  14.523  0.0437 -0.1561  0.1443
19576TIP3    H180143   4.163   3.960  14.551  0.5032 -0.0284  1.0733
19576TIP3    H280144   4.285   4.030  14.493  0.0549 -0.0350  0.1128
19577TIP3   OH280145   2.607   5.466  14.064 -0.2655 -0.0893  0.0148
19577TIP3    H180146   2.594   5.418  13.982  0.2192  1.2163 -0.8555
19577TIP3    H280147   2.544   5.539  14.060  0.0292  0.2061  0.6223
19578TIP3   OH280148   6.553   5.023   2.559 -0.3120 -0.4453 -0.2664
19578TIP3    H180149   6.473   4.981   2.528 -2.1904  0.5544  2.7406
19578TIP3    H280150   6.608   4.951   2.589 -1.6994 -1.0623  0.9509
19579TIP3   OH280151   0.886   3.923   5.716 -0.1350  0.3622  0.1775
19579TIP3    H180152   0.920   4.011   5.698 -0.9717  0.4864 -0.9774
19579TIP3    H280153   0.960   3.865   5.702  0.6762  0.9321  1.8648
19580TIP3   OH280154   3.947   3.469   3.368 -0.0836 -0.7335 -0.4511
19580TIP3    H180155   4.022   3.472   3.309 -0.3891 -1.7547 -0.9121
19580TIP3    H280156   3.902   3.552   3.354  0.4303 -0.5197 -0.8709
19581TIP3   OH280157   4.129   2.977  13.875 -0.6308 -0.5642  0.6795
19581TIP3    H180158   4.064   3.044  13.854 -0.0370 -0.1458  0.1265
19581TIP3    H280159   4.201   2.995  13.815  0.2772 -0.5890  1.7324
19582TIP3   OH280160   6.486   6.459  11.514 -0.0084  0.1305 -0.0882
19582TIP3    H180161   6.400   6.429  11.484 -0.8884  2.2481  0.1007
19582TIP3    H280162   6.546   6.432  11.445 -1.0156 -0.3820 -0.7926
19583TIP3   OH280163   5.900   3.948  17.066  0.7080 -0.0630 -0.4379
19583TIP3    H180164   5.849   4.029  17.063  0.9194  0.2639  2.2987
19583TIP3    H280165   5.839   3.880  17.039 -0.2987  0.6777 -0.0849
19584TIP3   OH280166   2.750   2.457  14.393 -0.0520 -0.1360 -0.2194
19584TIP3    H180167   2.712   2.431  14.309 -1.6924 -1.3346  0.8207
19584TIP3    H280168   2.833   2.410  14.397  0.1846  0.1602 -1.2735
19585TIP3   OH280169   2.948   3.916   1.851  0.0957  0.6421 -0.1645
19585TIP3    H180170   2.861   3.904   1.889  0.3112  1.9154  0.7729
19585TIP3    H280171   2.933   3.918   1.756 -0.5288 -1.9650 -0.2137
19586TIP3   OH280172   3.909   2.638   3.827  0.2023 -0.1462  0.0854
19586TIP3    H180173   3.888   2.616   3.917  0.0961  0.0578  0.1122
19586TIP3    H280174   3.999   2.671   3.830  0.1668 -0.0524  0.1329
19587TIP3   OH280175   3.875   4.647   1.565  0.0299  0.1544 -0.0331
19587TIP3    H180176   3.899   4.711   1.632  0.2776  1.1439 -1.0328
19587TIP3    H280177   3.784   4.669   1.542 -0.6097 -1.1782  1.0527
19588TIP3   OH280178   6.299   6.772  11.943  0.3061  0.2254  0.4842
19588TIP3    H180179   6.264   6.851  11.984  0.7440 -0.3057  1.9465
19588TIP3    H280180   6.311   6.711  12.016 -0.4351 -1.3566 -0.6494
19589TIP3   OH280181   0.616   6.032   3.506  0.7250 -0.1514 -0.6029
19589TIP3    H180182   0.540   5.987   3.541  0.6425  0.9470  0.7196
19589TIP3    H280183   0.683   5.964   3.498 -0.5891 -1.3248 -2.6205
19590TIP3   OH280184   4.051   2.805  13.493  0.1014  0.2152  0.2589
19590TIP3    H180185   3.973   2.751  13.502  0.8359 -1.1035 -0.7585
19590TIP3    H280186   4.019   2.894  13.484 -1.5395 -0.5538 -3.1847
19591TIP3   OH280187   6.699   3.716  10.679 -0.0374  0.8932  0.4624
19591TIP3    H180188   6.765   3.647  10.687  0.0273  0.9321  0.2779
19591TIP3    H280189   6.749   3.797  10.674 -0.0554  0.8479 -0.6083
19592TIP3   OH280190   2.477   5.862  15.053 -0.3810  0.0827 -0.6788
19592TIP3    H180191   2.557   5.831  15.095 -1.1030  0.1320  0.7989
19592TIP3    H280192   2.501   5.949  15.018 -0.1911  0.8094  1.1540
19593TIP3   OH280193   1.011   0.980  13.061  0.2288  0.0260  0.0203
19593TIP3    H180194   0.958   0.908  13.095  1.2773 -0.7889 -0.0191
19593TIP3    H280195   0.976   1.058  13.105 -1.8661 -0.2718 -1.0215
19594TIP3   OH280196   6.213   6.364   1.253 -0.2862  0.1244 -0.5783
19594TIP3    H180197   6.195   6.426   1.324  0.6573 -1.0367  0.7275
19594TIP3    H280198   6.145   6.298   1.261  0.8268 -0.9495  0.4096
19595TIP3   OH280199   0.918   1.575   4.622 -0.7070  0.4621  0.2307
19595TIP3    H180200   0.970   1.506   4.581  0.8022  1.6862  0.0331
19595TIP3    H280201   0.865   1.610   4.550 -0.1059  0.7444 -0.0802
19596TIP3   OH280202   0.996   1.074  15.600  0.1925  0.0216  0.3186
19596TIP3    H180203   1.046   1.067  15.682  0.0643 -1.4811  0.2999
19596TIP3    H280204   0.942   1.152  15.611  0.2656 -0.0934  1.6182
19597TIP3   OH280205   3.984   0.602   4.613  0.4272  0.0485 -1.0843
19597TIP3    H180206   4.075   0.631   4.611  0.6379 -0.5669 -0.6845
19597TIP3    H280207   3.989   0.509   4.636 -0.3552  0.2960  0.1953
19598TIP3   OH280208   4.861   1.362  12.031 -0.0149 -0.1110  1.0839
19598TIP3    H180209   4.880   1.337  12.121 -1.1283  0.5810  1.5296
19598TIP3    H280210   4.784   1.418  12.037 -1.7007 -2.0909 -0.5281
19599TIP3   OH280211   6.344   6.272   5.341 -0.4688 -0.0941  0.0709
19599TIP3    H180212   6.286   6.217   5.289 -0.2454  0.6731 -1.0163
19599TIP3    H280213   6.286   6.337   5.381 -0.6061 -0.5176  0.5609
19600TIP3   OH280214   6.224   0.793  14.089 -0.3271 -0.3990 -0.0265
19600TIP3    H180215   6.250   0.770  14.178 -1.0641 -0.0810  0.2870
19600TIP3    H280216   6.154   0.858  14.101 -1.8565 -1.8205 -0.7739
19601TIP3   OH280217   6.190   3.168  12.917  0.3116  0.3414  0.0398
19601TIP3    H180218   6.150   3.250  12.891  1.0144  0.6071 -0.2452
19601TIP3    H280219   6.167   3.157  13.009 -0.8226  0.2242 -0.2487
19602TIP3   OH280220   3.673   5.143  12.754  0.3304 -0.0650  1.1009
19602TIP3    H180221   3.586   5.136  12.792 -0.8287  0.0714 -1.3611
19602TIP3    H280222   3.702   5.053  12.741 -1.2159 -0.2716 -1.6892
19603TIP3   OH280223   4.223   5.607  12.010 -0.4914  0.2223 -0.1523
19603TIP3    H180224   4.294   5.544  11.996  0.8611  1.0637  2.1917
19603TIP3    H280225   4.250   5.685  11.961 -0.5973  0.0161 -0.5399
19604TIP3   OH280226   3.454   2.344  10.811  0.5599  0.0631 -0.1626
19604TIP3    H180227   3.530   2.290  10.791  0.7285 -0.4156  1.5663
19604TIP3    H280228   3.489   2.419  10.859  0.0625  0.4134 -0.3344
19605TIP3   OH280229   4.309   2.938   4.950  0.2913  0.0929  0.3256
19605TIP3    H180230   4.230   2.961   4.998  0.4522  1.3321  0.0237
19605TIP3    H280231   4.283   2.865   4.894 -0.5953  0.3966  0.3311
19606TIP3   OH280232   4.099   6.704   5.882  0.2421 -0.2780 -0.3099
19606TIP3    H180233   4.065   6.695   5.971  2.6861  2.0654  1.0178
19606TIP3    H280234   4.073   6.793   5.856 -1.6232 -1.3820 -2.6002
19607TIP3   OH280235   6.514   6.241   1.132 -0.3327  0.2800  0.4759
19607TIP3    H180236   6.593   6.294   1.136  1.3479 -2.1175  0.4910
19607TIP3    H280237   6.481   6.240   1.223 -0.4452  1.2945  0.4622
19608TIP3   OH280238   1.175   4.998  14.476 -0.0050 -0.5948 -0.0099
19608TIP3    H180239   1.119   4.933  14.516 -3.0924  2.9411  2.0711
19608TIP3    H280240   1.212   4.955  14.399 -1.2423 -4.8428  1.5385
19609TIP3   OH280241   5.470   5.313   2.748  0.0573 -0.2461 -0.4982
19609TIP3    H180242   5.436   5.265   2.823 -1.5269  0.0568 -0.9743
19609TIP3    H280243   5.484   5.402   2.781 -1.5172  0.1282 -0.7339
19610TIP3   OH280244   6.640   3.343  13.138  0.4924 -0.5980 -0.4465
19610TIP3    H180245   6.549   3.314  13.147 -0.0345  0.9543 -0.6025
19610TIP3    H280246   6.667   3.312  13.051 -0.1626 -0.3517 -0.7414
19611TIP3   OH280247   5.324   5.175  11.946  0.1712 -0.2893 -0.1154
19611TIP3    H180248   5.391   5.106  11.945 -0.6481 -1.1475  0.9809
19611TIP3    H280249   5.313   5.199  11.854  1.3366 -0.7736 -0.3978
19612TIP3   OH280250   1.058   2.470  14.404  0.1589 -0.0340 -0.0405
19612TIP3    H180251   1.127   2.520  14.448  0.6054 -0.6194 -0.0547
19612TIP3    H280252   1.053   2.389  14.454 -1.2724  0.4357  0.6146
19613TIP3   OH280253   1.876   3.579  13.083 -0.2633  0.0827  0.3124
19613TIP3    H180254   1.831   3.508  13.039 -0.8762  0.9745 -0.5389
19613TIP3    H280255   1.967   3.573  13.053 -0.6182  0.5105 -0.8710
19614TIP3   OH280256   4.963   3.114   2.942 -0.4638 -0.2114  0.8209
19614TIP3    H180257   5.058   3.107   2.953 -0.4165 -1.9222 -0.3584
19614TIP3    H280258   4.930   3.128   3.031  0.7659 -1.5003  1.5276
19615TIP3   OH280259   0.530   2.638   2.660  0.4413  0.1323 -0.3049
19615TIP3    H180260   0.474   2.701   2.706 -1.8088 -1.8775 -0.1069
19615TIP3    H280261   0.536   2.563   2.719 -1.5321 -2.0384 -2.6500
19616TIP3   OH280262   5.130   4.725   6.550  0.7438  0.5376 -0.3001
19616TIP3    H180263   5.190   4.722   6.475  0.6171 -0.5917 -0.3629
19616TIP3    H280264   5.143   4.642   6.596 -0.0640  0.6919  0.2399
19617TIP3   OH280265   4.314   1.562   1.703  0.2114 -0.6169  0.5761
19617TIP3    H180266   4.323   1.583   1.796 -1.3773 -0.4871  0.7297
19617TIP3    H280267   4.395   1.516   1.681  0.8486 -0.1853  1.8838
19618TIP3   OH280268   4.643   3.015   6.077 -0.0377  0.2193  0.1920
19618TIP3    H180269   4.669   2.941   6.021  1.5174 -0.0817  1.2514
19618TIP3    H280270   4.569   2.982   6.128 -1.4246  0.4655 -1.5688
19619TIP3   OH280271   0.472   0.398  11.832 -0.7681 -0.2335 -0.1981
19619TIP3    H180272   0.477   0.324  11.773  0.0408 -2.5874  2.5671
19619TIP3    H280273   0.444   0.360  11.916 -1.2950  2.7631  1.1191
19620TIP3   OH280274   1.971   4.604  11.042 -0.3486 -0.0134  0.0889
19620TIP3    H180275   2.057   4.577  11.011 -0.9327  0.5847 -2.2682
19620TIP3    H280276   1.988   4.674  11.105  0.8958  1.5588 -1.8840
19621TIP3   OH280277   0.074   2.784   2.359 -0.2760 -0.1544  0.3439
19621TIP3    H180278   0.072   2.798   2.264  0.7900 -0.0330  0.3262
19621TIP3    H280279   0.049   2.868   2.397 -2.4338 -0.6631  0.1833
19622TIP3   OH280280   2.203   4.326  11.681 -0.1272 -0.4208  0.3955
19622TIP3    H180281   2.265   4.262  11.646 -0.3885  0.1576 -1.1728
19622TIP3    H280282   2.157   4.279  11.751  0.7814 -1.4337  0.3321
19623TIP3   OH280283   0.342   0.976  15.388  0.2461  0.0520 -0.0579
19623TIP3    H180284   0.359   1.070  15.394 -0.5719  0.1662  0.6476
19623TIP3    H280285   0.301   0.965  15.302 -0.3159  0.4563  0.1511
19624TIP3   OH280286   4.591   0.211   2.998 -0.1210  0.4446 -0.7363
19624TIP3    H180287   4.547   0.133   2.964  0.6655  0.6096 -2.2100
19624TIP3    H280288   4.677   0.180   3.024 -0.6479  0.3603  1.0223
19625TIP3   OH280289   4.867   4.837  17.186  0.0405  0.3266 -0.2888
19625TIP3    H180290   4.952   4.855  17.225  0.3548  1.3543 -1.3999
19625TIP3    H280291   4.816   4.917  17.201 -0.8601 -0.3715  0.6108
19626TIP3   OH280292   3.249   0.813   0.382 -0.0266 -0.4334  0.1623
19626TIP3    H180293   3.220   0.723   0.400  0.3945 -0.0891  2.8486
19626TIP3    H280294   3.168   0.862   0.369 -0.3275 -0.8684  0.3648
19627TIP3   OH280295   6.240   4.211  13.862 -0.7154  0.1889 -0.0058
19627TIP3    H180296   6.217   4.267  13.936 -3.1798 -2.3199  1.3324
19627TIP3    H280297   6.171   4.226  13.798 -0.3063  0.0907 -0.4752
19628TIP3   OH280298   5.618   2.800  13.272  0.2340  0.3352  0.0673
19628TIP3    H180299   5.573   2.884  13.284 -0.6239 -0.3878  2.3330
19628TIP3    H280300   5.573   2.759  13.199 -0.6694  0.9923  0.2371
19629TIP3   OH280301   6.099   1.554   5.951  0.1621  0.2857 -0.0800
19629TIP3    H180302   6.030   1.589   5.894  1.3992  0.9281 -1.2558
19629TIP3    H280303   6.143   1.632   5.984  2.1438 -0.0746 -1.6931
19630TIP3   OH280304   3.607   4.596   5.129  0.2372 -0.0104  0.1174
19630TIP3    H180305   3.544   4.666   5.144 -0.7751 -0.5930 -1.2091
19630TIP3    H280306   3.567   4.519   5.170 -0.1545 -0.4775 -1.0956
19631TIP3   OH280307   2.459   6.187  16.421 -0.1162  0.2024  0.2381
19631TIP3    H180308   2.522   6.247  16.382  0.7946 -0.7202  0.2542
19631TIP3    H280309   2.503   6.102  16.421 -1.6613 -0.6613 -0.5397
19632TIP3   OH280310   4.634   3.792  10.500 -0.0643 -0.3610 -0.5195
19632TIP3    H180311   4.559   3.824  10.451 -1.6608  0.7177  2.4037
19632TIP3    H280312   4.614   3.701  10.519 -0.4464 -0.1928 -0.1079
19633TIP3   OH280313   0.492   0.495   5.647  0.3950 -0.2507  0.0959
19633TIP3    H180314   0.549   0.428   5.610  0.4572 -0.4114  0.4806
19633TIP3    H280315   0.465   0.460   5.732  2.5522  1.3138  1.5191
19634TIP3   OH280316   5.791   2.283  17.158 -0.1480 -0.2565 -0.4758
19634TIP3    H180317   5.729   2.346  17.194  0.2264 -0.1609  0.0107
19634TIP3    H280318   5.774   2.285  17.063 -0.6349  0.0320 -0.3885
19635TIP3   OH280319   6.027   1.961  14.990  0.1693 -0.0597  0.5722
19635TIP3    H180320   6.097   1.902  14.963 -0.3191 -0.2756 -0.2446
19635TIP3    H280321   5.948   1.908  14.989 -0.4151  0.7589 -0.9482
19636TIP3   OH280322   6.218   5.176  16.128  0.1129 -0.1184  0.0270
19636TIP3    H180323   6.144   5.123  16.158  0.3520 -1.0397 -0.9351
19636TIP3    H280324   6.285   5.165  16.195  0.0942 -0.9170 -0.0754
19637TIP3   OH280325   2.693   6.167  12.345 -0.6947 -0.0102  0.2249
19637TIP3    H180326   2.757   6.162  12.274  0.4607 -2.2609  1.2964
19637TIP3    H280327   2.713   6.091  12.400 -0.2489  2.5499  4.0150
19638TIP3   OH280328   2.446   5.809   2.232 -0.4889 -0.3302  0.7530
19638TIP3    H180329   2.536   5.788   2.260 -0.2513 -0.6769 -0.2445
19638TIP3    H280330   2.399   5.823   2.314  0.6867  0.7602  1.2793
19639TIP3   OH280331   2.765   3.097   4.301 -0.0619  0.4024 -0.3760
19639TIP3    H180332   2.765   3.016   4.351 -2.0486  0.1854 -0.6758
19639TIP3    H280333   2.746   3.071   4.211 -0.3960  1.1606 -0.5376
19640TIP3   OH280334   4.423   4.990  11.095  0.3258  0.5740 -0.6274
19640TIP3    H180335   4.414   4.895  11.094  1.7292  0.4200 -0.6825
19640TIP3    H280336   4.338   5.023  11.066  0.1336 -0.6929 -1.5736
19641TIP3   OH280337   0.477   1.449   2.231  0.3421  0.0193 -0.5056
19641TIP3    H180338   0.462   1.367   2.280  2.0124 -0.5164 -0.8186
19641TIP3    H280339   0.499   1.420   2.142  0.5629  0.8310 -0.7234
19642TIP3   OH280340   0.129   6.187   6.409  0.1495 -0.4226 -0.5440
19642TIP3    H180341   0.105   6.128   6.481 -1.1607  1.2670  0.5057
19642TIP3    H280342   0.045   6.219   6.376  0.8192  1.0594 -0.8766
19643TIP3   OH280343   3.995   4.066  11.179 -0.2462  0.4037 -0.0075
19643TIP3    H180344   3.920   4.029  11.133 -1.5209  2.6387  0.1400
19643TIP3    H280345   3.984   4.039  11.270 -0.6013  0.3031 -0.0792
19644TIP3   OH280346   4.015   1.115  15.879  0.4354 -0.1805  0.7563
19644TIP3    H180347   3.962   1.037  15.897  0.2508 -0.5041 -1.0457
19644TIP3    H280348   3.951   1.183  15.859  0.6457 -0.4115 -0.8116
19645TIP3   OH280349   2.737   5.643   4.493  0.7068 -0.2269 -0.0172
19645TIP3    H180350   2.799   5.709   4.462  0.3543  0.1676  0.1201
19645TIP3    H280351   2.788   5.562   4.493  0.4583 -0.4586 -2.5937
19646TIP3   OH280352   3.142   0.983  15.105  0.4543 -0.7100  0.1542
19646TIP3    H180353   3.066   0.962  15.160  1.8725 -2.5631  1.5220
19646TIP3    H280354   3.173   1.067  15.139 -0.4922 -0.3324  0.1152
19647TIP3   OH280355   6.298   3.113   6.082 -0.2357 -0.1945 -0.4386
19647TIP3    H180356   6.227   3.048   6.087 -1.9251  1.5462 -0.4477
19647TIP3    H280357   6.260   3.186   6.032  0.0906  2.5094  2.8953
19648TIP3   OH280358   3.810   0.233  16.687 -0.2856  0.5327  0.5938
19648TIP3    H180359   3.830   0.160  16.746  1.7455  0.7652  0.2551
19648TIP3    H280360   3.786   0.191  16.604 -1.5071  0.2426  1.0666
19649TIP3   OH280361   5.766   2.299  16.873  0.4807  0.6982  0.1059
19649TIP3    H180362   5.792   2.360  16.804 -1.3098  2.1229  0.5990
19649TIP3    H280363   5.820   2.221  16.859 -0.4693  0.5113 -3.5200
19650TIP3   OH280364   2.495   3.198  15.715 -0.0747  0.6126 -0.2987
19650TIP3    H180365   2.489   3.191  15.620  1.8071 -0.9044 -0.3852
19650TIP3    H280366   2.522   3.288  15.731 -1.9889  1.3611 -1.0574
19651TIP3   OH280367   0.964   0.162   1.034  0.0133  0.2978 -0.1487
19651TIP3    H180368   0.913   0.221   0.979  0.9204  1.0564 -0.1951
19651TIP3    H280369   1.053   0.167   0.999  0.0643 -1.3108 -0.3212
19652TIP3   OH280370   4.852   1.710  11.738 -0.8020 -0.4969  0.1111
19652TIP3    H180371   4.825   1.782  11.794  1.0043  0.9554 -0.8068
19652TIP3    H280372   4.797   1.718  11.660  0.6923  1.1962 -0.8579
19653TIP3   OH280373   0.100   4.037  11.503  0.0841 -0.1720  0.6876
19653TIP3    H180374   0.154   4.036  11.582 -0.5092 -0.7407  1.0867
19653TIP3    H280375   0.026   4.093  11.525  1.1874  1.8029 -0.3345
19654TIP3   OH280376   5.719   3.099  12.187  0.4408 -0.5219  0.3038
19654TIP3    H180377   5.775   3.174  12.209  0.6220 -1.0011  1.5509
19654TIP3    H280378   5.768   3.052  12.119 -0.2643  1.1504 -1.4644
19655TIP3   OH280379   2.833   2.137   2.745  0.0430 -0.0406  0.0055
19655TIP3    H180380   2.763   2.167   2.687  0.2277  0.8067  0.2032
19655TIP3    H280381   2.836   2.202   2.815 -0.6885 -1.4585  1.4193
19656TIP3   OH280382   1.571   5.065   3.921 -0.3118 -0.3018  0.0635
19656TIP3    H180383   1.554   5.159   3.909  2.2401  0.2994  0.5294
19656TIP3    H280384   1.589   5.032   3.833 -0.2678 -0.1331  0.0086
19657TIP3   OH280385   0.997   3.934  16.711  0.1661  0.1745 -0.2880
19657TIP3    H180386   1.081   3.900  16.681 -0.5301  0.0666 -2.2201
19657TIP3    H280387   0.955   3.859  16.754  0.8117  0.0915  0.2216
19658TIP3   OH280388   3.209   6.028  15.718  0.5428 -0.6428  0.3266
19658TIP3    H180389   3.250   6.111  15.694  0.0953 -1.0482 -2.1392
19658TIP3    H280390   3.189   6.036  15.811  3.3635  0.7690  0.9080
19659TIP3   OH280391   3.676   3.672  15.259 -0.4892  0.3866  0.3414
19659TIP3    H180392   3.685   3.586  15.300  1.0750 -0.1568 -1.0365
19659TIP3    H280393   3.670   3.733  15.332  1.2706 -0.6406  1.4131
19660TIP3   OH280394   5.569   5.888  11.607 -0.1487 -0.6718 -0.0941
19660TIP3    H180395   5.577   5.861  11.516  3.6178  1.7046 -0.6607
19660TIP3    H280396   5.594   5.980  11.608 -3.0751  0.3355  3.0132
19661TIP3   OH280397   6.673   4.228   5.680 -0.4660 -0.1859  0.2192
19661TIP3    H180398   6.623   4.271   5.611 -3.3607 -0.9099  1.7185
19661TIP3    H280399   6.686   4.296   5.746  0.9496  0.0950 -0.3126
19662TIP3   OH280400   5.435   6.003  15.615 -0.1708 -0.2519  0.8257
19662TIP3    H180401   5.531   6.008  15.610  0.0211 -0.9643  2.7271
19662TIP3    H280402   5.405   6.087  15.582  1.2179  0.6552  1.7522
19663TIP3   OH280403   2.026   2.752   2.882 -0.3422 -0.1700 -0.8924
19663TIP3    H180404   2.070   2.691   2.941 -0.2139  2.4361  2.0175
19663TIP3    H280405   2.096   2.794   2.833 -0.3080 -1.2254 -1.7757
19664TIP3   OH280406   1.754   1.123   4.545  0.2576 -0.0587  0.1550
19664TIP3    H180407   1.688   1.125   4.476  0.7350  0.0751 -0.2971
19664TIP3    H280408   1.774   1.031   4.558 -2.7052 -0.5043  2.8843
19665TIP3   OH280409   1.523   4.988   4.617 -0.9786 -0.0625  0.2135
19665TIP3    H180410   1.455   4.923   4.598 -1.9962  0.9893  0.1976
19665TIP3    H280411   1.595   4.964   4.559 -2.1242  0.0481 -1.3229
19666TIP3   OH280412   0.827   6.675   4.426 -0.4218 -0.1296 -0.4907
19666TIP3    H180413   0.751   6.729   4.448  0.1356  0.2265  0.6439
19666TIP3    H280414   0.816   6.655   4.333 -0.5440  2.1594 -1.0420
19667TIP3   OH280415   5.452   4.995  14.044  0.1774 -0.0584 -0.2184
19667TIP3    H180416   5.474   5.088  14.052  0.1287  0.0053 -0.7871
19667TIP3    H280417   5.357   4.992  14.054 -0.1612  0.2747 -2.6185
19668TIP3   OH280418   3.193   1.825  15.032 -0.1183 -0.2141  0.8201
19668TIP3    H180419   3.256   1.865  14.971  1.4685 -0.8142  1.9812
19668TIP3    H280420   3.164   1.897  15.087  1.1827 -0.2409  1.5993
19669TIP3   OH280421   6.514   2.813  16.848  0.1740 -0.7069  0.2301
19669TIP3    H180422   6.456   2.829  16.922 -0.2198 -1.5848  0.1230
19669TIP3    H280423   6.509   2.893  16.796 -0.2929 -0.4595  0.6478
19670TIP3   OH280424   5.457   6.190  14.647  0.7680 -0.3307  0.3272
19670TIP3    H180425   5.522   6.251  14.682  2.4922 -1.2767 -1.0192
19670TIP3    H280426   5.480   6.183  14.554 -2.7506  1.0493 -0.7832
19671TIP3   OH280427   4.394   5.985  13.199 -0.2459 -0.2554  0.0653
19671TIP3    H180428   4.489   5.973  13.207 -0.0092 -0.0822 -1.9745
19671TIP3    H280429   4.384   6.076  13.172 -1.0186 -0.2391  0.3855
19672TIP3   OH280430   1.215   5.320  17.109 -0.4532 -0.1428 -0.2180
19672TIP3    H180431   1.127   5.343  17.078 -1.6170 -1.8418  1.5666
19672TIP3    H280432   1.244   5.252  17.048 -1.1092 -0.7392  0.1072
19673TIP3   OH280433   0.341   5.909  14.247  0.5542  0.4382 -0.1350
19673TIP3    H180434   0.413   5.854  14.220  0.9088  1.3149 -1.0457
19673TIP3    H280435   0.263   5.853  14.241  0.9761 -0.1070 -0.4901
19674TIP3   OH280436   0.372   4.447   2.069 -0.1796 -0.0678 -0.4623
19674TIP3    H180437   0.350   4.524   2.122 -0.4043  1.1489 -2.2445
19674TIP3    H280438   0.289   4.421   2.030  0.1252 -0.4501 -0.8637
19675TIP3   OH280439   1.504   1.174  16.015  0.1870 -0.2576  0.1263
19675TIP3    H180440   1.476   1.242  15.953 -0.5317 -1.9472 -1.4720
19675TIP3    H280441   1.575   1.215  16.064  1.5174  0.8250 -2.5242
19676TIP3   OH280442   4.897   1.139   1.564 -0.3362  0.3248  0.1007
19676TIP3    H180443   4.835   1.068   1.581 -0.4528  0.5919  0.8682
19676TIP3    H280444   4.887   1.159   1.471 -2.1528  1.0489  0.4072
19677TIP3   OH280445   5.568   0.957   3.007 -0.3360  0.3061  0.2015
19677TIP3    H180446   5.576   0.994   3.094 -0.2267 -1.5797  1.0440
19677TIP3    H280447   5.477   0.971   2.982 -0.0341  2.0974 -0.0114
19678TIP3   OH280448   0.226   3.654   5.780  0.0337  0.3963 -0.3039
19678TIP3    H180449   0.238   3.743   5.748  2.1191  0.2368 -0.0923
19678TIP3    H280450   0.314   3.616   5.779 -0.7871 -1.6105 -0.2220
19679TIP3   OH280451   6.147   2.884  16.568 -0.3530 -0.0593 -0.1371
19679TIP3    H180452   6.186   2.799  16.545 -2.4593 -0.8451 -1.0875
19679TIP3    H280453   6.220   2.934  16.605  1.0435 -2.1435  0.1476
19680TIP3   OH280454   2.738   4.297   2.745  0.1910  0.3012  0.2285
19680TIP3    H180455   2.744   4.260   2.656 -0.8791  1.0617 -0.1827
19680TIP3    H280456   2.809   4.254   2.793  0.0269 -1.0551 -0.6606
19681TIP3   OH280457   4.067   0.456   5.485  0.5943  0.0704  0.2938
19681TIP3    H180458   4.025   0.406   5.415 -1.0345  0.8891  0.6181
19681TIP3    H280459   4.033   0.545   5.473  1.7343  0.6169  1.0264
19682TIP3   OH280460   5.555   2.861  14.196  0.2304  0.3014  0.3451
19682TIP3    H180461   5.613   2.903  14.260  1.4763  0.6689 -0.9685
19682TIP3    H280462   5.598   2.778  14.175 -0.5137 -0.1276  0.4572
19683TIP3   OH280463   6.350   5.468   0.066 -0.4947 -0.1830  0.3483
19683TIP3    H180464   6.271   5.441   0.021 -1.0100 -1.9226  2.1544
19683TIP3    H280465   6.399   5.386   0.081  1.8094  0.8514 -0.9519
19684TIP3   OH280466   3.007   0.761   4.910  0.2266  0.3600 -0.2536
19684TIP3    H180467   2.966   0.675   4.915  1.5908 -0.3290 -0.5983
19684TIP3    H280468   3.029   0.783   5.000 -2.0379  1.3439  0.1229
19685TIP3   OH280469   5.545   3.896  15.107  1.0502  0.2645  0.1108
19685TIP3    H180470   5.453   3.876  15.090  0.4052  2.6246  0.3841
19685TIP3    H280471   5.593   3.852  15.036 -0.4820  0.5429 -1.1443
19686TIP3   OH280472   0.010   1.873  11.681 -0.1522  0.1070  0.0288
19686TIP3    H180473   0.101   1.895  11.663 -0.1356 -0.2701 -0.3800
19686TIP3    H280474  -0.013   1.924  11.759  1.0850 -1.4162  1.4786
19687TIP3   OH280475   4.752   3.373  15.858 -0.0678  0.4307 -0.1119
19687TIP3    H180476   4.696   3.426  15.801 -1.2350 -1.5937 -0.9334
19687TIP3    H280477   4.838   3.374  15.815 -0.1241  1.4011 -0.2385
19688TIP3   OH280478   0.616   1.071   0.707 -0.0995  0.3375 -0.9780
19688TIP3    H180479   0.641   1.162   0.697  0.6983  0.0027 -2.3542
19688TIP3    H280480   0.694   1.028   0.745  0.2011 -0.0779 -2.0263
19689TIP3   OH280481   1.551   4.301   1.978  0.0105  0.1512 -0.5661
19689TIP3    H180482   1.613   4.228   1.981  0.7482  0.8005  0.8190
19689TIP3    H280483   1.552   4.337   2.066 -0.9210  1.3691 -1.0254
19690TIP3   OH280484   4.032   0.932  14.152 -0.3591  0.6827 -0.0911
19690TIP3    H180485   3.948   0.926  14.197  0.1476 -0.5666  0.7297
19690TIP3    H280486   4.009   0.961  14.063 -1.7917 -0.8040 -0.2549
19691TIP3   OH280487   2.004   1.392   1.985  0.6814 -0.1379 -0.7987
19691TIP3    H180488   1.944   1.465   1.970  0.1482  0.1536  2.2096
19691TIP3    H280489   2.034   1.403   2.075  1.1354 -3.2077 -0.4654
19692TIP3   OH280490   5.206   0.344  15.478  0.4650 -0.1973  0.2861
19692TIP3    H180491   5.268   0.367  15.547  0.4937 -3.5747  1.5921
19692TIP3    H280492   5.120   0.347  15.521  0.1339  0.4855 -0.3915
19693TIP3   OH280493   0.785   3.403   0.943  0.0839 -0.6883  0.4173
19693TIP3    H180494   0.728   3.392   1.019  0.5320 -0.7648  0.7433
19693TIP3    H280495   0.825   3.489   0.955 -0.2884 -0.4507 -0.0320
19694TIP3   OH280496   0.540   3.568   6.183  0.3882  0.5145  0.0052
19694TIP3    H180497   0.564   3.491   6.235 -0.5114  1.9232  2.7198
19694TIP3    H280498   0.452   3.549   6.151 -0.1688  0.6537  1.3525
19695TIP3   OH280499   2.948   6.006  17.200  0.5306  0.4970 -0.1432
19695TIP3    H180500   2.979   6.015  17.290  0.8215 -1.0207 -0.0758
19695TIP3    H280501   3.021   6.039  17.147  1.0623 -0.2314  0.1207
19696TIP3   OH280502   5.607   5.052  16.405  0.3004 -0.1972  0.1647
19696TIP3    H180503   5.661   5.088  16.476 -0.0107 -0.6065  0.6200
19696TIP3    H280504   5.595   4.960  16.429 -1.1982  0.0452  0.4496
19697TIP3   OH280505   1.703   2.017   1.854  0.3934 -0.0228  0.0329
19697TIP3    H180506   1.742   1.945   1.806  0.2710 -0.1386  0.1076
19697TIP3    H280507   1.767   2.038   1.923  1.3387  1.2226 -1.1677
19698TIP3   OH280508   1.916   5.623  15.054  0.1506 -0.0688 -0.3377
19698TIP3    H180509   1.851   5.553  15.064  0.1475 -0.4018 -2.3539
19698TIP3    H280510   1.997   5.577  15.034  0.5544  0.4388  0.1273
19699TIP3   OH280511   3.379   3.111   3.739 -0.3927 -0.7496 -0.4378
19699TIP3    H180512   3.389   3.066   3.823 -0.5161  0.1824  0.0873
19699TIP3    H280513   3.287   3.099   3.716 -1.0301  1.1741  0.8629
19700TIP3   OH280514   2.979   6.536   3.414 -0.1225  0.0536  0.3961
19700TIP3    H180515   2.928   6.514   3.492  0.5540  0.4192  0.9432
19700TIP3    H280516   3.029   6.614   3.439  2.0128 -1.2574  0.4547
19701TIP3   OH280517   6.690   3.221  12.865  0.1926 -0.4919 -0.2042
19701TIP3    H180518   6.751   3.165  12.818  1.8745 -0.3255  1.6362
19701TIP3    H280519   6.609   3.172  12.868  2.1598 -4.1430  3.3354
19702TIP3   OH280520   4.696   1.835   3.423 -0.0011 -0.3528  0.2613
19702TIP3    H180521   4.618   1.815   3.474 -0.9190 -0.1807 -1.0286
19702TIP3    H280522   4.730   1.915   3.461 -0.0521 -0.8020  1.2725
19703TIP3   OH280523   3.949   4.649  10.926  0.2570  0.0532  0.0030
19703TIP3    H180524   3.870   4.656  10.979  1.0970  1.7584  1.1119
19703TIP3    H280525   3.942   4.563  10.884 -2.4246  0.3716 -0.3688
19704TIP3   OH280526   1.396   1.020  11.888  0.2136 -0.6933 -0.1504
19704TIP3    H180527   1.455   1.090  11.862  1.0170 -0.8845  1.0513
19704TIP3    H280528   1.449   0.941  11.884 -0.3804 -1.0786 -0.4642
19705TIP3   OH280529   4.133   6.186  11.589 -0.2679  0.3292  0.0222
19705TIP3    H180530   4.225   6.187  11.565  0.0813  1.1621  1.3421
19705TIP3    H280531   4.130   6.222  11.677 -1.6657 -1.3268  0.7152
19706TIP3   OH280532   0.812   3.943  11.900  0.3850  0.6755  0.2827
19706TIP3    H180533   0.727   3.986  11.887  0.4401  0.9317  0.7175
19706TIP3    H280534   0.811   3.918  11.993 -0.2510 -1.5927 -0.2667
19707TIP3   OH280535   2.207   6.115  14.554 -0.5789  0.4089 -0.5214
19707TIP3    H180536   2.284   6.060  14.547 -0.7815 -0.0708  0.7571
19707TIP3    H280537   2.180   6.107  14.645 -2.4213  0.1894 -1.0438
19708TIP3   OH280538   6.064   4.414   3.633 -0.2889 -0.1990  0.0344
19708TIP3    H180539   6.021   4.390   3.715  0.2119 -1.0584  0.0602
19708TIP3    H280540   6.142   4.461   3.660  0.4104 -1.3634  0.1030
19709TIP3   OH280541   0.869   6.143  12.513 -0.5973  0.2000 -0.0249
19709TIP3    H180542   0.783   6.131  12.473  0.1453 -1.3987 -1.2684
19709TIP3    H280543   0.864   6.096  12.596 -0.3026 -1.8193 -1.0929
19710TIP3   OH280544   5.730   0.418  12.237 -0.3494 -0.3000 -0.2310
19710TIP3    H180545   5.776   0.372  12.167 -0.9722  0.2661 -1.0227
19710TIP3    H280546   5.684   0.349  12.285 -2.0633 -0.4514 -1.9899
19711TIP3   OH280547   1.251   4.182  16.626  0.4093  0.0052 -0.1876
19711TIP3    H180548   1.319   4.246  16.647 -0.6598  1.3511 -0.6607
19711TIP3    H280549   1.171   4.219  16.663  0.0062 -1.8981  1.0176
19712TIP3   OH280550   3.698   1.266   1.889  0.3415  0.2590  0.8250
19712TIP3    H180551   3.607   1.290   1.870 -0.2807 -1.7595  1.0956
19712TIP3    H280552   3.696   1.173   1.908  2.7002 -0.2245 -0.7205
19713TIP3   OH280553   2.124   6.235   4.541  0.0613  0.1979  1.1637
19713TIP3    H180554   2.140   6.284   4.461  0.2635 -2.1092 -0.2855
19713TIP3    H280555   2.208   6.236   4.587  0.8984 -1.0956 -0.2338
19714TIP3   OH280556   5.847   0.306   3.496 -0.2071  0.1135 -0.2219
19714TIP3    H180557   5.769   0.299   3.441 -1.5418  0.2306  1.5405
19714TIP3    H280558   5.920   0.314   3.435 -1.5250 -0.4869 -1.9402
19715TIP3   OH280559   5.042   5.885   3.282  1.0683 -0.3831 -0.3031
19715TIP3    H180560   5.025   5.879   3.188  1.5898 -0.9881 -0.3596
19715TIP3    H280561   4.955   5.895   3.322  0.7963 -0.7927 -0.7953
19716TIP3   OH280562   1.330   5.402   1.983 -0.1145 -0.8593 -0.0278
19716TIP3    H180563   1.380   5.429   2.060 -0.2159 -0.8707  0.0438
19716TIP3    H280564   1.329   5.479   1.926 -0.1423 -0.8117  0.0371
19717TIP3   OH280565   5.819   4.654   3.289 -0.4488 -0.6116  0.8076
19717TIP3    H180566   5.857   4.739   3.265 -1.6743 -0.2840 -0.0718
19717TIP3    H280567   5.894   4.602   3.317  0.3993  0.5885  0.8707
19718TIP3   OH280568   3.067   6.628  11.740 -0.2013  0.1940 -0.1290
19718TIP3    H180569   3.097   6.585  11.659 -0.2392 -0.3801  0.1567
19718TIP3    H280570   3.112   6.712  11.740 -1.3070  0.8384 -1.4873
19719TIP3   OH280571   6.152   6.160   0.038  0.0329  0.0202  0.0979
19719TIP3    H180572   6.243   6.159   0.067 -0.1609  2.4397  1.0621
19719TIP3    H280573   6.132   6.069   0.017  2.9021 -0.4669 -0.9552
19720TIP3   OH280574   5.066   4.757   3.000  0.2566  0.6326 -0.2521
19720TIP3    H180575   5.029   4.817   2.934  1.0661  0.8790 -0.4931
19720TIP3    H280576   5.158   4.749   2.975 -0.2363 -2.4468 -1.5409
19721TIP3   OH280577   2.585   4.305   3.061 -0.5721  0.2370 -0.6071
19721TIP3    H180578   2.595   4.400   3.059 -3.1046  0.6342  0.9951
19721TIP3    H280579   2.521   4.286   2.993 -2.6930  0.1930  1.2878
19722TIP3   OH280580   0.852   5.359  13.712 -0.0401  0.4328  0.5498
19722TIP3    H180581   0.883   5.279  13.755  0.0919  0.8369  1.2206
19722TIP3    H280582   0.913   5.427  13.741  2.0060  0.1964 -2.7518
19723TIP3   OH280583   2.636   4.625   1.860 -0.1948 -0.1816  0.1916
19723TIP3    H180584   2.650   4.547   1.914  1.7605 -0.6754 -0.9164
19723TIP3    H280585   2.572   4.677   1.909  0.5214 -1.1784  2.3334
19724TIP3   OH280586   5.993   4.816  13.456  0.1132 -0.0466 -0.7348
19724TIP3    H180587   5.918   4.756  13.450 -0.9698  1.3089 -1.2095
19724TIP3    H280588   6.022   4.809  13.546 -1.5003  0.4401 -0.1353
19725TIP3   OH280589   3.196   3.140   5.528 -0.2002 -0.0254 -0.6478
19725TIP3    H180590   3.236   3.187   5.454  0.1122 -2.8811 -2.4218
19725TIP3    H280591   3.121   3.096   5.490  0.4325 -2.2149  0.5084
19726TIP3   OH280592   5.323   0.170  12.029 -0.3080 -0.3216  1.0090
19726TIP3    H180593   5.370   0.102  12.077 -0.8345 -1.2801  0.2100
19726TIP3    H280594   5.230   0.149  12.042 -0.4778  0.2519  0.7533
19727TIP3   OH280595   0.968   0.449  14.330  0.3390 -0.3613  0.6056
19727TIP3    H180596   0.937   0.536  14.356 -2.1351 -0.9609 -0.0586
19727TIP3    H280597   0.890   0.393  14.334  1.8495 -2.5741  0.9952
19728TIP3   OH280598   3.471   2.300  14.066  0.2292  0.1287  0.0713
19728TIP3    H180599   3.509   2.336  14.146 -1.5154  1.8761  0.2109
19728TIP3    H280600   3.420   2.373  14.030 -0.2210 -1.0721 -1.8484
19729TIP3   OH280601   4.572   5.423  14.488  0.2501 -0.2381 -0.5292
19729TIP3    H180602   4.594   5.492  14.425 -2.1975 -0.8522 -2.2032
19729TIP3    H280603   4.498   5.459  14.537  1.3886 -0.2368  1.2679
19730TIP3   OH280604   1.156   1.258  16.931 -1.1187  0.0600 -0.4019
19730TIP3    H180605   1.141   1.322  16.862 -2.3339 -0.4687 -0.6546
19730TIP3    H280606   1.242   1.220  16.910  1.2782  3.7631  1.5571
19731TIP3   OH280607   2.806   5.315   4.447 -0.4222 -0.0035 -0.9162
19731TIP3    H180608   2.795   5.221   4.459 -1.1928 -0.0066 -1.5995
19731TIP3    H280609   2.731   5.354   4.492  1.0074  0.4232  1.2204
19732TIP3   OH280610   2.175   6.616  15.060 -0.6691  0.2291  0.0560
19732TIP3    H180611   2.090   6.571  15.058 -1.5578  1.8078  0.7711
19732TIP3    H280612   2.201   6.614  15.152  0.6332 -1.1836 -0.3041
19733TIP3   OH280613   3.105   2.279  13.506 -0.2262 -0.8910  0.6136
19733TIP3    H180614   3.094   2.374  13.504 -0.4013 -0.9258 -0.6067
19733TIP3    H280615   3.023   2.244  13.471 -0.1667 -1.5008  1.0557
19734TIP3   OH280616   6.432   2.592   3.219  0.1707 -0.1304 -0.7582
19734TIP3    H180617   6.343   2.592   3.184  0.3899  0.0868 -1.3221
19734TIP3    H280618   6.448   2.684   3.242 -0.3945 -0.4334  1.0299
19735TIP3   OH280619   3.507   2.675  10.840 -0.0122 -0.7080 -0.3545
19735TIP3    H180620   3.585   2.690  10.894 -0.3600 -0.3965  0.0698
19735TIP3    H280621   3.474   2.763  10.822 -0.6948 -0.8566  0.1114
19736TIP3   OH280622   2.465   5.998  14.544 -0.1031 -0.3112 -0.5784
19736TIP3    H180623   2.508   6.072  14.503  0.2507  0.1431  0.5777
19736TIP3    H280624   2.504   5.921  14.503 -0.8481  0.1153 -2.1644
19737TIP3   OH280625   5.357   2.498   5.118  0.2112  0.6316  0.1369
19737TIP3    H180626   5.369   2.530   5.207 -1.3593  0.3045  0.4966
19737TIP3    H280627   5.384   2.571   5.062  0.7878  0.9942  0.8666
19738TIP3   OH280628   4.538   6.225  16.927  0.1842  0.1325 -0.5235
19738TIP3    H180629   4.630   6.228  16.902  0.4896  0.8834  0.6169
19738TIP3    H280630   4.537   6.170  17.006 -0.2858  0.4518 -0.3039
19739TIP3   OH280631   4.026   0.071   0.076 -0.2954 -0.0827 -0.7278
19739TIP3    H180632   4.104   0.018   0.095  0.2047  0.3539 -1.4968
19739TIP3    H280633   4.015   0.126   0.153  1.1367  1.0098 -1.2617
19740TIP3   OH280634   3.797   1.151  13.629 -0.0522 -0.3402  0.2976
19740TIP3    H180635   3.779   1.074  13.575 -3.8764  1.6609 -1.6665
19740TIP3    H280636   3.779   1.122  13.719  0.0695 -2.0757 -0.1969
19741TIP3   OH280637   1.677   5.381  13.187  0.2097  0.0907  0.3849
19741TIP3    H180638   1.768   5.386  13.160 -0.0390  0.4508 -0.4261
19741TIP3    H280639   1.656   5.287  13.184  0.2619  0.1011 -0.4512
19742TIP3   OH280640   1.165   1.239  14.064 -0.2541  0.0057  0.0821
19742TIP3    H180641   1.182   1.255  13.971  0.4410  1.9710  0.4899
19742TIP3    H280642   1.218   1.305  14.110  0.0266 -1.4124  1.9180
19743TIP3   OH280643   2.779   2.597   3.349  0.6220 -0.0367 -0.5613
19743TIP3    H180644   2.822   2.547   3.419  1.7493 -0.3022 -1.4193
19743TIP3    H280645   2.704   2.638   3.392  1.3799 -0.0620  0.8423
19744TIP3   OH280646   2.938   4.221  16.520  0.3939  0.3573 -0.3116
19744TIP3    H180647   2.860   4.241  16.572 -0.4184 -1.4840 -0.7438
19744TIP3    H280648   2.908   4.159  16.454  2.5513 -1.9762  0.6900
19745TIP3   OH280649   2.764   3.928  14.539  0.1250  0.4134  0.1371
19745TIP3    H180650   2.777   3.927  14.634  0.6927  0.4071  0.0639
19745TIP3    H280651   2.760   3.836  14.514 -1.5824  0.4089  0.3481
19746TIP3   OH280652   4.883   6.212   2.316 -0.1997  0.5255 -0.1330
19746TIP3    H180653   4.902   6.119   2.304 -0.5256  0.4860 -0.3375
19746TIP3    H280654   4.791   6.216   2.339 -0.1622  0.7919 -0.0213
19747TIP3   OH280655   2.523   5.026   6.419  0.5102  0.1725  0.0908
19747TIP3    H180656   2.529   5.000   6.327  1.3797  1.4721 -0.2530
19747TIP3    H280657   2.599   5.082   6.433  1.3232 -1.2699  2.0531
19748TIP3   OH280658   3.838   2.679   4.853  1.2013  0.9351 -0.2373
19748TIP3    H180659   3.787   2.598   4.850 -0.0396  1.5479  2.1999
19748TIP3    H280660   3.773   2.748   4.844  1.9463  1.6975  0.1692
19749TIP3   OH280661   2.768   4.465   2.215  0.3920 -0.0782 -0.4281
19749TIP3    H180662   2.845   4.432   2.167  1.1893  3.1458 -1.5950
19749TIP3    H280663   2.694   4.447   2.157  0.2748 -2.5185  0.3674
19750TIP3   OH280664   4.754   2.970   5.135  0.0897  0.1489  0.2923
19750TIP3    H180665   4.741   2.876   5.138  2.4827 -0.2935 -0.6082
19750TIP3    H280666   4.679   3.003   5.085 -0.0118 -1.4708 -0.6862
19751TIP3   OH280667   6.569   0.918   4.097  0.1182  0.3227 -0.1422
19751TIP3    H180668   6.484   0.917   4.054 -0.2500  0.3264  0.5629
19751TIP3    H280669   6.581   1.008   4.125  0.9640  0.6181 -1.3895
19752TIP3   OH280670   0.472   2.082  13.137 -0.2439  0.0362 -0.7743
19752TIP3    H180671   0.464   2.025  13.213  2.7014  2.1163  1.3136
19752TIP3    H280672   0.535   2.039  13.081  0.0410  0.0211 -0.4443
19753TIP3   OH280673   5.368   1.899   1.423  0.3477 -0.2469 -0.0147
19753TIP3    H180674   5.463   1.904   1.414  0.2784  0.3239 -0.4881
19753TIP3    H280675   5.342   1.829   1.364  0.3572  0.4241 -0.8286
19754TIP3   OH280676   3.980   0.966   4.371  0.1658 -0.3752  0.5503
19754TIP3    H180677   3.913   0.918   4.323 -2.5688  1.4466  2.2590
19754TIP3    H280678   4.013   1.030   4.308 -0.8681 -0.2582  0.1122
19755TIP3   OH280679   1.580   0.051  15.163  0.0695  0.4072 -0.0313
19755TIP3    H180680   1.676   0.056  15.166  0.0679  1.1422 -0.8639
19755TIP3    H280681   1.562  -0.011  15.092 -0.0756  1.0537 -0.5649
19756TIP3   OH280682   6.550   1.562  13.650  0.5494  0.3025  0.2939
19756TIP3    H180683   6.629   1.605  13.682 -0.4000  1.0006  1.8352
19756TIP3    H280684   6.504   1.535  13.730  0.4990 -2.5362 -0.5906
19757TIP3   OH280685   5.185   4.458   3.603  0.3041  0.1612 -0.0939
19757TIP3    H180686   5.186   4.521   3.674  1.0632  2.3372 -1.9231
19757TIP3    H280687   5.245   4.494   3.537  0.0171 -1.9737 -1.6416
19758TIP3   OH280688   0.451   0.054   2.820 -0.0082  0.3501  0.4303
19758TIP3    H180689   0.544   0.031   2.823  0.1239  0.9931  1.5841
19758TIP3    H280690   0.440   0.096   2.735  0.7841  0.3803  0.3322
19759TIP3   OH280691   6.404   3.529  11.234 -0.0572 -0.4114  0.7126
19759TIP3    H180692   6.339   3.495  11.173 -1.1252  0.1322  1.5138
19759TIP3    H280693   6.425   3.456  11.291  0.9242 -0.9149 -0.2449
19760TIP3   OH280694   6.230   0.788  13.462 -0.3638  0.0004 -0.1062
19760TIP3    H180695   6.291   0.860  13.447 -1.1029  0.2710 -2.0510
19760TIP3    H280696   6.284   0.709  13.453 -0.1540  0.2511 -1.0737
19761TIP3   OH280697   5.309   5.767   5.201  0.4916 -0.3372  0.4932
19761TIP3    H180698   5.227   5.725   5.176  0.9722 -0.7952 -0.3424
19761TIP3    H280699   5.339   5.717   5.277 -0.3300  0.2618  1.2384
19762TIP3   OH280700   5.140   0.555   2.659  0.3525  0.4422 -0.3568
19762TIP3    H180701   5.096   0.518   2.736 -1.1756 -0.2839 -1.5305
19762TIP3    H280702   5.087   0.630   2.634  1.9645  1.9089  0.4284
19763TIP3   OH280703   4.950   3.134   5.882  0.3374 -0.3873 -0.5386
19763TIP3    H180704   4.893   3.101   5.812 -1.3252  0.7526  0.2029
19763TIP3    H280705   4.890   3.171   5.946  1.7626 -2.0699  1.9130
19764TIP3   OH280706   3.983   5.752   1.144 -0.2718 -0.1361  0.4512
19764TIP3    H180707   3.963   5.845   1.140 -2.0074 -0.4620  0.9876
19764TIP3    H280708   3.971   5.721   1.054  1.3844  0.3211  0.0304
19765TIP3   OH280709   6.620   2.214  13.020 -0.1291  0.2175 -0.4110
19765TIP3    H180710   6.620   2.310  13.015 -1.7451  0.2247 -0.7745
19765TIP3    H280711   6.706   2.189  12.987  0.1435  1.5192 -0.7677
19766TIP3   OH280712   1.213   2.742   4.200 -0.3195 -0.2842  0.0870
19766TIP3    H180713   1.274   2.739   4.274  1.3903  1.4545 -1.1254
19766TIP3    H280714   1.243   2.673   4.141 -0.1637 -0.1171 -0.0324
19767TIP3   OH280715   5.974   1.419   2.852 -0.1067 -0.4954  0.3107
19767TIP3    H180716   6.016   1.357   2.791  0.2215 -1.0245  1.0543
19767TIP3    H280717   5.883   1.424   2.822  0.3806  0.4519 -1.1612
19768TIP3   OH280718   5.440   1.980   2.489  0.0363 -0.3126  0.3001
19768TIP3    H180719   5.364   2.001   2.543 -0.7122 -1.7576 -0.1326
19768TIP3    H280720   5.411   1.992   2.399  0.9799  1.1309  0.1514
19769TIP3   OH280721   0.741   6.040   2.129 -1.1313  0.0237  0.5447
19769TIP3    H180722   0.664   6.080   2.089 -0.7012  1.2007  0.8472
19769TIP3    H280723   0.769   5.974   2.065 -0.1749  2.1656 -1.4088
19770TIP3   OH280724   4.197   1.787   2.386 -0.0553  0.2858  0.9471
19770TIP3    H180725   4.225   1.875   2.363  1.0308 -0.1903  0.3970
19770TIP3    H280726   4.278   1.741   2.409 -0.6474 -0.4764  1.5706
19771TIP3   OH280727   1.600   2.527  10.923  0.1668 -0.5974 -0.0955
19771TIP3    H180728   1.549   2.595  10.877  1.5411  0.3298 -0.3101
19771TIP3    H280729   1.545   2.449  10.917 -0.5323 -0.0450 -1.7182
19772TIP3   OH280730   1.829   3.900  11.565 -0.0586  0.1642 -0.1264
19772TIP3    H180731   1.791   3.812  11.569  1.7535 -0.6525 -0.1253
19772TIP3    H280732   1.754   3.957  11.550 -1.2229 -1.4179 -0.6168
19773TIP3   OH280733   5.314   2.435   5.943 -0.1617 -0.2293 -0.1568
19773TIP3    H180734   5.381   2.397   6.000  0.5131  0.6229 -0.3609
19773TIP3    H280735   5.359   2.452   5.861 -1.2931 -2.0324 -1.2023
19774TIP3   OH280736   4.129   5.150   0.001  0.1909  0.1600 -0.5936
19774TIP3    H180737   4.213   5.128  -0.039  1.1042 -1.6003  2.0580
19774TIP3    H280738   4.070   5.080  -0.027  0.1244  0.3366 -0.9000
19775TIP3   OH280739   3.845   3.699  11.379 -0.1755  0.0829 -0.0247
19775TIP3    H180740   3.809   3.652  11.454 -0.2976  1.0935  0.5582
19775TIP3    H280741   3.769   3.740  11.338 -0.2426 -1.1549 -1.2325
19776TIP3   OH280742   6.229   1.230  15.884  0.3566 -0.2866  0.1731
19776TIP3    H180743   6.290   1.225  15.811 -0.0592  1.7275 -0.3779
19776TIP3    H280744   6.246   1.315  15.925 -3.4818  1.4907 -1.4050
19777TIP3   OH280745   1.587   4.084   0.931  0.5672  0.0949 -0.5899
19777TIP3    H180746   1.499   4.087   0.967  1.2051  3.2061  1.0049
19777TIP3    H280747   1.624   4.002   0.966 -1.7943 -1.6433 -1.8774
19778TIP3   OH280748   1.923   1.892  15.499  0.4091 -0.2365 -0.2841
19778TIP3    H180749   1.906   1.883  15.405  0.9437 -1.3509 -0.2933
19778TIP3    H280750   1.838   1.877  15.541  0.4042 -0.9639 -0.5414
19779TIP3   OH280751   6.556   3.792   4.855  0.3348 -0.1077 -0.4796
19779TIP3    H180752   6.588   3.881   4.870 -0.8047  0.3714 -0.8499
19779TIP3    H280753   6.634   3.744   4.827  0.9993  0.7284 -0.1162
19780TIP3   OH280754   3.181   1.189  16.048 -0.5801  0.3931  0.3507
19780TIP3    H180755   3.164   1.263  16.106  0.7430  0.9546  0.0540
19780TIP3    H280756   3.096   1.169  16.009 -1.2509  0.7674  1.5706
19781TIP3   OH280757   2.263   0.095   2.600  0.1252  0.3878  0.1680
19781TIP3    H180758   2.285   0.135   2.685  0.3581 -1.2952  0.9579
19781TIP3    H280759   2.346   0.058   2.570 -0.2459 -0.2860 -0.0584
19782TIP3   OH280760   2.999   3.717  14.761 -0.1517  0.3153  0.0285
19782TIP3    H180761   2.960   3.713  14.674  0.2196  0.5715 -0.1523
19782TIP3    H280762   3.078   3.665  14.754  0.3457  1.0594 -0.0393
19783TIP3   OH280763   6.288   0.831   2.624 -0.0058  0.3154 -0.4274
19783TIP3    H180764   6.194   0.823   2.639  0.2313 -0.4137  0.8501
19783TIP3    H280765   6.299   0.819   2.530 -1.5992  4.7528 -1.4289
19784TIP3   OH280766   2.492   4.076   3.857 -0.4524  0.1955  0.5033
19784TIP3    H180767   2.411   4.109   3.896 -1.8531 -1.3498 -0.9317
19784TIP3    H280768   2.492   3.983   3.880  1.5836  0.3858  1.5001
19785TIP3   OH280769   0.797   6.168  14.893  0.4243 -0.1376  0.0460
19785TIP3    H180770   0.746   6.087  14.890 -2.7021  1.6364  1.0979
19785TIP3    H280771   0.843   6.163  14.977 -1.0690 -0.1383  0.8951
19786TIP3   OH280772   2.718   2.677  14.963 -0.1070 -0.0682 -0.2685
19786TIP3    H180773   2.749   2.594  14.929 -0.7738  0.3594 -1.9834
19786TIP3    H280774   2.793   2.713  15.009  0.5842 -1.0181 -0.6257
19787TIP3   OH280775   6.762   5.840   5.090 -1.0982  0.6214  0.0448
19787TIP3    H180776   6.850   5.804   5.102 -0.7623  1.2401 -0.4735
19787TIP3    H280777   6.711   5.804   5.162 -0.8629 -1.1191 -0.6079
19788TIP3   OH280778   3.758   1.585   5.866 -0.4484 -0.4791 -0.2150
19788TIP3    H180779   3.846   1.623   5.860  0.0032 -1.3746  0.3721
19788TIP3    H280780   3.711   1.641   5.927 -0.1079 -0.2929 -0.1196
19789TIP3   OH280781   4.674   0.997  16.911  0.2330  0.3169 -0.1357
19789TIP3    H180782   4.669   1.038  16.998 -1.4005 -4.2323  2.2572
19789TIP3    H280783   4.585   0.965  16.895  0.6736  0.4239 -3.2841
19790TIP3   OH280784   5.734   0.148   0.668  0.3562 -0.0929  0.0790
19790TIP3    H180785   5.808   0.206   0.690  1.5263 -0.7345 -1.9244
19790TIP3    H280786   5.732   0.147   0.573 -1.3794 -1.2352  0.0870
19791TIP3   OH280787   4.798   0.560  12.497 -0.1323  0.1560  0.2978
19791TIP3    H180788   4.769   0.476  12.464  1.6320  0.0158 -1.0880
19791TIP3    H280789   4.791   0.553  12.592 -1.6741 -0.8875  0.1251
19792TIP3   OH280790   0.647   1.827   4.117 -0.4224  0.7397  0.1823
19792TIP3    H180791   0.617   1.832   4.026  0.8757  1.0013 -0.2572
19792TIP3    H280792   0.585   1.882   4.166 -0.2877  1.7972 -0.7906
19793TIP3   OH280793   6.685   0.283  17.085 -0.0271 -0.2214 -1.2296
19793TIP3    H180794   6.761   0.279  17.143  0.2662 -1.2432 -1.6754
19793TIP3    H280795   6.645   0.368  17.105  0.4651 -0.2440 -0.0430
19794TIP3   OH280796   6.493   4.687  16.277 -0.3261  0.0603 -0.6087
19794TIP3    H180797   6.405   4.686  16.313  0.5331  0.8686  1.6992
19794TIP3    H280798   6.528   4.773  16.300  1.9228 -1.1491  0.9009
19795TIP3   OH280799   6.547   3.861   2.414 -0.0024 -0.1352  0.0159
19795TIP3    H180800   6.475   3.865   2.350 -1.3761  0.4661  1.5233
19795TIP3    H280801   6.537   3.775   2.456  0.3815 -0.1935 -0.0081
19796TIP3   OH280802   3.693   4.254  16.984 -0.6240 -0.1903  0.2062
19796TIP3    H180803   3.756   4.209  16.929  0.2278  0.1429  0.8754
19796TIP3    H280804   3.678   4.194  17.058  1.3289  0.9665  1.6544
19797TIP3   OH280805   1.515   2.883   4.401  0.1877 -0.2089 -0.0051
19797TIP3    H180806   1.433   2.839   4.423  0.6832 -0.6114  1.0924
19797TIP3    H280807   1.524   2.951   4.468 -0.1236  1.0079 -1.1557
19798TIP3   OH280808   2.076   6.699  11.153  0.4039 -0.1629  0.2296
19798TIP3    H180809   2.045   6.756  11.082 -0.6732 -0.6001  0.3338
19798TIP3    H280810   2.077   6.612  11.114  0.6288 -0.2832  0.5074
19799TIP3   OH280811   4.925   1.840   0.396 -0.3599 -0.0065  0.1152
19799TIP3    H180812   4.882   1.755   0.405  0.1463 -0.3387 -0.5036
19799TIP3    H280813   4.927   1.855   0.301 -0.7785  0.8701  0.2364
19800TIP3   OH280814   4.245   0.748  11.530  0.0834  0.2780 -0.1997
19800TIP3    H180815   4.260   0.677  11.593  0.7621  1.0797  0.5632
19800TIP3    H280816   4.209   0.820  11.582  0.2489  0.8081 -0.8042
19801TIP3   OH280817   5.519   3.256  12.052  0.3789  0.4685  0.4016
19801TIP3    H180818   5.515   3.252  12.148  1.3829  0.8038  0.4715
19801TIP3    H280819   5.445   3.311  12.027 -0.3247 -0.2175  0.9272
19802TIP3   OH280820   2.617   1.044   1.470  0.1159  0.1266  0.0965
19802TIP3    H180821   2.573   1.065   1.387 -0.7844  1.2585  0.8181
19802TIP3    H280822   2.571   0.967   1.503  1.6946 -1.4872 -1.3057
19803TIP3   OH280823   3.677   3.554  14.755  0.1455  0.0227  0.7245
19803TIP3    H180824   3.732   3.505  14.816  1.2981 -0.3529 -0.5713
19803TIP3    H280825   3.720   3.639  14.746  0.1806 -0.0458  0.1869
19804TIP3   OH280826   6.402   6.403  13.142 -0.3428  0.2741  0.1068
19804TIP3    H180827   6.375   6.314  13.165 -1.1134  0.6859  0.8100
19804TIP3    H280828   6.349   6.425  13.065  0.3840 -0.1340 -0.5339
19805TIP3   OH280829   3.321   4.954  13.564  0.1015  0.3945 -0.0379
19805TIP3    H180830   3.401   4.903  13.547 -0.4281  0.0452 -1.7534
19805TIP3    H280831   3.352   5.032  13.609  1.3204 -0.1043  0.0396
19806TIP3   OH280832   2.459   4.083  13.081 -0.9568  0.4963  0.2629
19806TIP3    H180833   2.519   4.109  13.151 -0.5483 -1.2815  0.6258
19806TIP3    H280834   2.467   3.987  13.077 -2.4640  0.3847 -0.8804
19807TIP3   OH280835   2.474   3.232   6.008 -0.1147 -0.4366  0.3445
19807TIP3    H180836   2.423   3.312   5.991 -0.7511 -1.2070 -1.5692
19807TIP3    H280837   2.542   3.260   6.069 -1.9093  0.9647  1.8289
19808TIP3   OH280838   6.475   0.985   5.598 -0.1766 -0.0997 -0.2283
19808TIP3    H180839   6.457   1.054   5.535 -0.0972 -0.8525 -1.0900
19808TIP3    H280840   6.559   0.948   5.570  0.4296  0.2873  0.9836
19809TIP3   OH280841   2.557   4.342  14.091 -0.5295  0.0470  0.0923
19809TIP3    H180842   2.480   4.379  14.132  0.4313  1.6816  0.5208
19809TIP3    H280843   2.569   4.256  14.133 -0.1311  1.2446  2.6031
19810TIP3   OH280844   3.890   3.643  12.820 -0.0297 -0.2646 -0.0797
19810TIP3    H180845   3.862   3.569  12.874 -0.2164 -1.0514 -1.2098
19810TIP3    H280846   3.951   3.692  12.875  1.6146 -2.3326  0.0491
19811TIP3   OH280847   5.287   0.208   0.155  0.2694  0.1198 -0.1291
19811TIP3    H180848   5.243   0.257   0.085  1.3166  0.2842 -0.6912
19811TIP3    H280849   5.247   0.121   0.152 -0.9662  0.6364  0.2782
19812TIP3   OH280850   5.908   0.494  11.319  0.2565 -0.3585  0.2766
19812TIP3    H180851   5.879   0.403  11.308  1.8045 -0.6358 -2.3721
19812TIP3    H280852   5.945   0.496  11.407 -0.3699 -2.1166  0.6405
19813TIP3   OH280853   4.480   5.880   2.684  0.3455 -0.4756 -0.1844
19813TIP3    H180854   4.458   5.820   2.754  0.7399  0.2600  0.5855
19813TIP3    H280855   4.406   5.941   2.680  0.7122  0.0011  0.1821
19814TIP3   OH280856   1.372   2.007   2.515 -0.2171 -0.0949 -0.0473
19814TIP3    H180857   1.325   2.049   2.443  0.7138 -0.0577 -0.6539
19814TIP3    H280858   1.308   2.003   2.587 -0.9349  0.5180 -0.6351
19815TIP3   OH280859   4.199   0.235   1.628 -0.7899 -0.1376 -0.3030
19815TIP3    H180860   4.256   0.290   1.574  1.0091 -1.9287 -0.3269
19815TIP3    H280861   4.115   0.235   1.582 -0.3010  1.1115 -1.2477
19816TIP3   OH280862   6.520   1.288  16.135 -0.6125  0.7251 -0.0440
19816TIP3    H180863   6.598   1.245  16.100  0.0499  1.1833  0.8250
19816TIP3    H280864   6.508   1.366  16.081  0.7623  1.7570  1.0609
19817TIP3   OH280865   6.675   5.331   4.293  0.3197 -0.4483  0.0621
19817TIP3    H180866   6.755   5.289   4.263 -0.3706 -0.5897 -1.7232
19817TIP3    H280867   6.607   5.299   4.232 -0.7867  0.8660  0.5515
19818TIP3   OH280868   0.365   0.922  11.447 -0.2551 -0.6847  0.2571
19818TIP3    H180869   0.382   0.829  11.457  0.5521 -0.4352  1.4940
19818TIP3    H280870   0.439   0.955  11.395 -0.5914 -0.7455 -0.2644
19819TIP3   OH280871   2.216   1.537   4.408 -0.3727  0.1211  0.0233
19819TIP3    H180872   2.290   1.493   4.365 -0.2814  0.1903  0.1093
19819TIP3    H280873   2.161   1.465   4.439 -1.6715  0.0190 -2.2563
19820TIP3   OH280874   3.018   4.410   4.864 -0.2371  0.1527 -0.1277
19820TIP3    H180875   3.104   4.436   4.831  0.0044  0.0613  0.4186
19820TIP3    H280876   2.982   4.355   4.795  0.3715 -0.2594 -0.1269
19821TIP3   OH280877   6.432   4.196  15.482  0.0307  0.1841 -0.5284
19821TIP3    H180878   6.522   4.226  15.498 -0.8871  2.9255  0.1548
19821TIP3    H280879   6.419   4.206  15.388  0.1108  0.9215 -0.4687
19822TIP3   OH280880   1.772   0.516  16.622  0.1092 -0.0794 -0.3830
19822TIP3    H180881   1.796   0.479  16.537  2.0844 -0.0791  0.1254
19822TIP3    H280882   1.781   0.443  16.683 -1.5388 -0.1409 -0.1777
19823TIP3   OH280883   1.529   4.847   5.648 -0.5846 -0.0365  0.2112
19823TIP3    H180884   1.524   4.825   5.555  0.1589  0.6734 -0.0015
19823TIP3    H280885   1.621   4.833   5.671 -0.2979  1.7791  0.3234
19824TIP3   OH280886   1.443   2.792   3.061  0.1597  0.0622  0.2230
19824TIP3    H180887   1.354   2.759   3.056 -0.5661  2.0239 -0.8833
19824TIP3    H280888   1.479   2.777   2.973 -0.3080  2.3962 -0.4169
19825TIP3   OH280889   3.430   1.508  10.631 -0.4385 -0.0723  0.3030
19825TIP3    H180890   3.425   1.598  10.599 -1.3962  0.0540  0.7794
19825TIP3    H280891   3.381   1.509  10.713 -0.7479 -1.1093  0.1418
19826TIP3   OH280892   1.316   4.542   4.573  0.3156  0.3418  0.5307
19826TIP3    H180893   1.301   4.476   4.641  0.1053  0.8427  0.9815
19826TIP3    H280894   1.229   4.575   4.552 -0.1213 -2.2547 -2.5567
19827TIP3   OH280895   5.700   4.436  15.129 -0.3900  0.8739  0.2087
19827TIP3    H180896   5.700   4.341  15.119  1.0243  0.7243  1.3063
19827TIP3    H280897   5.610   4.463  15.107 -0.3611 -0.4847 -1.8072
19828TIP3   OH280898   5.946   1.496   4.297 -0.0500 -0.3655  0.1640
19828TIP3    H180899   5.920   1.415   4.255  2.7322 -1.3841  0.1725
19828TIP3    H280900   5.969   1.471   4.387  2.1848  0.0615 -0.2183
19829TIP3   OH280901   0.135   5.406  15.941  0.2348 -0.2045  0.2184
19829TIP3    H180902   0.071   5.460  15.987 -1.3575 -0.6118 -1.3966
19829TIP3    H280903   0.218   5.422  15.986 -0.8027  1.1432  1.7285
19830TIP3   OH280904   1.121   6.221  11.886  0.2845  0.1859 -0.0470
19830TIP3    H180905   1.066   6.289  11.924 -0.2985 -0.6538  0.6647
19830TIP3    H280906   1.123   6.152  11.953  1.0488 -0.3921 -0.6499
19831TIP3   OH280907   0.099   5.028  12.100  0.2473  0.0021 -0.1364
19831TIP3    H180908   0.097   5.015  12.005  0.1211  2.3336 -0.5000
19831TIP3    H280909   0.007   5.033  12.125  0.2376 -1.7362  0.3475
19832TIP3   OH280910   1.644   4.409   5.987 -0.2672  1.3668  0.5229
19832TIP3    H180911   1.678   4.442   6.070  1.9586  0.1140  0.1901
19832TIP3    H280912   1.584   4.339   6.012  1.4147  0.0671  1.1389
19833TIP3   OH280913   1.160   3.892  13.119 -0.1053 -0.0548 -0.0489
19833TIP3    H180914   1.089   3.833  13.146  0.9114 -1.1032  0.4136
19833TIP3    H280915   1.197   3.923  13.202  1.2108 -1.0626 -0.2219
19834TIP3   OH280916   3.564   4.378  15.233  0.1826  0.9795 -0.0737
19834TIP3    H180917   3.597   4.330  15.310  0.0339 -3.5681 -2.5052
19834TIP3    H280918   3.469   4.374  15.242  0.1080 -1.1452 -1.1887
19835TIP3   OH280919   5.174   6.735  17.169 -0.6309  0.0340  0.0117
19835TIP3    H180920   5.124   6.656  17.192 -1.1169  0.2471 -0.2906
19835TIP3    H280921   5.138   6.803  17.226 -1.1010  0.3213 -0.6213
19836TIP3   OH280922   1.265   1.021   3.034 -0.7863 -0.3067 -0.4755
19836TIP3    H180923   1.324   1.046   2.964 -2.7426  1.8779 -1.4767
19836TIP3    H280924   1.211   0.951   2.997 -1.5036  0.5258 -1.0712
19837TIP3   OH280925   2.745   6.149  13.255 -0.5541  0.2709  0.0022
19837TIP3    H180926   2.818   6.090  13.269  0.3896  1.0814 -1.2486
19837TIP3    H280927   2.786   6.234  13.235 -1.8421  1.0025  0.3244
19838TIP3   OH280928   6.335   4.033   5.339  0.4447 -0.0325  0.5996
19838TIP3    H180929   6.383   4.115   5.326 -1.2454  0.5827 -3.0503
19838TIP3    H280930   6.383   3.968   5.288 -0.6705 -0.1922 -0.2962
19839TIP3   OH280931   2.796   4.008  11.455 -0.9322 -0.2425  0.2712
19839TIP3    H180932   2.867   4.037  11.398  0.3900 -0.3009  1.7990
19839TIP3    H280933   2.742   4.086  11.468 -0.2763  0.2201  0.2906
19840TIP3   OH280934   5.202   2.892  14.664 -0.3661 -0.2015  0.1667
19840TIP3    H180935   5.161   2.911  14.748  0.0561 -1.3039  0.6501
19840TIP3    H280936   5.177   2.964  14.608 -1.3327  0.1422  1.0103
19841TIP3   OH280937   4.006   1.978   3.305 -0.1239  0.3623  0.0988
19841TIP3    H180938   3.928   1.986   3.249  0.4217  0.1797 -0.7001
19841TIP3    H280939   4.076   1.955   3.245  1.1086  3.0061  0.3942
19842TIP3   OH280940   0.909   3.020   4.352 -0.4997 -0.4009  0.1448
19842TIP3    H180941   0.965   3.069   4.413  0.4227 -0.0900 -0.9070
19842TIP3    H280942   0.876   2.947   4.403  2.4892 -1.7739  0.3422
19843TIP3   OH280943   4.183   1.234  15.647  0.3647 -0.2995 -0.1308
19843TIP3    H180944   4.113   1.201  15.591  0.6089 -1.6635  0.3192
19843TIP3    H280945   4.160   1.204  15.735  1.3130 -0.4378  0.0810
19844TIP3   OH280946   2.060   1.500  15.937 -1.0434  0.4603  0.1047
19844TIP3    H180947   2.086   1.579  15.984  2.0259 -0.5956  0.3875
19844TIP3    H280948   2.041   1.436  16.007  3.2029 -1.0095  0.1956
19845TIP3   OH280949   1.998   6.187  16.317 -0.4481  0.3805 -0.2824
19845TIP3    H180950   1.911   6.212  16.348 -1.5834  1.3970 -3.8016
19845TIP3    H280951   2.020   6.253  16.251  2.8712 -0.0800  0.1886
19846TIP3   OH280952   2.702   4.462   1.219  0.2369 -1.1054 -0.4902
19846TIP3    H180953   2.698   4.529   1.287  2.2916  0.2066 -1.5459
19846TIP3    H280954   2.662   4.503   1.142 -0.4148 -1.8902 -0.5838
19847TIP3   OH280955   0.035   6.604   4.886 -0.0942 -0.1229 -0.1135
19847TIP3    H180956  -0.020   6.682   4.878  1.4334  1.0640  0.4192
19847TIP3    H280957   0.107   6.631   4.943  0.7610 -1.7763 -0.3402
19848TIP3   OH280958   2.619   4.413  15.199  0.0494 -0.3311  0.1618
19848TIP3    H180959   2.602   4.355  15.273  0.4530  0.0045  0.5198
19848TIP3    H280960   2.648   4.355  15.128 -0.1884 -0.6335  0.3129
19849TIP3   OH280961   6.604   0.183  13.912 -0.1200 -1.0751 -0.3259
19849TIP3    H180962   6.614   0.208  14.003  0.1560 -4.1466  0.6069
19849TIP3    H280963   6.527   0.230  13.882 -0.8453 -0.7861  1.8220
19850TIP3   OH280964   0.299   4.227  16.066 -0.0221 -0.3151 -0.4183
19850TIP3    H180965   0.392   4.214  16.049  0.2088 -0.0048  0.5705
19850TIP3    H280966   0.294   4.312  16.109 -0.8137 -0.1330 -0.8557
19851TIP3   OH280967   1.867   3.583  14.159 -0.0047 -0.1974 -0.1790
19851TIP3    H180968   1.876   3.655  14.222 -0.3520 -1.1291  0.9629
19851TIP3    H280969   1.956   3.554  14.142  0.0033 -2.1601  2.5736
19852TIP3   OH280970   2.843   5.012   1.150  0.1618 -0.1779  0.5147
19852TIP3    H180971   2.932   5.033   1.179  0.2815 -0.2735  0.2147
19852TIP3    H280972   2.855   4.946   1.082 -0.2187 -1.3420  1.5457
19853TIP3   OH280973   6.263   5.121  15.611 -0.0779 -0.2313 -0.0563
19853TIP3    H180974   6.269   5.084  15.700  2.6209  1.6853  0.7051
19853TIP3    H280975   6.324   5.069  15.560 -0.2320 -0.1614 -0.3094
19854TIP3   OH280976   1.637   0.429  11.574  0.7088  0.0696 -0.0677
19854TIP3    H180977   1.564   0.437  11.635  1.7286  1.4825  1.0669
19854TIP3    H280978   1.609   0.478  11.497 -0.0061 -0.4269 -0.1281
19855TIP3   OH280979   3.947   1.279   0.998 -0.1757  0.1115  0.4183
19855TIP3    H180980   4.023   1.312   1.047  0.2962  0.2279 -0.3743
19855TIP3    H280981   3.876   1.278   1.062 -0.1255  2.3586  0.5896
19856TIP3   OH280982   5.806   0.557  16.841 -0.4578  0.3767  0.0387
19856TIP3    H180983   5.780   0.545  16.750  1.4992  0.5476 -0.6053
19856TIP3    H280984   5.872   0.489  16.856 -0.4921  0.5819  1.2188
19857TIP3   OH280985   2.677   1.055   2.432 -0.0966  0.0718  0.1182
19857TIP3    H180986   2.661   1.097   2.347  0.5978 -1.8260 -1.0125
19857TIP3    H280987   2.645   1.118   2.496 -0.9096  1.4477 -1.5532
19858TIP3   OH280988   2.178   3.917   5.300 -0.5917  0.5808  0.0996
19858TIP3    H180989   2.228   3.998   5.287  0.0986  0.0977 -0.3340
19858TIP3    H280990   2.215   3.878   5.379  1.6959 -1.1756 -1.7328
19859TIP3   OH280991   6.291   6.724  13.137  0.2419 -0.2258  0.0782
19859TIP3    H180992   6.352   6.685  13.200 -1.8145 -1.4584  1.4322
19859TIP3    H280993   6.225   6.767  13.191 -1.3493 -0.9295 -1.2043
19860TIP3   OH280994   1.368   0.367   1.143  0.4619  0.0109 -0.1375
19860TIP3    H180995   1.414   0.451   1.144  3.2925 -1.4134 -0.3005
19860TIP3    H280996   1.437   0.302   1.131 -1.3980 -2.4855  1.5487
19861TIP3   OH280997   2.324   1.983  11.615 -0.5715  0.5587  0.3916
19861TIP3    H180998   2.278   1.920  11.560  0.7053 -0.1260  0.0847
19861TIP3    H280999   2.337   2.060  11.559  2.3880 -0.8162 -0.9657
19862TIP3   OH281000   6.611   1.760   0.465  0.0521  0.0955  0.1382
19862TIP3    H181001   6.690   1.773   0.414 -1.5138 -0.8323 -2.7391
19862TIP3    H281002   6.573   1.847   0.473 -0.3784  0.0926 -1.5870
19863TIP3   OH281003   5.807   1.141  11.682 -0.3196 -0.3603 -0.0091
19863TIP3    H181004   5.901   1.162  11.682  0.0302 -1.7004  1.6873
19863TIP3    H281005   5.779   1.158  11.592  1.1030  1.8967 -0.1118
19864TIP3   OH281006   0.318   0.693   5.646  0.5658  0.4763  0.2523
19864TIP3    H181007   0.280   0.696   5.734 -0.5553  1.3051 -0.2306
19864TIP3    H281008   0.383   0.624   5.650 -0.9973 -1.0297  1.1683
19865TIP3   OH281009   0.741   5.708  14.324 -0.0649  0.0985 -0.0694
19865TIP3    H181010   0.687   5.633  14.299 -0.8536  0.8499 -0.6588
19865TIP3    H281011   0.824   5.694  14.279 -0.8687  0.5401 -1.7715
19866TIP3   OH281012   5.514   4.356   1.996 -0.8768 -0.1618  0.2520
19866TIP3    H181013   5.549   4.441   2.020 -0.9134  0.6104 -2.1183
19866TIP3    H281014   5.419   4.368   1.995 -0.8427  0.3799 -1.8241
19867TIP3   OH281015   5.766   1.396  15.705 -0.3793 -0.0717 -0.0074
19867TIP3    H181016   5.843   1.376  15.651  0.3127  1.5537  0.3096
19867TIP3    H281017   5.694   1.403  15.642  0.7471  3.6447 -1.1487
19868TIP3   OH281018   4.163   5.414   4.935 -0.1768 -0.0526  0.2313
19868TIP3    H181019   4.180   5.325   4.966  0.8116  0.2359  0.5445
19868TIP3    H281020   4.084   5.405   4.881 -1.4346 -0.7204  2.0652
19869TIP3   OH281021   5.679   1.651  14.861 -0.2144 -0.3941  0.1708
19869TIP3    H181022   5.690   1.557  14.847  0.3487 -0.1234 -1.5182
19869TIP3    H281023   5.594   1.671  14.824 -0.3050 -0.2233  0.4692
19870TIP3   OH281024   5.137   6.074  14.393 -0.3139 -0.2872 -0.6336
19870TIP3    H181025   5.206   6.135  14.419 -0.6210  0.0101 -0.5005
19870TIP3    H281026   5.146   6.067  14.298 -0.4588  0.1957 -0.6873
19871TIP3   OH281027   5.945   5.205  15.569  0.2284  0.4346  0.3644
19871TIP3    H181028   5.887   5.133  15.593 -0.5816  0.1131 -2.1716
19871TIP3    H281029   6.033   5.166  15.569 -0.1252 -0.4178 -0.3192
19872TIP3   OH281030   1.201   3.864  11.495  0.0225  0.2266 -0.2095
19872TIP3    H181031   1.125   3.820  11.458 -0.6377  1.2576 -0.1034
19872TIP3    H281032   1.166   3.942  11.538  0.9702 -0.0198  1.0702
19873TIP3   OH281033   1.205   2.191   3.476 -0.6695 -0.2001 -0.0921
19873TIP3    H181034   1.148   2.154   3.543  0.2987  1.1124  1.5429
19873TIP3    H281035   1.267   2.122   3.456  0.1376 -0.0647  1.7403
19874TIP3   OH281036   0.077   4.766  13.206 -0.1398 -0.0754  0.4945
19874TIP3    H181037   0.018   4.695  13.182  1.0380 -1.0550  0.3693
19874TIP3    H281038   0.021   4.831  13.249 -1.2253 -1.1131  0.6938
19875TIP3   OH281039   6.327   0.770   4.362 -0.1565  0.0050 -0.6193
19875TIP3    H181040   6.386   0.819   4.304 -1.0989  1.6003 -0.2863
19875TIP3    H281041   6.341   0.807   4.449 -1.1021 -0.1001 -0.4067
19876TIP3   OH281042   3.335   4.546   4.691 -0.0581 -0.0167 -0.0919
19876TIP3    H181043   3.297   4.588   4.614 -0.7764 -1.4137 -0.5429
19876TIP3    H281044   3.429   4.548   4.676 -0.2260 -1.4497 -1.7130
19877TIP3   OH281045   1.691   4.250   3.426  0.2296  0.3766 -0.1824
19877TIP3    H181046   1.612   4.304   3.421 -0.4429 -0.6901 -1.6214
19877TIP3    H281047   1.679   4.183   3.359  1.9221 -0.4055  0.2442
19878TIP3   OH281048   2.304   4.466  16.790 -0.6657  0.2903  0.4844
19878TIP3    H181049   2.290   4.374  16.769  0.4622  0.5549 -1.7145
19878TIP3    H281050   2.217   4.506  16.783 -1.0406 -0.4674  0.7765
19879TIP3   OH281051   5.384   2.308   2.900  0.4971  0.0376 -0.1714
19879TIP3    H181052   5.325   2.383   2.893  2.0236  1.2481 -0.6021
19879TIP3    H281053   5.439   2.327   2.976  0.9775 -0.5824 -0.3544
19880TIP3   OH281054   5.336   0.441  15.253 -0.2136 -0.9744 -0.6986
19880TIP3    H181055   5.298   0.434  15.341 -0.8193  0.5257 -0.8139
19880TIP3    H281056   5.318   0.356  15.213 -1.7344 -0.9960 -0.0690
19881TIP3   OH281057   6.118   1.233   5.001 -0.1510  0.1393 -0.0355
19881TIP3    H181058   6.167   1.314   5.009  0.3285 -0.2460  1.1174
19881TIP3    H281059   6.026   1.261   4.994  0.0763  0.7909 -0.5568
19882TIP3   OH281060   1.292   6.525  12.350 -0.1859 -0.2580  0.3114
19882TIP3    H181061   1.323   6.453  12.405 -1.3475 -0.5354  0.6215
19882TIP3    H281062   1.212   6.555  12.393  1.3138  2.5902  1.3352
19883TIP3   OH281063   3.297   2.639  11.918 -0.3445 -0.2276  0.2255
19883TIP3    H181064   3.239   2.598  11.982 -1.5356  1.2480  0.1365
19883TIP3    H281065   3.256   2.621  11.834  0.2863 -0.6592 -0.0024
19884TIP3   OH281066   6.598   4.145   4.844 -0.0189 -0.2070 -0.7225
19884TIP3    H181067   6.628   4.116   4.758 -0.5089 -0.0259 -0.9600
19884TIP3    H281068   6.514   4.187   4.826 -0.7767 -1.3749  0.0240
19885TIP3   OH281069   6.646   3.323   1.431  0.2598  0.3395  0.4362
19885TIP3    H181070   6.551   3.308   1.430  0.5289 -1.7031  0.3993
19885TIP3    H281071   6.669   3.321   1.524  0.3270  0.3607  0.4200
19886TIP3   OH281072   1.536   1.049   1.249 -0.1306 -0.0450 -0.1503
19886TIP3    H181073   1.618   1.035   1.297 -0.7208 -2.8475  0.2106
19886TIP3    H281074   1.563   1.052   1.157  0.5648  1.2232  0.0730
19887TIP3   OH281075   4.845   4.869  15.765  0.7637  0.0581 -0.1397
19887TIP3    H181076   4.865   4.860  15.858  4.2655  3.6106 -0.2604
19887TIP3    H281077   4.808   4.957  15.756 -1.6062 -0.9974 -1.9662
19888TIP3   OH281078   3.885   5.435   3.801  0.4292  0.6158 -0.1867
19888TIP3    H181079   3.968   5.458   3.844 -0.1614  2.3103  0.1114
19888TIP3    H281080   3.828   5.405   3.872  0.5972 -0.0402 -0.3195
19889TIP3   OH281081   4.464   2.306   0.711 -0.9181 -0.0765 -0.0911
19889TIP3    H181082   4.556   2.331   0.711 -1.2310  1.1285  0.6505
19889TIP3    H281083   4.422   2.367   0.650 -1.2876 -0.4268 -0.2003
19890TIP3   OH281084   6.227   2.300  11.505  0.4294  0.4534  0.0095
19890TIP3    H181085   6.311   2.256  11.493  0.6640  1.0423 -0.5665
19890TIP3    H281086   6.195   2.267  11.589 -0.4262 -2.4730 -1.3049
19891TIP3   OH281087   6.714   1.771  16.545 -0.3684 -0.0790 -0.1767
19891TIP3    H181088   6.711   1.842  16.610 -1.2494 -0.6106  0.3754
19891TIP3    H281089   6.796   1.726  16.563 -0.8404 -0.5303  0.9164
19892TIP3   OH281090   2.855   2.603  16.519  0.4273  0.3374 -0.4207
19892TIP3    H181091   2.823   2.686  16.552  1.1591  1.0163 -1.3613
19892TIP3    H281092   2.777   2.557  16.488  0.2161  1.4814 -1.6398
19893TIP3   OH281093   3.037   5.908   2.905  0.6866 -0.1006  0.1053
19893TIP3    H181094   2.976   5.869   2.968 -0.5358  1.1103 -0.2566
19893TIP3    H281095   3.095   5.837   2.880  0.1852 -1.0052  1.3936
19894TIP3   OH281096   2.571   0.370  16.189 -0.3557 -0.0612 -0.0152
19894TIP3    H181097   2.505   0.303  16.171 -1.2049  0.8519 -0.3939
19894TIP3    H281098   2.568   0.381  16.284  1.8598 -2.5895  0.4792
19895TIP3   OH281099   6.696   2.909  12.555 -0.0815 -0.0631 -0.4487
19895TIP3    H181100   6.749   2.975  12.600  0.8238 -0.8145 -0.3790
19895TIP3    H281101   6.645   2.867  12.625  1.0384 -0.9678 -0.1440
19896TIP3   OH281102   0.764   3.445  12.705 -0.4055 -0.4619  0.2914
19896TIP3    H181103   0.733   3.382  12.770 -3.1040  0.0286 -0.4223
19896TIP3    H281104   0.723   3.528  12.730  2.6151  1.0075  0.8851
19897TIP3   OH281105   6.560   6.422  16.683 -0.1433  0.5439  0.5425
19897TIP3    H181106   6.525   6.346  16.729  1.3653 -1.0045 -0.7402
19897TIP3    H281107   6.618   6.464  16.747 -0.4050  0.1859  1.0177
19898TIP3   OH281108   5.662   1.422   2.194 -0.3481  0.4559  0.4217
19898TIP3    H181109   5.707   1.398   2.113 -0.7225  1.2900 -0.0556
19898TIP3    H281110   5.599   1.352   2.208  0.3548 -0.1639  0.5000
19899TIP3   OH281111   3.356   2.192   1.337  0.4350  0.5212 -0.3964
19899TIP3    H181112   3.438   2.186   1.288  0.5681 -1.4872 -0.0093
19899TIP3    H281113   3.348   2.107   1.380 -1.2782  1.1042  0.5106
19900TIP3   OH281114   2.272   5.024   4.926 -0.1869 -0.1188  0.4045
19900TIP3    H181115   2.199   5.060   4.976  1.0380  1.1628  1.3504
19900TIP3    H281116   2.348   5.038   4.982  1.1462  0.7364 -1.5102
19901TIP3   OH281117   3.208   5.221  13.826  0.9560 -0.3484  0.2434
19901TIP3    H181118   3.179   5.308  13.852  1.0164  0.6290 -2.6229
19901TIP3    H281119   3.130   5.166  13.833  0.0736  0.7004 -0.9237
19902TIP3   OH281120   3.803   6.056  12.743 -0.5231  0.1553  0.5148
19902TIP3    H181121   3.893   6.047  12.775 -0.4940 -0.3522  0.2935
19902TIP3    H281122   3.751   6.071  12.822  0.0174  2.7013  0.4767
19903TIP3   OH281123   1.872   5.928   2.830 -0.1859  0.2029 -0.3906
19903TIP3    H181124   1.872   6.024   2.842  0.0701  0.1397  0.1598
19903TIP3    H281125   1.958   5.900   2.861 -0.6676 -0.3275  0.5235
19904TIP3   OH281126   4.333   4.413   2.983 -0.1170 -0.1857  0.1359
19904TIP3    H181127   4.424   4.433   3.004 -0.3998  1.1727  0.1443
19904TIP3    H281128   4.282   4.471   3.040 -1.0003 -1.0310  0.2338
19905TIP3   OH281129   5.265   0.544   4.404 -0.1667 -0.0246 -0.1440
19905TIP3    H181130   5.342   0.495   4.375  1.2898  2.0344 -0.0504
19905TIP3    H281131   5.227   0.491   4.474 -0.1666 -2.1450 -1.6852
19906TIP3   OH281132   5.297   5.621  11.778  0.0296 -0.0736 -0.0389
19906TIP3    H181133   5.254   5.674  11.711 -1.0799  0.8305  1.3405
19906TIP3    H281134   5.355   5.682  11.823 -0.5117 -0.2548  0.9183
19907TIP3   OH281135   2.010   5.408   4.213 -0.5945 -0.2211  0.0123
19907TIP3    H181136   2.044   5.359   4.138  0.1284 -0.6806  0.6333
19907TIP3    H281137   2.085   5.456   4.246 -1.0279  0.3740  0.1532
19908TIP3   OH281138   2.401   2.905   5.658 -0.2863 -0.3241 -0.6604
19908TIP3    H181139   2.491   2.879   5.678 -0.4934 -0.1217  0.6139
19908TIP3    H281140   2.358   2.824   5.631 -0.2357 -0.8077  0.6757
19909TIP3   OH281141   6.431   2.279  13.307 -0.4966  0.0515  0.7615
19909TIP3    H181142   6.397   2.260  13.394  1.8178 -1.1018  1.5015
19909TIP3    H281143   6.354   2.284  13.251 -2.2976  2.9610  3.1592
19910TIP3   OH281144   6.634   1.838  13.813 -0.5012 -0.2606 -0.5267
19910TIP3    H181145   6.705   1.779  13.787  0.0802  0.1978 -0.0055
19910TIP3    H281146   6.675   1.900  13.873 -0.9314  1.1018 -1.5814
19911TIP3   OH281147   4.692   2.255  13.138  0.1851  0.3080  0.0769
19911TIP3    H181148   4.666   2.179  13.087  0.9901 -0.3721  0.6530
19911TIP3    H281149   4.617   2.275  13.193  0.0603 -0.2244  0.1006
19912TIP3   OH281150   2.403   4.964  13.700 -0.4465 -0.3565 -0.1572
19912TIP3    H181151   2.471   4.903  13.670  0.7427  0.7027  0.3126
19912TIP3    H281152   2.427   5.048  13.662 -0.1659  0.5368  1.8752
19913TIP3   OH281153   6.397   0.213   4.110 -0.7297  0.3377  0.5505
19913TIP3    H181154   6.435   0.130   4.136  1.8528  0.8147 -1.3332
19913TIP3    H281155   6.442   0.278   4.163 -2.8839  0.6401  2.1646
19914TIP3   OH281156   0.526   5.294   1.539 -0.2949  0.0394  0.3900
19914TIP3    H181157   0.515   5.257   1.452  0.6241 -0.3872  0.4488
19914TIP3    H281158   0.516   5.389   1.527  0.4555  0.0423 -0.2865
19915TIP3   OH281159   2.626   4.361   4.714  0.4102 -0.1736 -0.3778
19915TIP3    H181160   2.543   4.312   4.710  1.4480 -2.0920  0.3314
19915TIP3    H281161   2.620   4.423   4.642 -1.8304  0.0646 -0.0822
19916TIP3   OH281162   5.953   2.714  14.258 -0.5671 -0.1929  0.0538
19916TIP3    H181163   5.960   2.745  14.348  0.4274  1.3252 -0.5139
19916TIP3    H281164   6.042   2.685  14.236 -0.2445  1.5530 -1.1317
19917TIP3   OH281165   0.360   4.918  13.282 -0.3927 -0.2396  0.3915
19917TIP3    H181166   0.280   4.969  13.272  1.3147  2.2841 -2.1219
19917TIP3    H281167   0.412   4.967  13.346  0.5463  0.3160 -0.7349
19918TIP3   OH281168   0.706   2.442  11.317  0.1914 -0.0399 -0.2598
19918TIP3    H181169   0.717   2.462  11.410  0.6069  0.4283 -0.4061
19918TIP3    H281170   0.673   2.523  11.279  3.7826  1.1874 -1.2163
19919TIP3   OH281171   5.735   4.027   6.138  0.8333  0.1969 -0.4287
19919TIP3    H181172   5.689   3.995   6.216 -0.5070  3.4628  0.3033
19919TIP3    H281173   5.822   4.051   6.170 -0.0121  2.4014  0.4010
19920TIP3   OH281174   4.294   3.976   0.292 -0.2048  0.0258  0.2023
19920TIP3    H181175   4.202   3.957   0.272 -0.4148 -0.6765  1.7429
19920TIP3    H281176   4.291   4.061   0.336  0.0429  0.5995 -0.8452
19921TIP3   OH281177   1.925   4.792   1.078 -0.2657 -0.1819  0.5452
19921TIP3    H181178   1.905   4.884   1.095 -0.9406 -0.0161 -0.9400
19921TIP3    H281179   1.863   4.743   1.132 -1.0562  0.2811  0.0875
19922TIP3   OH281180   3.428   1.618  13.496  0.0428 -0.3243  0.5281
19922TIP3    H181181   3.346   1.588  13.536 -0.0414 -1.4030 -0.3863
19922TIP3    H281182   3.491   1.549  13.516 -0.0560 -1.0168 -1.3134
19923TIP3   OH281183   5.436   6.668   6.655  0.2098  0.0756  0.0284
19923TIP3    H181184   5.467   6.590   6.608 -0.2795  1.2399 -2.4270
19923TIP3    H281185   5.372   6.635   6.718  0.4573 -1.5672 -0.5443
19924TIP3   OH281186   4.804   5.206   1.770 -0.0714 -0.0592  0.0832
19924TIP3    H181187   4.754   5.286   1.755  0.6864  0.2316 -1.0206
19924TIP3    H281188   4.895   5.235   1.776 -0.0144 -0.5560  2.2896
19925TIP3   OH281189   6.724   0.242   5.501  0.2066  0.4523 -0.3619
19925TIP3    H181190   6.650   0.236   5.441  1.1406  0.5091 -1.5773
19925TIP3    H281191   6.800   0.218   5.447  1.2998  2.1527  0.3336
19926TIP3   OH281192   3.021   3.800   5.884  0.0248 -0.0671  0.3195
19926TIP3    H181193   3.075   3.861   5.833  0.3609 -0.4580  0.2008
19926TIP3    H281194   3.080   3.766   5.951  0.1924 -1.1968 -0.3794
19927TIP3   OH281195   2.669   0.231  12.258 -0.1231 -0.5069 -0.0457
19927TIP3    H181196   2.754   0.261  12.224 -0.7377 -0.4385 -1.5741
19927TIP3    H281197   2.604   0.282  12.209 -1.0832 -1.4636  0.1964
19928TIP3   OH281198   6.406   3.483   5.505 -0.1337  0.2188 -0.1255
19928TIP3    H181199   6.478   3.541   5.528 -0.2448 -0.1169  1.1150
19928TIP3    H281200   6.330   3.521   5.548 -0.4829 -0.0464 -0.5084
19929TIP3   OH281201   0.232   0.419   1.870  0.3383 -0.4521  0.0063
19929TIP3    H181202   0.246   0.326   1.854 -0.4504 -0.9891  2.0676
19929TIP3    H281203   0.222   0.426   1.965  0.8610  1.8201 -0.0431
19930TIP3   OH281204   5.904   0.453  11.591  0.0301 -0.4313 -0.4409
19930TIP3    H181205   5.856   0.371  11.584 -0.4086 -0.2355  0.1946
19930TIP3    H281206   5.922   0.463  11.685  0.0517  0.2126 -0.5035
19931TIP3   OH281207   3.553   3.430  11.395  0.5381  0.3035  0.2238
19931TIP3    H181208   3.641   3.466  11.403  1.2066 -0.9766 -1.0780
19931TIP3    H281209   3.529   3.408  11.485  2.7932 -2.1100  0.3627
19932TIP3   OH281210   0.467   6.553   4.127 -0.3884 -0.9847  0.1847
19932TIP3    H181211   0.495   6.642   4.145 -2.4271  0.0821 -1.4474
19932TIP3    H281212   0.523   6.523   4.056 -1.6984  0.2130 -1.4067
19933TIP3   OH281213   1.091   1.911   4.224 -0.0413 -0.4764 -0.2603
19933TIP3    H181214   1.064   1.985   4.279  1.2790  0.4114 -0.7391
19933TIP3    H281215   1.009   1.870   4.197 -1.0993  2.5904 -2.3659
19934TIP3   OH281216   5.246   0.525   1.048  0.7265  0.3203 -0.2190
19934TIP3    H181217   5.194   0.445   1.052 -2.3354  2.0087 -2.2214
19934TIP3    H281218   5.314   0.507   0.982 -0.7218 -0.2751 -1.6134
19935TIP3   OH281219   1.428   5.932   2.373  0.1439 -0.3092 -0.9968
19935TIP3    H181220   1.518   5.958   2.393 -0.0051  0.0142 -0.7417
19935TIP3    H281221   1.426   5.838   2.390 -0.2291  0.0927  1.4463
19936TIP3   OH281222   6.267   4.065   1.247 -0.5055  0.3881 -0.3729
19936TIP3    H181223   6.343   4.044   1.193  0.2988  0.1422  0.8103
19936TIP3    H281224   6.201   4.001   1.220 -0.3851  0.7418 -1.5652
19937TIP3   OH281225   4.289   0.837  15.652  0.7409 -0.1043 -0.0606
19937TIP3    H181226   4.374   0.858  15.689  1.9388 -1.4435 -1.8463
19937TIP3    H281227   4.295   0.866  15.561  0.5126 -2.9765 -1.0930
19938TIP3   OH281228   6.070   2.398  11.291 -0.0575 -0.4459 -0.2011
19938TIP3    H181229   6.134   2.368  11.356  0.3677  0.4026 -0.2084
19938TIP3    H281230   6.075   2.333  11.221  0.2672 -0.7900  0.1339
19939TIP3   OH281231   3.501   1.763   1.238  0.3885  0.9225 -0.6102
19939TIP3    H181232   3.498   1.859   1.247 -1.5856  0.8957 -0.5541
19939TIP3    H281233   3.452   1.731   1.313  1.3132 -0.1871 -0.4491
19940TIP3   OH281234   1.583   3.124   6.255  0.2529 -0.0478  0.0030
19940TIP3    H181235   1.586   3.163   6.342 -1.2268 -1.4584  0.7349
19940TIP3    H281236   1.621   3.037   6.265  0.2652 -0.1518 -0.8156
19941LIG      S81237   3.557   3.674  16.425  0.1986 -0.0854 -0.7057
19941LIG     F181238   3.673   3.116  16.480  0.3377 -0.2492 -0.3909
19941LIG     F281239   3.502   3.051  16.373 -0.5747 -0.2222 -0.4637
19941LIG     F381240   3.647   3.181  16.279 -0.0034  0.3655 -0.0837
19941LIG     N181241   3.660   3.514  16.993  0.4484  0.1555  0.2463
19941LIG     N281242   3.780   3.683  17.190  0.7543 -0.0702 -0.1219
19941LIG     N381243   3.384   3.615  16.653 -0.0047 -0.0223  0.6543
19941LIG     N481244   3.242   3.337  16.682  0.0496 -0.2538 -0.3869
19941LIG     C181245   3.613   3.512  17.131 -0.7714 -0.1470 -0.1810
19941LIG     C281246   3.808   3.545  16.980  0.3409  0.7771 -0.3285
19941LIG     C381247   3.580   3.596  16.898  0.4432  0.1999 -0.9069
19941LIG     C481248   3.642   3.644  17.198  0.4728  0.2397 -0.6184
19941LIG     C581249   3.827   3.684  17.046  0.2236  0.0334  0.6532
19941LIG     C681250   3.450   3.519  16.873 -0.4497  0.2381  0.4497
19941LIG     C781251   3.348   3.602  16.792  0.1393 -0.1051 -0.2038
19941LIG     C881252   3.875   3.619  17.276 -0.5992 -0.0069 -1.0212
19941LIG     C981253   3.405   3.503  16.573 -0.1654  0.1855 -0.7401
19941LIG    C1081254   3.349   3.731  16.581  0.4865 -0.0523  1.0452
19941LIG    C1181255   3.495   3.509  16.462 -0.1246 -1.3702 -0.3398
19941LIG    C1281256   3.418   3.767  16.466 -0.0480 -0.0241 -0.3949
19941LIG    C1381257   3.346   3.374  16.597 -0.1330  0.8252  0.4113
19941LIG    C1481258   3.224   3.796  16.606  0.2024 -0.9572  0.1291
19941LIG    C1581259   3.548   3.403  16.399  0.2054 -0.3499 -0.4908
19941LIG    C1681260   3.401   3.263  16.532  0.3823  0.3213  0.8973
19941LIG    C1781261   3.502   3.273  16.434  0.3027 -0.3017  0.0391
19941LIG    C1881262   3.377   3.876  16.379  0.4292 -0.2864 -0.9602
19941LIG    C1981263   3.185   3.903  16.513  0.4593 -0.4340 -0.3541
19941LIG    C2081264   3.264   3.946  16.403 -0.6557  0.2133  0.3522
19941LIG    C2181265   3.583   3.158  16.394 -0.4437  0.1717  0.1401
19941LIG     H181266   3.663   3.434  17.191  3.4008  1.5633 -1.0858
19941LIG     H281267   3.504   3.492  17.139 -0.8944 -1.4316 -3.3957
19941LIG     H381268   3.836   3.547  16.873  0.2248  0.6464 -0.3615
19941LIG     H481269   3.865   3.473  17.041  0.5460  1.1830 -0.0331
19941LIG     H581270   3.650   3.616  16.813  2.5321 -0.4669  0.5708
19941LIG     H681271   3.564   3.698  16.937  1.0189  0.6191 -1.7180
19941LIG     H781272   3.596   3.733  17.151 -3.0902  0.2127  2.3497
19941LIG     H881273   3.634   3.647  17.309  0.6157  0.8047 -0.6225
19941LIG     H981274   3.936   3.705  17.040  0.5424 -1.7412 -0.5797
19941LIG    H1081275   3.773   3.768  16.997 -1.0553 -1.0586  0.1448
19941LIG    H1181276   3.400   3.497  16.970 -0.8390 -2.1123 -0.2206
19941LIG    H1281277   3.471   3.426  16.817 -0.2005 -0.2016  1.2551
19941LIG    H1381278   3.242   3.568  16.798  0.6470 -1.7813 -0.2063
19941LIG    H1481279   3.351   3.707  16.828 -1.9481 -0.5500  1.5146
19941LIG    H1581280   3.899   3.678  17.367 -0.2186 -3.3882  1.2549
19941LIG    H1681281   3.967   3.585  17.223 -0.4965 -0.7484 -0.3838
19941LIG    H1781282   3.838   3.524  17.319 -2.3116  1.0641 -0.0463
19941LIG    H1881283   3.155   3.765  16.683 -1.0099 -1.3209 -1.0449
19941LIG    H1981284   3.625   3.417  16.325 -1.1432  1.5940 -1.6183
19941LIG    H2081285   3.364   3.166  16.561 -1.2749  0.9879  1.1144
19941LIG    H2181286   3.447   3.900  16.300  2.2876 -2.3358 -0.0569
19941LIG    H2281287   3.093   3.960  16.525  1.2789  0.6437  1.2537
19941LIG    H2381288   3.226   4.026  16.341 -1.5814 -1.8591 -1.9078
19941LIG    H2481289   3.206   3.245  16.666 -0.9610  0.0814 -0.0966
19941LIG    H2581290   3.173   3.407  16.697  0.4506  0.2222 -0.7417
   6.78071   6.78071  17.27340
